# vtk DataFile Version 2.0
LBM Flow Field - Timestep 1720
ASCII
DATASET STRUCTURED_POINTS
DIMENSIONS 128 128 1
ORIGIN 0.0 0.0 0.0
SPACING 1.0 1.0 1.0
POINT_DATA 16384
SCALARS density double 1
LOOKUP_TABLE default
1.00543419e+00
1.00544310e+00
1.00544830e+00
1.00542591e+00
1.00539691e+00
1.00536568e+00
1.00532657e+00
1.00527988e+00
1.00522884e+00
1.00517335e+00
1.00511307e+00
1.00504887e+00
1.00498155e+00
1.00491136e+00
1.00483871e+00
1.00476409e+00
1.00468790e+00
1.00461045e+00
1.00453204e+00
1.00445292e+00
1.00437329e+00
1.00429328e+00
1.00421301e+00
1.00413253e+00
1.00405185e+00
1.00397095e+00
1.00388979e+00
1.00380828e+00
1.00372635e+00
1.00364389e+00
1.00356081e+00
1.00347701e+00
1.00339241e+00
1.00330693e+00
1.00322052e+00
1.00313315e+00
1.00304481e+00
1.00295552e+00
1.00286530e+00
1.00277422e+00
1.00268234e+00
1.00258975e+00
1.00249655e+00
1.00240283e+00
1.00230870e+00
1.00221425e+00
1.00211957e+00
1.00202472e+00
1.00192979e+00
1.00183479e+00
1.00173977e+00
1.00164472e+00
1.00154963e+00
1.00145445e+00
1.00135914e+00
1.00126362e+00
1.00116781e+00
1.00107161e+00
1.00097490e+00
1.00087758e+00
1.00077952e+00
1.00068061e+00
1.00058072e+00
1.00047976e+00
1.00037763e+00
1.00027424e+00
1.00016952e+00
1.00006344e+00
9.99955975e-01
9.99847133e-01
9.99736953e-01
9.99625505e-01
9.99512893e-01
9.99399249e-01
9.99284738e-01
9.99169554e-01
9.99053912e-01
9.98938050e-01
9.98822217e-01
9.98706670e-01
9.98591668e-01
9.98477463e-01
9.98364292e-01
9.98252376e-01
9.98141907e-01
9.98033053e-01
9.97925946e-01
9.97820685e-01
9.97717338e-01
9.97615936e-01
9.97516485e-01
9.97418962e-01
9.97323323e-01
9.97229509e-01
9.97137451e-01
9.97047073e-01
9.96958303e-01
9.96871074e-01
9.96785329e-01
9.96701028e-01
9.96618148e-01
9.96536683e-01
9.96456653e-01
9.96378096e-01
9.96301072e-01
9.96225661e-01
9.96151963e-01
9.96080094e-01
9.96010187e-01
9.95942382e-01
9.95876829e-01
9.95813700e-01
9.95753168e-01
9.95695369e-01
9.95640486e-01
9.95588768e-01
9.95540339e-01
9.95495163e-01
9.95453685e-01
9.95416425e-01
9.95382749e-01
9.95352216e-01
9.95327726e-01
9.95309421e-01
9.95291081e-01
9.95276494e-01
9.95289231e-01
9.95303353e-01
1.00544326e+00
1.00543971e+00
1.00543722e+00
1.00541780e+00
1.00539121e+00
1.00535868e+00
1.00531986e+00
1.00527445e+00
1.00522393e+00
1.00516863e+00
1.00510899e+00
1.00504543e+00
1.00497857e+00
1.00490884e+00
1.00483669e+00
1.00476252e+00
1.00468673e+00
1.00460964e+00
1.00453156e+00
1.00445271e+00
1.00437331e+00
1.00429349e+00
1.00421335e+00
1.00413296e+00
1.00405232e+00
1.00397142e+00
1.00389022e+00
1.00380864e+00
1.00372661e+00
1.00364403e+00
1.00356081e+00
1.00347686e+00
1.00339210e+00
1.00330647e+00
1.00321990e+00
1.00313239e+00
1.00304392e+00
1.00295450e+00
1.00286418e+00
1.00277301e+00
1.00268106e+00
1.00258841e+00
1.00249517e+00
1.00240142e+00
1.00230727e+00
1.00221281e+00
1.00211812e+00
1.00202328e+00
1.00192835e+00
1.00183335e+00
1.00173833e+00
1.00164328e+00
1.00154817e+00
1.00145299e+00
1.00135766e+00
1.00126212e+00
1.00116629e+00
1.00107006e+00
1.00097333e+00
1.00087599e+00
1.00077791e+00
1.00067899e+00
1.00057910e+00
1.00047815e+00
1.00037605e+00
1.00027270e+00
1.00016804e+00
1.00006204e+00
9.99954678e-01
9.99845959e-01
9.99735924e-01
9.99624640e-01
9.99512209e-01
9.99398762e-01
9.99284459e-01
9.99169490e-01
9.99054066e-01
9.98938420e-01
9.98822796e-01
9.98707447e-01
9.98592628e-01
9.98478587e-01
9.98365561e-01
9.98253766e-01
9.98143397e-01
9.98034620e-01
9.97927571e-01
9.97822351e-01
9.97719031e-01
9.97617648e-01
9.97518210e-01
9.97420700e-01
9.97325078e-01
9.97231289e-01
9.97139266e-01
9.97048938e-01
9.96960232e-01
9.96873084e-01
9.96787436e-01
9.96703247e-01
9.96620491e-01
9.96539162e-01
9.96459274e-01
9.96380863e-01
9.96303987e-01
9.96228721e-01
9.96155162e-01
9.96083423e-01
9.96013634e-01
9.95945934e-01
9.95880479e-01
9.95817428e-01
9.95756950e-01
9.95699212e-01
9.95644403e-01
9.95592683e-01
9.95544237e-01
9.95499205e-01
9.95457870e-01
9.95420321e-01
9.95386692e-01
9.95357009e-01
9.95332433e-01
9.95312313e-01
9.95296137e-01
9.95284731e-01
9.95289070e-01
9.95288917e-01
1.00545119e+00
1.00544010e+00
1.00542083e+00
1.00540663e+00
1.00538417e+00
1.00534946e+00
1.00530994e+00
1.00526631e+00
1.00521653e+00
1.00516140e+00
1.00510243e+00
1.00503971e+00
1.00497347e+00
1.00490434e+00
1.00483285e+00
1.00475932e+00
1.00468411e+00
1.00460758e+00
1.00453002e+00
1.00445166e+00
1.00437268e+00
1.00429324e+00
1.00421343e+00
1.00413331e+00
1.00405289e+00
1.00397216e+00
1.00389108e+00
1.00380957e+00
1.00372757e+00
1.00364498e+00
1.00356171e+00
1.00347769e+00
1.00339283e+00
1.00330708e+00
1.00322039e+00
1.00313274e+00
1.00304413e+00
1.00295457e+00
1.00286411e+00
1.00277281e+00
1.00268073e+00
1.00258797e+00
1.00249462e+00
1.00240077e+00
1.00230652e+00
1.00221197e+00
1.00211719e+00
1.00202227e+00
1.00192725e+00
1.00183218e+00
1.00173707e+00
1.00164193e+00
1.00154674e+00
1.00145146e+00
1.00135604e+00
1.00126041e+00
1.00116449e+00
1.00106817e+00
1.00097135e+00
1.00087392e+00
1.00077577e+00
1.00067678e+00
1.00057685e+00
1.00047586e+00
1.00037373e+00
1.00027038e+00
1.00016575e+00
1.00005979e+00
9.99952484e-01
9.99843847e-01
9.99733914e-01
9.99622752e-01
9.99510458e-01
9.99397162e-01
9.99283020e-01
9.99168219e-01
9.99052966e-01
9.98937490e-01
9.98822032e-01
9.98706843e-01
9.98592174e-01
9.98478273e-01
9.98365374e-01
9.98253696e-01
9.98143434e-01
9.98034757e-01
9.97927803e-01
9.97822678e-01
9.97719456e-01
9.97618178e-01
9.97518857e-01
9.97421479e-01
9.97326009e-01
9.97232394e-01
9.97140569e-01
9.97050464e-01
9.96962006e-01
9.96875130e-01
9.96789776e-01
9.96705900e-01
9.96623472e-01
9.96542482e-01
9.96462939e-01
9.96384875e-01
9.96308340e-01
9.96233408e-01
9.96160169e-01
9.96088734e-01
9.96019226e-01
9.95951787e-01
9.95886571e-01
9.95823728e-01
9.95763424e-01
9.95705860e-01
9.95651208e-01
9.95599562e-01
9.95551173e-01
9.95506384e-01
9.95465127e-01
9.95427224e-01
9.95393794e-01
9.95365332e-01
9.95339565e-01
9.95316795e-01
9.95304570e-01
9.95298526e-01
9.95283767e-01
9.95275100e-01
1.00543551e+00
1.00542756e+00
1.00541296e+00
1.00539517e+00
1.00536889e+00
1.00533663e+00
1.00529878e+00
1.00525479e+00
1.00520539e+00
1.00515153e+00
1.00509339e+00
1.00503133e+00
1.00496598e+00
1.00489779e+00
1.00482714e+00
1.00475442e+00
1.00468004e+00
1.00460430e+00
1.00452748e+00
1.00444980e+00
1.00437147e+00
1.00429261e+00
1.00421332e+00
1.00413366e+00
1.00405364e+00
1.00397324e+00
1.00389243e+00
1.00381114e+00
1.00372930e+00
1.00364682e+00
1.00356361e+00
1.00347961e+00
1.00339474e+00
1.00330894e+00
1.00322218e+00
1.00313443e+00
1.00304571e+00
1.00295603e+00
1.00286544e+00
1.00277399e+00
1.00268177e+00
1.00258886e+00
1.00249535e+00
1.00240134e+00
1.00230693e+00
1.00221222e+00
1.00211727e+00
1.00202217e+00
1.00192697e+00
1.00183171e+00
1.00173642e+00
1.00164108e+00
1.00154569e+00
1.00145022e+00
1.00135459e+00
1.00125876e+00
1.00116263e+00
1.00106611e+00
1.00096910e+00
1.00087149e+00
1.00077317e+00
1.00067403e+00
1.00057395e+00
1.00047284e+00
1.00037061e+00
1.00026717e+00
1.00016248e+00
1.00005648e+00
9.99949167e-01
9.99840542e-01
9.99730643e-01
9.99619536e-01
9.99507318e-01
9.99394114e-01
9.99280080e-01
9.99165398e-01
9.99050273e-01
9.98934930e-01
9.98819609e-01
9.98704558e-01
9.98590027e-01
9.98476262e-01
9.98363499e-01
9.98251956e-01
9.98141831e-01
9.98033295e-01
9.97926488e-01
9.97821521e-01
9.97718472e-01
9.97617386e-01
9.97518281e-01
9.97421145e-01
9.97325947e-01
9.97232636e-01
9.97141149e-01
9.97051416e-01
9.96963365e-01
9.96876927e-01
9.96792041e-01
9.96708658e-01
9.96626745e-01
9.96546286e-01
9.96467285e-01
9.96389767e-01
9.96313778e-01
9.96239384e-01
9.96166670e-01
9.96095743e-01
9.96026724e-01
9.95959745e-01
9.95894956e-01
9.95832522e-01
9.95772601e-01
9.95715358e-01
9.95660989e-01
9.95609684e-01
9.95561564e-01
9.95516823e-01
9.95475773e-01
9.95438479e-01
9.95404822e-01
9.95375453e-01
9.95350882e-01
9.95330095e-01
9.95313238e-01
9.95303185e-01
9.95293786e-01
9.95288142e-01
1.00541641e+00
1.00541020e+00
1.00539961e+00
1.00537803e+00
1.00535110e+00
1.00532119e+00
1.00528368e+00
1.00523963e+00
1.00519139e+00
1.00513877e+00
1.00508146e+00
1.00502038e+00
1.00495620e+00
1.00488911e+00
1.00481951e+00
1.00474788e+00
1.00467456e+00
1.00459983e+00
1.00452397e+00
1.00444721e+00
1.00436973e+00
1.00429166e+00
1.00421309e+00
1.00413407e+00
1.00405462e+00
1.00397472e+00
1.00389433e+00
1.00381339e+00
1.00373183e+00
1.00364957e+00
1.00356652e+00
1.00348263e+00
1.00339781e+00
1.00331202e+00
1.00322523e+00
1.00313743e+00
1.00304861e+00
1.00295882e+00
1.00286809e+00
1.00277650e+00
1.00268411e+00
1.00259101e+00
1.00249731e+00
1.00240309e+00
1.00230847e+00
1.00221352e+00
1.00211833e+00
1.00202298e+00
1.00192751e+00
1.00183197e+00
1.00173639e+00
1.00164076e+00
1.00154506e+00
1.00144927e+00
1.00135334e+00
1.00125719e+00
1.00116075e+00
1.00106392e+00
1.00096661e+00
1.00086870e+00
1.00077010e+00
1.00067070e+00
1.00057038e+00
1.00046904e+00
1.00036662e+00
1.00026301e+00
1.00015817e+00
1.00005206e+00
9.99944661e-01
9.99835979e-01
9.99726051e-01
9.99614943e-01
9.99502747e-01
9.99389589e-01
9.99275621e-01
9.99161023e-01
9.99045997e-01
9.98930765e-01
9.98815565e-01
9.98700644e-01
9.98586249e-01
9.98472626e-01
9.98360012e-01
9.98248626e-01
9.98138669e-01
9.98030312e-01
9.97923703e-01
9.97818954e-01
9.97716147e-01
9.97615333e-01
9.97516534e-01
9.97419742e-01
9.97324929e-01
9.97232047e-01
9.97141034e-01
9.97051820e-01
9.96964332e-01
9.96878499e-01
9.96794257e-01
9.96711552e-01
9.96630345e-01
9.96550614e-01
9.96472358e-01
9.96395592e-01
9.96320357e-01
9.96246711e-01
9.96174734e-01
9.96104523e-01
9.96036196e-01
9.95969883e-01
9.95905721e-01
9.95843876e-01
9.95784520e-01
9.95727793e-01
9.95673866e-01
9.95623001e-01
9.95575344e-01
9.95530872e-01
9.95489943e-01
9.95453169e-01
9.95420002e-01
9.95389918e-01
9.95364999e-01
9.95346174e-01
9.95328330e-01
9.95313628e-01
9.95307982e-01
9.95304316e-01
1.00539780e+00
1.00538984e+00
1.00537685e+00
1.00535752e+00
1.00533289e+00
1.00530139e+00
1.00526390e+00
1.00522192e+00
1.00517485e+00
1.00512277e+00
1.00506669e+00
1.00500711e+00
1.00494415e+00
1.00487828e+00
1.00481003e+00
1.00473972e+00
1.00466765e+00
1.00459415e+00
1.00451948e+00
1.00444385e+00
1.00436742e+00
1.00429033e+00
1.00421267e+00
1.00413447e+00
1.00405575e+00
1.00397650e+00
1.00389667e+00
1.00381621e+00
1.00373505e+00
1.00365310e+00
1.00357031e+00
1.00348659e+00
1.00340189e+00
1.00331616e+00
1.00322938e+00
1.00314155e+00
1.00305266e+00
1.00296276e+00
1.00287190e+00
1.00278013e+00
1.00268755e+00
1.00259424e+00
1.00250030e+00
1.00240583e+00
1.00231093e+00
1.00221568e+00
1.00212018e+00
1.00202450e+00
1.00192869e+00
1.00183279e+00
1.00173682e+00
1.00164080e+00
1.00154471e+00
1.00144851e+00
1.00135216e+00
1.00125560e+00
1.00115875e+00
1.00106151e+00
1.00096380e+00
1.00086551e+00
1.00076654e+00
1.00066679e+00
1.00056614e+00
1.00046451e+00
1.00036180e+00
1.00025795e+00
1.00015290e+00
1.00004661e+00
9.99939063e-01
9.99830267e-01
9.99720258e-01
9.99609098e-01
9.99496882e-01
9.99383731e-01
9.99269795e-01
9.99155250e-01
9.99040299e-01
9.98925160e-01
9.98810068e-01
9.98695269e-01
9.98581010e-01
9.98467538e-01
9.98355088e-01
9.98243882e-01
9.98134123e-01
9.98025988e-01
9.97919625e-01
9.97815153e-01
9.97712658e-01
9.97612197e-01
9.97513794e-01
9.97417448e-01
9.97323132e-01
9.97230800e-01
9.97140392e-01
9.97051839e-01
9.96965065e-01
9.96879996e-01
9.96796564e-01
9.96714711e-01
9.96634391e-01
9.96555574e-01
9.96478251e-01
9.96402431e-01
9.96328144e-01
9.96255441e-01
9.96184395e-01
9.96115094e-01
9.96047648e-01
9.95982184e-01
9.95918841e-01
9.95857760e-01
9.95799109e-01
9.95743079e-01
9.95689809e-01
9.95639434e-01
9.95592243e-01
9.95548452e-01
9.95507951e-01
9.95470948e-01
9.95438189e-01
9.95409480e-01
9.95383873e-01
9.95362774e-01
9.95346864e-01
9.95334130e-01
9.95325678e-01
9.95319973e-01
1.00537353e+00
1.00536557e+00
1.00535169e+00
1.00533386e+00
1.00530951e+00
1.00527799e+00
1.00524204e+00
1.00520123e+00
1.00515486e+00
1.00510410e+00
1.00504963e+00
1.00499140e+00
1.00492982e+00
1.00486551e+00
1.00479880e+00
1.00472996e+00
1.00465935e+00
1.00458729e+00
1.00451400e+00
1.00443968e+00
1.00436450e+00
1.00428857e+00
1.00421197e+00
1.00413475e+00
1.00405692e+00
1.00397845e+00
1.00389931e+00
1.00381944e+00
1.00373878e+00
1.00365724e+00
1.00357477e+00
1.00349130e+00
1.00340677e+00
1.00332115e+00
1.00323442e+00
1.00314657e+00
1.00305763e+00
1.00296763e+00
1.00287662e+00
1.00278467e+00
1.00269188e+00
1.00259832e+00
1.00250411e+00
1.00240933e+00
1.00231410e+00
1.00221851e+00
1.00212263e+00
1.00202654e+00
1.00193031e+00
1.00183397e+00
1.00173756e+00
1.00164107e+00
1.00154449e+00
1.00144780e+00
1.00135096e+00
1.00125390e+00
1.00115655e+00
1.00105883e+00
1.00096064e+00
1.00086189e+00
1.00076248e+00
1.00066230e+00
1.00056126e+00
1.00045926e+00
1.00035622e+00
1.00025207e+00
1.00014675e+00
1.00004023e+00
9.99932486e-01
9.99823531e-01
9.99713400e-01
9.99602153e-01
9.99489883e-01
9.99376709e-01
9.99262780e-01
9.99148270e-01
9.99033377e-01
9.98918319e-01
9.98803329e-01
9.98688652e-01
9.98574534e-01
9.98461223e-01
9.98348955e-01
9.98237954e-01
9.98128426e-01
9.98020552e-01
9.97914484e-01
9.97810346e-01
9.97708230e-01
9.97608196e-01
9.97510274e-01
9.97414465e-01
9.97320748e-01
9.97229079e-01
9.97139397e-01
9.97051633e-01
9.96965709e-01
9.96881549e-01
9.96799079e-01
9.96718235e-01
9.96638964e-01
9.96561229e-01
9.96485011e-01
9.96410310e-01
9.96337147e-01
9.96265563e-01
9.96195623e-01
9.96127409e-01
9.96061019e-01
9.95996570e-01
9.95934205e-01
9.95874062e-01
9.95816281e-01
9.95761049e-01
9.95708570e-01
9.95658940e-01
9.95612293e-01
9.95569004e-01
9.95529236e-01
9.95492701e-01
9.95459796e-01
9.95431464e-01
9.95406777e-01
9.95384992e-01
9.95368696e-01
9.95357104e-01
9.95347422e-01
9.95341503e-01
1.00534390e+00
1.00533700e+00
1.00532466e+00
1.00530633e+00
1.00528183e+00
1.00525233e+00
1.00521753e+00
1.00517706e+00
1.00513215e+00
1.00508323e+00
1.00503011e+00
1.00497331e+00
1.00491349e+00
1.00485091e+00
1.00478583e+00
1.00471865e+00
1.00464973e+00
1.00457928e+00
1.00450753e+00
1.00443470e+00
1.00436092e+00
1.00428631e+00
1.00421093e+00
1.00413483e+00
1.00405801e+00
1.00398045e+00
1.00390211e+00
1.00382293e+00
1.00374285e+00
1.00366181e+00
1.00357973e+00
1.00349657e+00
1.00341226e+00
1.00332679e+00
1.00324013e+00
1.00315230e+00
1.00306331e+00
1.00297320e+00
1.00288204e+00
1.00278990e+00
1.00269687e+00
1.00260304e+00
1.00250852e+00
1.00241340e+00
1.00231780e+00
1.00222180e+00
1.00212549e+00
1.00202895e+00
1.00193223e+00
1.00183539e+00
1.00173845e+00
1.00164142e+00
1.00154429e+00
1.00144705e+00
1.00134964e+00
1.00125201e+00
1.00115410e+00
1.00105583e+00
1.00095710e+00
1.00085783e+00
1.00075791e+00
1.00065726e+00
1.00055577e+00
1.00045335e+00
1.00034993e+00
1.00024543e+00
1.00013981e+00
1.00003301e+00
9.99925041e-01
9.99815896e-01
9.99705613e-01
9.99594252e-01
9.99481905e-01
9.99368688e-01
9.99254748e-01
9.99140258e-01
9.99025414e-01
9.98910431e-01
9.98795543e-01
9.98680992e-01
9.98567025e-01
9.98453889e-01
9.98341824e-01
9.98231055e-01
9.98121792e-01
9.98014219e-01
9.97908494e-01
9.97804745e-01
9.97703069e-01
9.97603532e-01
9.97506168e-01
9.97410983e-01
9.97317958e-01
9.97227050e-01
9.97138202e-01
9.97051342e-01
9.96966390e-01
9.96883266e-01
9.96801892e-01
9.96722196e-01
9.96644119e-01
9.96567613e-01
9.96492651e-01
9.96419223e-01
9.96347341e-01
9.96277036e-01
9.96208359e-01
9.96141386e-01
9.96076211e-01
9.96012938e-01
9.95951691e-01
9.95892626e-01
9.95835889e-01
9.95781603e-01
9.95729963e-01
9.95681210e-01
9.95635423e-01
9.95592652e-01
9.95553317e-01
9.95517700e-01
9.95485383e-01
9.95456559e-01
9.95432246e-01
9.95411833e-01
9.95394808e-01
9.95382267e-01
9.95373835e-01
9.95368757e-01
1.00531192e+00
1.00530527e+00
1.00529353e+00
1.00527548e+00
1.00525203e+00
1.00522364e+00
1.00518952e+00
1.00515050e+00
1.00510732e+00
1.00505976e+00
1.00500818e+00
1.00495328e+00
1.00489531e+00
1.00483448e+00
1.00477124e+00
1.00470594e+00
1.00463882e+00
1.00457012e+00
1.00450009e+00
1.00442889e+00
1.00435666e+00
1.00428350e+00
1.00420948e+00
1.00413462e+00
1.00405892e+00
1.00398237e+00
1.00390493e+00
1.00382653e+00
1.00374712e+00
1.00366664e+00
1.00358502e+00
1.00350221e+00
1.00341817e+00
1.00333287e+00
1.00324632e+00
1.00315851e+00
1.00306948e+00
1.00297927e+00
1.00288796e+00
1.00279561e+00
1.00270233e+00
1.00260820e+00
1.00251334e+00
1.00241784e+00
1.00232182e+00
1.00222537e+00
1.00212858e+00
1.00203153e+00
1.00193428e+00
1.00183688e+00
1.00173936e+00
1.00164174e+00
1.00154401e+00
1.00144614e+00
1.00134811e+00
1.00124987e+00
1.00115135e+00
1.00105247e+00
1.00095315e+00
1.00085331e+00
1.00075285e+00
1.00065168e+00
1.00054970e+00
1.00044683e+00
1.00034299e+00
1.00023812e+00
1.00013215e+00
1.00002507e+00
9.99916839e-01
9.99807482e-01
9.99697027e-01
9.99585536e-01
9.99473097e-01
9.99359826e-01
9.99245868e-01
9.99131393e-01
9.99016595e-01
9.98901690e-01
9.98786908e-01
9.98672492e-01
9.98558689e-01
9.98445747e-01
9.98333908e-01
9.98223400e-01
9.98114435e-01
9.98007203e-01
9.97901865e-01
9.97798556e-01
9.97697378e-01
9.97598402e-01
9.97501666e-01
9.97407181e-01
9.97314930e-01
9.97224873e-01
9.97136953e-01
9.97051097e-01
9.96967224e-01
9.96885248e-01
9.96805086e-01
9.96726659e-01
9.96649900e-01
9.96574753e-01
9.96501180e-01
9.96429161e-01
9.96358696e-01
9.96289807e-01
9.96222536e-01
9.96156945e-01
9.96093119e-01
9.96031163e-01
9.95971185e-01
9.95913317e-01
9.95857725e-01
9.95804561e-01
9.95753933e-01
9.95706044e-01
9.95661157e-01
9.95619311e-01
9.95580549e-01
9.95545335e-01
9.95513839e-01
9.95485605e-01
9.95461145e-01
9.95441131e-01
9.95424607e-01
9.95411844e-01
9.95403651e-01
9.95398681e-01
1.00527735e+00
1.00527069e+00
1.00525898e+00
1.00524206e+00
1.00521977e+00
1.00519186e+00
1.00515902e+00
1.00512182e+00
1.00508001e+00
1.00503395e+00
1.00498436e+00
1.00493139e+00
1.00487524e+00
1.00481639e+00
1.00475519e+00
1.00469187e+00
1.00462667e+00
1.00455989e+00
1.00449171e+00
1.00442227e+00
1.00435171e+00
1.00428012e+00
1.00420756e+00
1.00413404e+00
1.00405957e+00
1.00398412e+00
1.00390765e+00
1.00383011e+00
1.00375143e+00
1.00367156e+00
1.00359045e+00
1.00350803e+00
1.00342429e+00
1.00333921e+00
1.00325277e+00
1.00316500e+00
1.00307594e+00
1.00298564e+00
1.00289416e+00
1.00280159e+00
1.00270803e+00
1.00261358e+00
1.00251835e+00
1.00242245e+00
1.00232598e+00
1.00222905e+00
1.00213174e+00
1.00203414e+00
1.00193631e+00
1.00183831e+00
1.00174017e+00
1.00164190e+00
1.00154352e+00
1.00144500e+00
1.00134631e+00
1.00124740e+00
1.00114823e+00
1.00104871e+00
1.00094878e+00
1.00084833e+00
1.00074730e+00
1.00064558e+00
1.00054309e+00
1.00043975e+00
1.00033547e+00
1.00023020e+00
1.00012388e+00
1.00001649e+00
9.99907993e-01
9.99798414e-01
9.99687780e-01
9.99576152e-01
9.99463617e-01
9.99350289e-01
9.99236312e-01
9.99121854e-01
9.99007108e-01
9.98892288e-01
9.98777623e-01
9.98663356e-01
9.98549736e-01
9.98437009e-01
9.98325422e-01
9.98215204e-01
9.98106572e-01
9.97999719e-01
9.97894813e-01
9.97791993e-01
9.97691366e-01
9.97593007e-01
9.97496962e-01
9.97403244e-01
9.97311839e-01
9.97222711e-01
9.97135800e-01
9.97051034e-01
9.96968329e-01
9.96887596e-01
9.96808744e-01
9.96731689e-01
9.96656354e-01
9.96582675e-01
9.96510603e-01
9.96440107e-01
9.96371177e-01
9.96303822e-01
9.96238077e-01
9.96173992e-01
9.96111637e-01
9.96051110e-01
9.95992527e-01
9.95935998e-01
9.95881653e-01
9.95829678e-01
9.95780231e-01
9.95733392e-01
9.95689363e-01
9.95648447e-01
9.95610658e-01
9.95575968e-01
9.95544871e-01
9.95517553e-01
9.95493566e-01
9.95473323e-01
9.95457329e-01
9.95445216e-01
9.95436747e-01
9.95431576e-01
1.00523968e+00
1.00523348e+00
1.00522230e+00
1.00520611e+00
1.00518458e+00
1.00515786e+00
1.00512658e+00
1.00509073e+00
1.00505045e+00
1.00500638e+00
1.00495872e+00
1.00490763e+00
1.00485356e+00
1.00479687e+00
1.00473775e+00
1.00467650e+00
1.00461339e+00
1.00454864e+00
1.00448240e+00
1.00441483e+00
1.00434605e+00
1.00427613e+00
1.00420512e+00
1.00413303e+00
1.00405986e+00
1.00398558e+00
1.00391016e+00
1.00383352e+00
1.00375563e+00
1.00367642e+00
1.00359585e+00
1.00351387e+00
1.00343045e+00
1.00334559e+00
1.00325929e+00
1.00317157e+00
1.00308248e+00
1.00299207e+00
1.00290042e+00
1.00280762e+00
1.00271377e+00
1.00261898e+00
1.00252336e+00
1.00242702e+00
1.00233008e+00
1.00223263e+00
1.00213477e+00
1.00203658e+00
1.00193815e+00
1.00183951e+00
1.00174071e+00
1.00164178e+00
1.00154271e+00
1.00144350e+00
1.00134413e+00
1.00124454e+00
1.00114469e+00
1.00104451e+00
1.00094394e+00
1.00084288e+00
1.00074126e+00
1.00063898e+00
1.00053597e+00
1.00043215e+00
1.00032743e+00
1.00022176e+00
1.00011509e+00
1.00000738e+00
9.99898620e-01
9.99788820e-01
9.99678011e-01
9.99566250e-01
9.99453624e-01
9.99340247e-01
9.99226260e-01
9.99111830e-01
9.98997149e-01
9.98882428e-01
9.98767898e-01
9.98653801e-01
9.98540384e-01
9.98427900e-01
9.98316592e-01
9.98206696e-01
9.98098431e-01
9.97991996e-01
9.97887563e-01
9.97785275e-01
9.97685247e-01
9.97587558e-01
9.97492258e-01
9.97399364e-01
9.97308867e-01
9.97220731e-01
9.97134897e-01
9.97051292e-01
9.96969828e-01
9.96890414e-01
9.96812952e-01
9.96737351e-01
9.96663526e-01
9.96591403e-01
9.96520922e-01
9.96452044e-01
9.96384745e-01
9.96319024e-01
9.96254902e-01
9.96192423e-01
9.96131650e-01
9.96072658e-01
9.96015556e-01
9.95960471e-01
9.95907515e-01
9.95856816e-01
9.95808571e-01
9.95762941e-01
9.95719993e-01
9.95679929e-01
9.95643041e-01
9.95609318e-01
9.95578786e-01
9.95551891e-01
9.95528636e-01
9.95508834e-01
9.95492978e-01
9.95481114e-01
9.95472827e-01
9.95467922e-01
1.00519967e+00
1.00519394e+00
1.00518347e+00
1.00516785e+00
1.00514723e+00
1.00512195e+00
1.00509202e+00
1.00505759e+00
1.00501922e+00
1.00497709e+00
1.00493131e+00
1.00488232e+00
1.00483048e+00
1.00477596e+00
1.00471902e+00
1.00465998e+00
1.00459906e+00
1.00453640e+00
1.00447220e+00
1.00440659e+00
1.00433967e+00
1.00427149e+00
1.00420210e+00
1.00413151e+00
1.00405970e+00
1.00398665e+00
1.00391232e+00
1.00383664e+00
1.00375957e+00
1.00368106e+00
1.00360105e+00
1.00351952e+00
1.00343645e+00
1.00335183e+00
1.00326567e+00
1.00317800e+00
1.00308887e+00
1.00299835e+00
1.00290653e+00
1.00281348e+00
1.00271933e+00
1.00262418e+00
1.00252815e+00
1.00243135e+00
1.00233391e+00
1.00223592e+00
1.00213748e+00
1.00203869e+00
1.00193962e+00
1.00184032e+00
1.00174085e+00
1.00164123e+00
1.00154146e+00
1.00144155e+00
1.00134147e+00
1.00124119e+00
1.00114066e+00
1.00103982e+00
1.00093861e+00
1.00083693e+00
1.00073472e+00
1.00063190e+00
1.00052838e+00
1.00042407e+00
1.00031893e+00
1.00021287e+00
1.00010585e+00
9.99997846e-01
9.99888836e-01
9.99778830e-01
9.99667859e-01
9.99555982e-01
9.99443283e-01
9.99329874e-01
9.99215895e-01
9.99101513e-01
9.98986916e-01
9.98872318e-01
9.98757946e-01
9.98644043e-01
9.98530859e-01
9.98418644e-01
9.98307647e-01
9.98198106e-01
9.98090244e-01
9.97984263e-01
9.97880342e-01
9.97778628e-01
9.97679241e-01
9.97582266e-01
9.97487758e-01
9.97395737e-01
9.97306197e-01
9.97219104e-01
9.97134400e-01
9.97052010e-01
9.96971845e-01
9.96893807e-01
9.96817796e-01
9.96743711e-01
9.96671460e-01
9.96600960e-01
9.96532141e-01
9.96464950e-01
9.96399356e-01
9.96335347e-01
9.96272930e-01
9.96212136e-01
9.96153023e-01
9.96095661e-01
9.96040134e-01
9.95986558e-01
9.95935072e-01
9.95885787e-01
9.95838826e-01
9.95794399e-01
9.95752666e-01
9.95713672e-01
9.95677623e-01
9.95644808e-01
9.95615183e-01
9.95588790e-01
9.95566028e-01
9.95546913e-01
9.95531352e-01
9.95519584e-01
9.95511652e-01
9.95507028e-01
1.00515795e+00
1.00515251e+00
1.00514254e+00
1.00512774e+00
1.00510824e+00
1.00508416e+00
1.00505560e+00
1.00502294e+00
1.00498643e+00
1.00494615e+00
1.00490248e+00
1.00485573e+00
1.00480609e+00
1.00475380e+00
1.00469918e+00
1.00464243e+00
1.00458372e+00
1.00452324e+00
1.00446116e+00
1.00439758e+00
1.00433256e+00
1.00426619e+00
1.00419847e+00
1.00412942e+00
1.00405902e+00
1.00398724e+00
1.00391402e+00
1.00383933e+00
1.00376311e+00
1.00368531e+00
1.00360589e+00
1.00352483e+00
1.00344211e+00
1.00335772e+00
1.00327170e+00
1.00318408e+00
1.00309492e+00
1.00300429e+00
1.00291227e+00
1.00281897e+00
1.00272450e+00
1.00262897e+00
1.00253251e+00
1.00243524e+00
1.00233728e+00
1.00223873e+00
1.00213970e+00
1.00204029e+00
1.00194057e+00
1.00184060e+00
1.00174044e+00
1.00164012e+00
1.00153965e+00
1.00143904e+00
1.00133826e+00
1.00123729e+00
1.00113609e+00
1.00103459e+00
1.00093275e+00
1.00083047e+00
1.00072770e+00
1.00062434e+00
1.00052033e+00
1.00041557e+00
1.00031002e+00
1.00020360e+00
1.00009626e+00
9.99987986e-01
9.99878751e-01
9.99768566e-01
9.99657461e-01
9.99545495e-01
9.99432750e-01
9.99319337e-01
9.99205395e-01
9.99091089e-01
9.98976607e-01
9.98862161e-01
9.98747978e-01
9.98634301e-01
9.98521380e-01
9.98409469e-01
9.98298817e-01
9.98189665e-01
9.98082241e-01
9.97976751e-01
9.97873377e-01
9.97772275e-01
9.97673566e-01
9.97577344e-01
9.97483664e-01
9.97392555e-01
9.97304010e-01
9.97217998e-01
9.97134462e-01
9.97053326e-01
9.96974498e-01
9.96897878e-01
9.96823358e-01
9.96750832e-01
9.96680199e-01
9.96611367e-01
9.96544257e-01
9.96478806e-01
9.96414969e-01
9.96352725e-01
9.96292072e-01
9.96233028e-01
9.96175635e-01
9.96119962e-01
9.96066090e-01
9.96014106e-01
9.95964134e-01
9.95916322e-01
9.95870780e-01
9.95827628e-01
9.95787077e-01
9.95749278e-01
9.95714279e-01
9.95682284e-01
9.95653520e-01
9.95627958e-01
9.95605723e-01
9.95587067e-01
9.95571989e-01
9.95560543e-01
9.95552776e-01
9.95548278e-01
1.00511463e+00
1.00510950e+00
1.00510004e+00
1.00508612e+00
1.00506768e+00
1.00504482e+00
1.00501782e+00
1.00498692e+00
1.00495220e+00
1.00491394e+00
1.00487247e+00
1.00482792e+00
1.00478054e+00
1.00473061e+00
1.00467834e+00
1.00462390e+00
1.00456748e+00
1.00450925e+00
1.00444933e+00
1.00438780e+00
1.00432474e+00
1.00426020e+00
1.00419419e+00
1.00412671e+00
1.00405774e+00
1.00398724e+00
1.00391517e+00
1.00384148e+00
1.00376611e+00
1.00368904e+00
1.00361021e+00
1.00352962e+00
1.00344724e+00
1.00336310e+00
1.00327722e+00
1.00318964e+00
1.00310043e+00
1.00300967e+00
1.00291745e+00
1.00282388e+00
1.00272907e+00
1.00263316e+00
1.00253625e+00
1.00243849e+00
1.00233999e+00
1.00224088e+00
1.00214125e+00
1.00204120e+00
1.00194082e+00
1.00184019e+00
1.00173934e+00
1.00163832e+00
1.00153716e+00
1.00143585e+00
1.00133439e+00
1.00123275e+00
1.00113090e+00
1.00102877e+00
1.00092632e+00
1.00082348e+00
1.00072017e+00
1.00061632e+00
1.00051185e+00
1.00040668e+00
1.00030076e+00
1.00019401e+00
1.00008640e+00
9.99977890e-01
9.99868470e-01
9.99758145e-01
9.99646946e-01
9.99534929e-01
9.99422176e-01
9.99308798e-01
9.99194931e-01
9.99080738e-01
9.98966409e-01
9.98852151e-01
9.98738195e-01
9.98624781e-01
9.98512161e-01
9.98400590e-01
9.98290320e-01
9.98181594e-01
9.98074644e-01
9.97969680e-01
9.97866889e-01
9.97766430e-01
9.97668433e-01
9.97572993e-01
9.97480172e-01
9.97390001e-01
9.97302479e-01
9.97217573e-01
9.97135230e-01
9.97055371e-01
9.96977904e-01
9.96902723e-01
9.96829716e-01
9.96758772e-01
9.96689781e-01
9.96622642e-01
9.96557267e-01
9.96493584e-01
9.96431538e-01
9.96371093e-01
9.96312239e-01
9.96254988e-01
9.96199366e-01
9.96145425e-01
9.96093247e-01
9.96042922e-01
9.95994538e-01
9.95948227e-01
9.95904142e-01
9.95862389e-01
9.95823087e-01
9.95786446e-01
9.95752598e-01
9.95721591e-01
9.95693630e-01
9.95668893e-01
9.95647368e-01
9.95629184e-01
9.95614552e-01
9.95603491e-01
9.95595907e-01
9.95591545e-01
1.00506998e+00
1.00506524e+00
1.00505636e+00
1.00504322e+00
1.00502583e+00
1.00500433e+00
1.00497890e+00
1.00494968e+00
1.00491687e+00
1.00488073e+00
1.00484140e+00
1.00479909e+00
1.00475407e+00
1.00470653e+00
1.00465661e+00
1.00460453e+00
1.00455045e+00
1.00449448e+00
1.00443673e+00
1.00437729e+00
1.00431621e+00
1.00425353e+00
1.00418924e+00
1.00412334e+00
1.00405581e+00
1.00398660e+00
1.00391567e+00
1.00384298e+00
1.00376848e+00
1.00369212e+00
1.00361388e+00
1.00353375e+00
1.00345172e+00
1.00336781e+00
1.00328205e+00
1.00319450e+00
1.00310523e+00
1.00301433e+00
1.00292189e+00
1.00282804e+00
1.00273288e+00
1.00263656e+00
1.00253920e+00
1.00244094e+00
1.00234190e+00
1.00224220e+00
1.00214196e+00
1.00204128e+00
1.00194025e+00
1.00183894e+00
1.00173742e+00
1.00163572e+00
1.00153388e+00
1.00143190e+00
1.00132978e+00
1.00122750e+00
1.00112503e+00
1.00102231e+00
1.00091930e+00
1.00081593e+00
1.00071213e+00
1.00060783e+00
1.00050295e+00
1.00039743e+00
1.00029118e+00
1.00018417e+00
1.00007633e+00
9.99967639e-01
9.99858084e-01
9.99747671e-01
9.99636428e-01
9.99524410e-01
9.99411699e-01
9.99298404e-01
9.99184659e-01
9.99070627e-01
9.98956495e-01
9.98842472e-01
9.98728786e-01
9.98615679e-01
9.98503402e-01
9.98392212e-01
9.98282362e-01
9.98174101e-01
9.98067660e-01
9.97963256e-01
9.97861080e-01
9.97761295e-01
9.97664036e-01
9.97569403e-01
9.97477463e-01
9.97388249e-01
9.97301764e-01
9.97217979e-01
9.97136839e-01
9.97058266e-01
9.96982166e-01
9.96908429e-01
9.96836941e-01
9.96767582e-01
9.96700237e-01
9.96634797e-01
9.96571165e-01
9.96509258e-01
9.96449013e-01
9.96390384e-01
9.96333348e-01
9.96277906e-01
9.96224080e-01
9.96171911e-01
9.96121457e-01
9.96072811e-01
9.96026069e-01
9.95981325e-01
9.95938711e-01
9.95898381e-01
9.95860439e-01
9.95825003e-01
9.95792269e-01
9.95762350e-01
9.95735315e-01
9.95711337e-01
9.95690544e-01
9.95672980e-01
9.95658779e-01
9.95648030e-01
9.95640697e-01
9.95636545e-01
1.00502441e+00
1.00502001e+00
1.00501170e+00
1.00499937e+00
1.00498307e+00
1.00496292e+00
1.00493903e+00
1.00491155e+00
1.00488071e+00
1.00484663e+00
1.00480948e+00
1.00476948e+00
1.00472683e+00
1.00468164e+00
1.00463413e+00
1.00458444e+00
1.00453269e+00
1.00447899e+00
1.00442344e+00
1.00436609e+00
1.00430699e+00
1.00424616e+00
1.00418359e+00
1.00411927e+00
1.00405317e+00
1.00398525e+00
1.00391546e+00
1.00384376e+00
1.00377010e+00
1.00369445e+00
1.00361679e+00
1.00353710e+00
1.00345540e+00
1.00337170e+00
1.00328606e+00
1.00319852e+00
1.00310917e+00
1.00301811e+00
1.00292544e+00
1.00283128e+00
1.00273577e+00
1.00263902e+00
1.00254120e+00
1.00244242e+00
1.00234283e+00
1.00224255e+00
1.00214170e+00
1.00204039e+00
1.00193871e+00
1.00183675e+00
1.00173457e+00
1.00163221e+00
1.00152972e+00
1.00142710e+00
1.00132436e+00
1.00122147e+00
1.00111843e+00
1.00101517e+00
1.00091165e+00
1.00080781e+00
1.00070358e+00
1.00059889e+00
1.00049366e+00
1.00038783e+00
1.00028133e+00