# vtk DataFile Version 2.0
LBM Flow Field - Timestep 2870
ASCII
DATASET STRUCTURED_POINTS
DIMENSIONS 128 128 1
ORIGIN 0.0 0.0 0.0
SPACING 1.0 1.0 1.0
POINT_DATA 16384
SCALARS density double 1
LOOKUP_TABLE default
9.96244741e-01
9.96251252e-01
9.96259524e-01
9.96265714e-01
9.96274495e-01
9.96285983e-01
9.96299510e-01
9.96315108e-01
9.96333048e-01
9.96353297e-01
9.96375903e-01
9.96400928e-01
9.96428434e-01
9.96458472e-01
9.96491096e-01
9.96526335e-01
9.96564219e-01
9.96604771e-01
9.96648003e-01
9.96693912e-01
9.96742490e-01
9.96793722e-01
9.96847578e-01
9.96904025e-01
9.96963020e-01
9.97024515e-01
9.97088455e-01
9.97154783e-01
9.97223436e-01
9.97294350e-01
9.97367459e-01
9.97442698e-01
9.97520001e-01
9.97599303e-01
9.97680542e-01
9.97763655e-01
9.97848583e-01
9.97935269e-01
9.98023656e-01
9.98113690e-01
9.98205318e-01
9.98298487e-01
9.98393144e-01
9.98489238e-01
9.98586713e-01
9.98685513e-01
9.98785581e-01
9.98886856e-01
9.98989273e-01
9.99092766e-01
9.99197261e-01
9.99302685e-01
9.99408956e-01
9.99515991e-01
9.99623701e-01
9.99731994e-01
9.99840773e-01
9.99949939e-01
1.00005939e+00
1.00016902e+00
1.00027871e+00
1.00038837e+00
1.00049787e+00
1.00060711e+00
1.00071597e+00
1.00082434e+00
1.00093211e+00
1.00103917e+00
1.00114540e+00
1.00125071e+00
1.00135500e+00
1.00145815e+00
1.00156008e+00
1.00166071e+00
1.00175993e+00
1.00185769e+00
1.00195389e+00
1.00204849e+00
1.00214142e+00
1.00223262e+00
1.00232206e+00
1.00240970e+00
1.00249551e+00
1.00257947e+00
1.00266156e+00
1.00274178e+00
1.00282014e+00
1.00289663e+00
1.00297127e+00
1.00304408e+00
1.00311509e+00
1.00318431e+00
1.00325179e+00
1.00331755e+00
1.00338164e+00
1.00344408e+00
1.00350491e+00
1.00356416e+00
1.00362187e+00
1.00367805e+00
1.00373275e+00
1.00378596e+00
1.00383771e+00
1.00388800e+00
1.00393682e+00
1.00398418e+00
1.00403006e+00
1.00407442e+00
1.00411725e+00
1.00415850e+00
1.00419813e+00
1.00423609e+00
1.00427232e+00
1.00430678e+00
1.00433939e+00
1.00437009e+00
1.00439882e+00
1.00442552e+00
1.00445014e+00
1.00447263e+00
1.00449290e+00
1.00451081e+00
1.00452655e+00
1.00454009e+00
1.00455060e+00
1.00455813e+00
1.00456760e+00
1.00457493e+00
9.96251952e-01
9.96256158e-01
9.96263550e-01
9.96270552e-01
9.96279951e-01
9.96291349e-01
9.96304984e-01
9.96320740e-01
9.96338795e-01
9.96359123e-01
9.96381833e-01
9.96406957e-01
9.96434557e-01
9.96464678e-01
9.96497372e-01
9.96532672e-01
9.96570607e-01
9.96611197e-01
9.96654453e-01
9.96700376e-01
9.96748956e-01
9.96800176e-01
9.96854011e-01
9.96910426e-01
9.96969379e-01
9.97030822e-01
9.97094703e-01
9.97160963e-01
9.97229541e-01
9.97300374e-01
9.97373397e-01
9.97448544e-01
9.97525751e-01
9.97604952e-01
9.97686085e-01
9.97769089e-01
9.97853903e-01
9.97940470e-01
9.98028733e-01
9.98118639e-01
9.98210133e-01
9.98303163e-01
9.98397674e-01
9.98493615e-01
9.98590930e-01
9.98689563e-01
9.98789456e-01
9.98890548e-01
9.98992774e-01
9.99096069e-01
9.99200358e-01
9.99305568e-01
9.99411619e-01
9.99518427e-01
9.99625905e-01
9.99733959e-01
9.99842495e-01
9.99951414e-01
1.00006061e+00
1.00016999e+00
1.00027943e+00
1.00038883e+00
1.00049807e+00
1.00060705e+00
1.00071566e+00
1.00082377e+00
1.00093129e+00
1.00103810e+00
1.00114409e+00
1.00124915e+00
1.00135320e+00
1.00145612e+00
1.00155782e+00
1.00165822e+00
1.00175723e+00
1.00185478e+00
1.00195078e+00
1.00204519e+00
1.00213792e+00
1.00222895e+00
1.00231822e+00
1.00240570e+00
1.00249136e+00
1.00257517e+00
1.00265713e+00
1.00273723e+00
1.00281547e+00
1.00289185e+00
1.00296639e+00
1.00303911e+00
1.00311004e+00
1.00317918e+00
1.00324659e+00
1.00331229e+00
1.00337632e+00
1.00343870e+00
1.00349948e+00
1.00355869e+00
1.00361635e+00
1.00367250e+00
1.00372715e+00
1.00378033e+00
1.00383204e+00
1.00388229e+00
1.00393109e+00
1.00397842e+00
1.00402426e+00
1.00406860e+00
1.00411140e+00
1.00415263e+00
1.00419224e+00
1.00423019e+00
1.00426642e+00
1.00430087e+00
1.00433348e+00
1.00436419e+00
1.00439294e+00
1.00441967e+00
1.00444432e+00
1.00446681e+00
1.00448711e+00
1.00450513e+00
1.00452091e+00
1.00453427e+00
1.00454533e+00
1.00455367e+00
1.00456205e+00
1.00456678e+00
9.96261270e-01
9.96264444e-01
9.96268968e-01
9.96277209e-01
9.96287147e-01
9.96298403e-01
9.96312036e-01
9.96327973e-01
9.96346114e-01
9.96366542e-01
9.96389350e-01
9.96414569e-01
9.96442264e-01
9.96472478e-01
9.96505250e-01
9.96540620e-01
9.96578618e-01
9.96619259e-01
9.96662553e-01
9.96708503e-01
9.96757100e-01
9.96808325e-01
9.96862152e-01
9.96918549e-01
9.96977472e-01
9.97038875e-01
9.97102705e-01
9.97168904e-01
9.97237411e-01
9.97308164e-01
9.97381098e-01
9.97456147e-01
9.97533247e-01
9.97612333e-01
9.97693343e-01
9.97776214e-01
9.97860887e-01
9.97947305e-01
9.98035410e-01
9.98125147e-01
9.98216464e-01
9.98309306e-01
9.98403620e-01
9.98499352e-01
9.98596449e-01
9.98694852e-01
9.98794506e-01
9.98895348e-01
9.98997314e-01
9.99100338e-01
9.99204348e-01
9.99309270e-01
9.99415024e-01
9.99521528e-01
9.99628694e-01
9.99736432e-01
9.99844647e-01
9.99953240e-01
1.00006211e+00
1.00017115e+00
1.00028026e+00
1.00038933e+00
1.00049825e+00
1.00060690e+00
1.00071518e+00
1.00082297e+00
1.00093017e+00
1.00103666e+00
1.00114234e+00
1.00124711e+00
1.00135085e+00
1.00145349e+00
1.00155491e+00
1.00165503e+00
1.00175378e+00
1.00185107e+00
1.00194682e+00
1.00204099e+00
1.00213350e+00
1.00222430e+00
1.00231336e+00
1.00240064e+00
1.00248611e+00
1.00256975e+00
1.00265154e+00
1.00273148e+00
1.00280957e+00
1.00288582e+00
1.00296024e+00
1.00303284e+00
1.00310365e+00
1.00317270e+00
1.00324001e+00
1.00330563e+00
1.00336957e+00
1.00343188e+00
1.00349260e+00
1.00355174e+00
1.00360934e+00
1.00366543e+00
1.00372003e+00
1.00377316e+00
1.00382483e+00
1.00387504e+00
1.00392380e+00
1.00397109e+00
1.00401690e+00
1.00406120e+00
1.00410398e+00
1.00414518e+00
1.00418477e+00
1.00422270e+00
1.00425892e+00
1.00429337e+00
1.00432598e+00
1.00435670e+00
1.00438546e+00
1.00441220e+00
1.00443687e+00
1.00445937e+00
1.00447969e+00
1.00449782e+00
1.00451352e+00
1.00452666e+00
1.00453825e+00
1.00454778e+00
1.00455291e+00
1.00455637e+00
9.96268660e-01
9.96272282e-01
9.96277916e-01
9.96285949e-01
9.96295332e-01
9.96306915e-01
9.96320782e-01
9.96336757e-01
9.96354958e-01
9.96375507e-01
9.96398422e-01
9.96423745e-01
9.96451536e-01
9.96481845e-01
9.96514710e-01
9.96550164e-01
9.96588234e-01
9.96628939e-01
9.96672288e-01
9.96718280e-01
9.96766906e-01
9.96818149e-01
9.96871982e-01
9.96928371e-01
9.96987274e-01
9.97048645e-01
9.97112429e-01
9.97178571e-01
9.97247008e-01
9.97317679e-01
9.97390518e-01
9.97465461e-01
9.97542442e-01
9.97621398e-01
9.97702264e-01
9.97784980e-01
9.97869485e-01
9.97955722e-01
9.98043633e-01
9.98133164e-01
9.98224260e-01
9.98316867e-01
9.98410933e-01
9.98506404e-01
9.98603224e-01
9.98701339e-01
9.98800689e-01
9.98901215e-01
9.99002853e-01
9.99105536e-01
9.99209195e-01
9.99313754e-01
9.99419137e-01
9.99525260e-01
9.99632039e-01
9.99739383e-01
9.99847199e-01
9.99955390e-01
1.00006386e+00
1.00017249e+00
1.00028120e+00
1.00038986e+00
1.00049837e+00
1.00060662e+00
1.00071450e+00
1.00082190e+00
1.00092871e+00
1.00103483e+00
1.00114014e+00
1.00124454e+00
1.00134793e+00
1.00145021e+00
1.00155130e+00
1.00165110e+00
1.00174953e+00
1.00184651e+00
1.00194198e+00
1.00203586e+00
1.00212810e+00
1.00221865e+00
1.00230746e+00
1.00239451e+00
1.00247976e+00
1.00256319e+00
1.00264478e+00
1.00272454e+00
1.00280246e+00
1.00287855e+00
1.00295281e+00
1.00302528e+00
1.00309596e+00
1.00316489e+00
1.00323210e+00
1.00329761e+00
1.00336146e+00
1.00342369e+00
1.00348432e+00
1.00354339e+00
1.00360092e+00
1.00365695e+00
1.00371149e+00
1.00376457e+00
1.00381618e+00
1.00386635e+00
1.00391506e+00
1.00396231e+00
1.00400808e+00
1.00405235e+00
1.00409509e+00
1.00413626e+00
1.00417583e+00
1.00421374e+00
1.00424994e+00
1.00428437e+00
1.00431697e+00
1.00434768e+00
1.00437644e+00
1.00440318e+00
1.00442785e+00
1.00445038e+00
1.00447067e+00
1.00448874e+00
1.00450461e+00
1.00451801e+00
1.00452892e+00
1.00453814e+00
1.00454446e+00
1.00454832e+00
9.96278236e-01
9.96282254e-01
9.96288291e-01
9.96295696e-01
9.96305229e-01
9.96317174e-01
9.96331021e-01
9.96347020e-01
9.96365369e-01
9.96386032e-01
9.96409042e-01
9.96434480e-01
9.96462385e-01
9.96492799e-01
9.96525768e-01
9.96561320e-01
9.96599477e-01
9.96640260e-01
9.96683676e-01
9.96729724e-01
9.96778392e-01
9.96829665e-01
9.96883513e-01
9.96939904e-01
9.96998794e-01
9.97060137e-01
9.97123879e-01
9.97189963e-01
9.97258329e-01
9.97328912e-01
9.97401650e-01
9.97476475e-01
9.97553324e-01
9.97632131e-01
9.97712834e-01
9.97795371e-01
9.97879681e-01
9.97965705e-01
9.98053388e-01
9.98142673e-01
9.98233506e-01
9.98325834e-01
9.98419603e-01
9.98514760e-01
9.98611249e-01
9.98709015e-01
9.98808001e-01
9.98908146e-01
9.99009388e-01
9.99111661e-01
9.99214896e-01
9.99319019e-01
9.99423955e-01
9.99529622e-01
9.99635935e-01
9.99742807e-01
9.99850145e-01
9.99957854e-01
1.00006583e+00
1.00017399e+00
1.00028220e+00
1.00039038e+00
1.00049841e+00
1.00060619e+00
1.00071360e+00
1.00082054e+00
1.00092690e+00
1.00103256e+00
1.00113743e+00
1.00124141e+00
1.00134438e+00
1.00144626e+00
1.00154696e+00
1.00164638e+00
1.00174444e+00
1.00184107e+00
1.00193619e+00
1.00202975e+00
1.00212168e+00
1.00221194e+00
1.00230047e+00
1.00238725e+00
1.00247225e+00
1.00255544e+00
1.00263682e+00
1.00271637e+00
1.00279409e+00
1.00287000e+00
1.00294410e+00
1.00301640e+00
1.00308695e+00
1.00315574e+00
1.00322283e+00
1.00328823e+00
1.00335198e+00
1.00341411e+00
1.00347466e+00
1.00353365e+00
1.00359111e+00
1.00364707e+00
1.00370155e+00
1.00375457e+00
1.00380613e+00
1.00385624e+00
1.00390490e+00
1.00395210e+00
1.00399783e+00
1.00404206e+00
1.00408476e+00
1.00412590e+00
1.00416543e+00
1.00420331e+00
1.00423947e+00
1.00427388e+00
1.00430646e+00
1.00433715e+00
1.00436590e+00
1.00439262e+00
1.00441726e+00
1.00443979e+00
1.00446012e+00
1.00447810e+00
1.00449386e+00
1.00450756e+00
1.00451854e+00
1.00452700e+00
1.00453373e+00
1.00453807e+00
9.96289999e-01
9.96293750e-01
9.96299565e-01
9.96307198e-01
9.96317039e-01
9.96328826e-01
9.96342683e-01
9.96358878e-01
9.96377345e-01
9.96398090e-01
9.96421216e-01
9.96446777e-01
9.96474804e-01
9.96505339e-01
9.96538420e-01
9.96574079e-01
9.96612340e-01
9.96653215e-01
9.96696710e-01
9.96742826e-01
9.96791550e-01
9.96842862e-01
9.96896736e-01
9.96953136e-01
9.97012020e-01
9.97073339e-01
9.97137041e-01
9.97203068e-01
9.97271359e-01
9.97341850e-01
9.97414477e-01
9.97489173e-01
9.97565875e-01
9.97644517e-01
9.97725035e-01
9.97807367e-01
9.97891453e-01
9.97977234e-01
9.98064653e-01
9.98153654e-01
9.98244182e-01
9.98336185e-01
9.98429607e-01
9.98524397e-01
9.98620499e-01
9.98717858e-01
9.98816418e-01
9.98916118e-01
9.99016897e-01
9.99118691e-01
9.99221431e-01
9.99325045e-01
9.99429459e-01
9.99534592e-01
9.99640364e-01
9.99746685e-01
9.99853467e-01
9.99960616e-01
1.00006803e+00
1.00017562e+00
1.00028328e+00
1.00039090e+00
1.00049837e+00
1.00060560e+00
1.00071247e+00
1.00081887e+00
1.00092470e+00
1.00102986e+00
1.00113422e+00
1.00123771e+00
1.00134021e+00
1.00144163e+00
1.00154187e+00
1.00164086e+00
1.00173851e+00
1.00183474e+00
1.00192948e+00
1.00202267e+00
1.00211425e+00
1.00220417e+00
1.00229239e+00
1.00237887e+00
1.00246358e+00
1.00254651e+00
1.00262764e+00
1.00270696e+00
1.00278446e+00
1.00286017e+00
1.00293408e+00
1.00300622e+00
1.00307661e+00
1.00314526e+00
1.00321221e+00
1.00327749e+00
1.00334114e+00
1.00340317e+00
1.00346362e+00
1.00352253e+00
1.00357991e+00
1.00363580e+00
1.00369021e+00
1.00374317e+00
1.00379467e+00
1.00384473e+00
1.00389333e+00
1.00394049e+00
1.00398616e+00
1.00403034e+00
1.00407300e+00
1.00411409e+00
1.00415358e+00
1.00419142e+00
1.00422755e+00
1.00426192e+00
1.00429447e+00
1.00432513e+00
1.00435384e+00
1.00438054e+00
1.00440516e+00
1.00442762e+00
1.00444794e+00
1.00446602e+00
1.00448167e+00
1.00449509e+00
1.00450633e+00
1.00451501e+00
1.00452148e+00
1.00452555e+00
9.96303338e-01
9.96307021e-01
9.96312657e-01
9.96320408e-01
9.96330177e-01
9.96341945e-01
9.96356009e-01
9.96372301e-01
9.96390813e-01
9.96411684e-01
9.96434953e-01
9.96460634e-01
9.96488786e-01
9.96519451e-01
9.96552659e-01
9.96588438e-01
9.96626811e-01
9.96667788e-01
9.96711376e-01
9.96757570e-01
9.96806359e-01
9.96857721e-01
9.96911628e-01
9.96968044e-01
9.97026926e-01
9.97088226e-01
9.97151889e-01
9.97217857e-01
9.97286068e-01
9.97356460e-01
9.97428967e-01
9.97503523e-01
9.97580062e-01
9.97658520e-01
9.97738831e-01
9.97820934e-01
9.97904768e-01
9.97990273e-01
9.98077393e-01
9.98166070e-01
9.98256252e-01
9.98347883e-01
9.98440910e-01
9.98535281e-01
9.98630941e-01
9.98727835e-01
9.98825907e-01
9.98925099e-01
9.99025350e-01
9.99126596e-01
9.99228771e-01
9.99331805e-01
9.99435624e-01
9.99540151e-01
9.99645304e-01
9.99751000e-01
9.99857150e-01
9.99963662e-01
1.00007044e+00
1.00017739e+00
1.00028441e+00
1.00039139e+00
1.00049824e+00
1.00060485e+00
1.00071110e+00
1.00081690e+00
1.00092214e+00
1.00102671e+00
1.00113052e+00
1.00123345e+00
1.00133541e+00
1.00143631e+00
1.00153606e+00
1.00163456e+00
1.00173174e+00
1.00182752e+00
1.00192183e+00
1.00201461e+00
1.00210580e+00
1.00219535e+00
1.00228322e+00
1.00236937e+00
1.00245377e+00
1.00253641e+00
1.00261726e+00
1.00269632e+00
1.00277359e+00
1.00284908e+00
1.00292279e+00
1.00299474e+00
1.00306495e+00
1.00313345e+00
1.00320026e+00
1.00326540e+00
1.00332893e+00
1.00339085e+00
1.00345120e+00
1.00351002e+00
1.00356732e+00
1.00362313e+00
1.00367747e+00
1.00373036e+00
1.00378180e+00
1.00383180e+00
1.00388035e+00
1.00392744e+00
1.00397307e+00
1.00401720e+00
1.00405980e+00
1.00410085e+00
1.00414029e+00
1.00417808e+00
1.00421416e+00
1.00424849e+00
1.00428099e+00
1.00431161e+00
1.00434028e+00
1.00436693e+00
1.00439153e+00
1.00441397e+00
1.00443419e+00
1.00445223e+00
1.00446798e+00
1.00448128e+00
1.00449237e+00
1.00450114e+00
1.00450740e+00
1.00451141e+00
9.96318157e-01
9.96321754e-01
9.96327406e-01
9.96335094e-01
9.96344804e-01
9.96356708e-01
9.96370848e-01
9.96387174e-01
9.96405812e-01
9.96426821e-01
9.96450207e-01
9.96476019e-01
9.96504310e-01
9.96535111e-01
9.96568454e-01
9.96604364e-01
9.96642858e-01
9.96683948e-01
9.96727638e-01
9.96773921e-01
9.96822783e-01
9.96874202e-01
9.96928150e-01
9.96984587e-01
9.97043471e-01
9.97104752e-01
9.97168375e-01
9.97234282e-01
9.97302410e-01
9.97372696e-01
9.97445072e-01
9.97519474e-01
9.97595835e-01
9.97674089e-01
9.97754172e-01
9.97836021e-01
9.97919573e-01
9.98004771e-01
9.98091557e-01
9.98179873e-01
9.98269665e-01
9.98360880e-01
9.98453464e-01
9.98547365e-01
9.98642529e-01
9.98738901e-01
9.98836427e-01
9.98935048e-01
9.99034707e-01
9.99135340e-01
9.99236882e-01
9.99339266e-01
9.99442420e-01
9.99546268e-01
9.99650732e-01
9.99755729e-01
9.99861173e-01
9.99966975e-01
1.00007304e+00
1.00017928e+00
1.00028559e+00
1.00039187e+00
1.00049801e+00
1.00060393e+00
1.00070950e+00
1.00081463e+00
1.00091921e+00
1.00102314e+00
1.00112631e+00
1.00122864e+00
1.00133001e+00
1.00143033e+00
1.00152952e+00
1.00162749e+00
1.00172415e+00
1.00181944e+00
1.00191327e+00
1.00200560e+00
1.00209636e+00
1.00218550e+00
1.00227299e+00
1.00235877e+00
1.00244283e+00
1.00252514e+00
1.00260570e+00
1.00268448e+00
1.00276149e+00
1.00283673e+00
1.00291022e+00
1.00298197e+00
1.00305199e+00
1.00312032e+00
1.00318697e+00
1.00325198e+00
1.00331537e+00
1.00337718e+00
1.00343743e+00
1.00349614e+00
1.00355336e+00
1.00360909e+00
1.00366335e+00
1.00371617e+00
1.00376754e+00
1.00381748e+00
1.00386597e+00
1.00391300e+00
1.00395857e+00
1.00400265e+00
1.00404519e+00
1.00408618e+00
1.00412557e+00
1.00416331e+00
1.00419934e+00
1.00423361e+00
1.00426606e+00
1.00429663e+00
1.00432525e+00
1.00435185e+00
1.00437638e+00
1.00439880e+00
1.00441899e+00
1.00443692e+00
1.00445263e+00
1.00446598e+00
1.00447692e+00
1.00448556e+00
1.00449184e+00
1.00449577e+00
9.96334601e-01
9.96338084e-01
9.96343637e-01
9.96351248e-01
9.96361005e-01
9.96372967e-01
9.96387114e-01
9.96403547e-01
9.96422325e-01
9.96443437e-01
9.96466944e-01
9.96492905e-01
9.96521341e-01
9.96552284e-01
9.96585769e-01
9.96621817e-01
9.96660442e-01
9.96701654e-01
9.96745453e-01
9.96791832e-01
9.96840774e-01
9.96892257e-01
9.96946249e-01
9.97002711e-01
9.97061599e-01
9.97122862e-01
9.97186444e-01
9.97252286e-01
9.97320325e-01
9.97390495e-01
9.97462731e-01
9.97536966e-01
9.97613132e-01
9.97691164e-01
9.97770995e-01
9.97852564e-01
9.97935808e-01
9.98020667e-01
9.98107083e-01
9.98195001e-01
9.98284364e-01
9.98375119e-01
9.98467213e-01
9.98560595e-01
9.98655210e-01
9.98751006e-01
9.98847928e-01
9.98945920e-01
9.99044925e-01
9.99144881e-01
9.99245726e-01
9.99347393e-01
9.99449814e-01
9.99552914e-01
9.99656618e-01
9.99760846e-01
9.99865514e-01
9.99970534e-01
1.00007582e+00
1.00018127e+00
1.00028680e+00
1.00039230e+00
1.00049768e+00
1.00060284e+00
1.00070766e+00
1.00081205e+00
1.00091591e+00
1.00101914e+00
1.00112163e+00
1.00122328e+00
1.00132400e+00
1.00142369e+00
1.00152227e+00
1.00161965e+00
1.00171576e+00
1.00181050e+00
1.00190382e+00
1.00199566e+00
1.00208595e+00
1.00217465e+00
1.00226171e+00
1.00234710e+00
1.00243078e+00
1.00251275e+00
1.00259297e+00
1.00267145e+00
1.00274818e+00
1.00282316e+00
1.00289641e+00
1.00296794e+00
1.00303776e+00
1.00310590e+00
1.00317239e+00
1.00323725e+00
1.00330050e+00
1.00336218e+00
1.00342231e+00
1.00348093e+00
1.00353805e+00
1.00359369e+00
1.00364788e+00
1.00370062e+00
1.00375192e+00
1.00380179e+00
1.00385022e+00
1.00389719e+00
1.00394270e+00
1.00398671e+00
1.00402920e+00
1.00407013e+00
1.00410945e+00
1.00414713e+00
1.00418310e+00
1.00421731e+00
1.00424970e+00
1.00428021e+00
1.00430877e+00
1.00433533e+00
1.00435979e+00
1.00438213e+00
1.00440229e+00
1.00442018e+00
1.00443576e+00
1.00444907e+00
1.00445998e+00
1.00446849e+00
1.00447465e+00
1.00447846e+00
9.96352496e-01
9.96355822e-01
9.96361298e-01
9.96368890e-01
9.96378656e-01
9.96390626e-01
9.96404846e-01
9.96421386e-01
9.96440255e-01
9.96461488e-01
9.96485141e-01
9.96511242e-01
9.96539824e-01
9.96570919e-01
9.96604553e-01
9.96640745e-01
9.96679509e-01
9.96720849e-01
9.96764763e-01
9.96811244e-01
9.96860273e-01
9.96911823e-01
9.96965863e-01
9.97022353e-01
9.97081245e-01
9.97142489e-01
9.97206027e-01
9.97271799e-01
9.97339741e-01
9.97409788e-01
9.97481872e-01
9.97555925e-01
9.97631880e-01
9.97709670e-01
9.97789229e-01
9.97870493e-01
9.97953400e-01
9.98037889e-01
9.98123903e-01
9.98211385e-01
9.98300279e-01
9.98390532e-01
9.98482092e-01
9.98574907e-01
9.98668924e-01
9.98764091e-01
9.98860354e-01
9.98957660e-01
9.99055952e-01
9.99155171e-01
9.99255256e-01
9.99356143e-01
9.99457766e-01
9.99560053e-01
9.99662931e-01
9.99766322e-01
9.99870145e-01
9.99974317e-01
1.00007875e+00
1.00018335e+00
1.00028803e+00
1.00039270e+00
1.00049724e+00
1.00060157e+00
1.00070558e+00
1.00080918e+00
1.00091226e+00
1.00101472e+00
1.00111646e+00
1.00121739e+00
1.00131740e+00
1.00141642e+00
1.00151434e+00
1.00161108e+00
1.00170658e+00
1.00180074e+00
1.00189350e+00
1.00198480e+00
1.00207459e+00
1.00216280e+00
1.00224941e+00
1.00233437e+00
1.00241765e+00
1.00249924e+00
1.00257911e+00
1.00265726e+00
1.00273369e+00
1.00280840e+00
1.00288139e+00
1.00295268e+00
1.00302229e+00
1.00309023e+00
1.00315654e+00
1.00322124e+00
1.00328435e+00
1.00334589e+00
1.00340591e+00
1.00346442e+00
1.00352144e+00
1.00357699e+00
1.00363110e+00
1.00368376e+00
1.00373499e+00
1.00378479e+00
1.00383315e+00
1.00388006e+00
1.00392550e+00
1.00396945e+00
1.00401187e+00
1.00405274e+00
1.00409200e+00
1.00412961e+00
1.00416551e+00
1.00419966e+00
1.00423198e+00
1.00426242e+00
1.00429091e+00
1.00431740e+00
1.00434181e+00
1.00436407e+00
1.00438415e+00
1.00440199e+00
1.00441751e+00
1.00443070e+00
1.00444155e+00
1.00444999e+00
1.00445604e+00
1.00445969e+00
9.96371771e-01
9.96374978e-01
9.96380366e-01
9.96387925e-01
9.96397679e-01
9.96409681e-01
9.96423984e-01
9.96440603e-01
9.96459569e-01
9.96480938e-01
9.96504731e-01
9.96530975e-01
9.96559709e-01
9.96590961e-01
9.96624748e-01
9.96661090e-01
9.96699996e-01
9.96741469e-01
9.96785506e-01
9.96832093e-01
9.96881210e-01
9.96932831e-01
9.96986921e-01
9.97043438e-01
9.97102334e-01
9.97163557e-01
9.97227047e-01
9.97292744e-01
9.97360582e-01
9.97430495e-01
9.97502414e-01
9.97576271e-01
9.97651998e-01
9.97729527e-01
9.97808791e-01
9.97889726e-01
9.97972269e-01
9.98056359e-01
9.98141938e-01
9.98228949e-01
9.98317337e-01
9.98407048e-01
9.98498030e-01
9.98590232e-01
9.98683603e-01
9.98778091e-01
9.98873644e-01
9.98970210e-01
9.99067733e-01
9.99166157e-01
9.99265423e-01
9.99365470e-01
9.99466233e-01
9.99567645e-01
9.99669633e-01
9.99772124e-01
9.99875040e-01
9.99978299e-01
1.00008182e+00
1.00018551e+00
1.00028928e+00
1.00039303e+00
1.00049668e+00
1.00060013e+00
1.00070327e+00
1.00080601e+00
1.00090824e+00
1.00100988e+00
1.00111082e+00
1.00121097e+00
1.00131023e+00
1.00140851e+00
1.00150573e+00
1.00160179e+00
1.00169663e+00
1.00179016e+00
1.00188233e+00
1.00197306e+00
1.00206230e+00
1.00215000e+00
1.00223612e+00
1.00232062e+00
1.00240347e+00
1.00248466e+00
1.00256415e+00
1.00264196e+00
1.00271806e+00
1.00279247e+00
1.00286519e+00
1.00293623e+00
1.00300561e+00
1.00307335e+00
1.00313947e+00
1.00320399e+00
1.00326695e+00
1.00332836e+00
1.00338825e+00
1.00344664e+00
1.00350356e+00
1.00355902e+00
1.00361304e+00
1.00366562e+00
1.00371677e+00
1.00376650e+00
1.00381479e+00
1.00386163e+00
1.00390701e+00
1.00395089e+00
1.00399325e+00
1.00403404e+00
1.00407324e+00
1.00411078e+00
1.00414661e+00
1.00418068e+00
1.00421294e+00
1.00424330e+00
1.00427172e+00
1.00429813e+00
1.00432246e+00
1.00434467e+00
1.00436466e+00
1.00438241e+00
1.00439788e+00
1.00441098e+00
1.00442172e+00
1.00443008e+00
1.00443602e+00
1.00443955e+00
9.96392348e-01
9.96395436e-01
9.96400750e-01
9.96408279e-01
9.96418038e-01
9.96430077e-01
9.96444438e-01
9.96461143e-01
9.96480227e-01
9.96501720e-01
9.96525648e-01
9.96552044e-01
9.96580936e-01
9.96612344e-01
9.96646289e-01
9.96682785e-01
9.96721837e-01
9.96763447e-01
9.96807607e-01
9.96854303e-01
9.96903512e-01
9.96955205e-01
9.97009345e-01
9.97065888e-01
9.97124786e-01
9.97185983e-01
9.97249421e-01
9.97315035e-01
9.97382760e-01
9.97452529e-01
9.97524271e-01
9.97597918e-01
9.97673400e-01
9.97750649e-01
9.97829596e-01
9.97910178e-01
9.97992331e-01
9.98075993e-01
9.98161105e-01
9.98247611e-01
9.98335456e-01
9.98424586e-01
9.98514950e-01
9.98606497e-01
9.98699176e-01
9.98792938e-01
9.98887732e-01
9.98983506e-01
9.99080207e-01
9.99177783e-01
9.99276175e-01
9.99375325e-01
9.99475171e-01
9.99575648e-01
9.99676688e-01
9.99778219e-01
9.99880167e-01
9.99982453e-01
1.00008500e+00
1.00018771e+00
1.00029051e+00
1.00039330e+00
1.00049600e+00
1.00059850e+00
1.00070071e+00
1.00080254e+00
1.00090388e+00
1.00100464e+00
1.00110473e+00
1.00120405e+00
1.00130250e+00
1.00140000e+00
1.00149646e+00
1.00159180e+00
1.00168594e+00
1.00177881e+00
1.00187033e+00
1.00196045e+00
1.00204911e+00
1.00213627e+00
1.00222187e+00
1.00230588e+00
1.00238828e+00
1.00246904e+00
1.00254813e+00
1.00262557e+00
1.00270133e+00
1.00277542e+00
1.00284785e+00
1.00291863e+00
1.00298777e+00
1.00305529e+00
1.00312121e+00
1.00318556e+00
1.00324836e+00
1.00330962e+00
1.00336939e+00
1.00342766e+00
1.00348448e+00
1.00353984e+00
1.00359377e+00
1.00364627e+00
1.00369735e+00
1.00374700e+00
1.00379522e+00
1.00384199e+00
1.00388730e+00
1.00393111e+00
1.00397340e+00
1.00401413e+00
1.00405325e+00
1.00409072e+00
1.00412647e+00
1.00416047e+00
1.00419264e+00
1.00422293e+00
1.00425127e+00
1.00427760e+00
1.00430185e+00
1.00432397e+00
1.00434389e+00
1.00436156e+00
1.00437693e+00
1.00438996e+00
1.00440061e+00
1.00440887e+00
1.00441472e+00
1.00441814e+00
9.96414168e-01
9.96417154e-01
9.96422400e-01
9.96429894e-01
9.96439659e-01
9.96451738e-01
9.96466158e-01
9.96482953e-01
9.96502150e-01
9.96523767e-01
9.96547836e-01
9.96574385e-01
9.96603433e-01
9.96635001e-01
9.96669106e-01
9.96705757e-01
9.96744958e-01
9.96786706e-01
9.96830991e-01
9.96877796e-01
9.96927097e-01
9.96978861e-01
9.97033050e-01
9.97089618e-01
9.97148514e-01
9.97209681e-01
9.97273059e-01
9.97338583e-01
9.97406186e-01
9.97475799e-01
9.97547352e-01
9.97620773e-01
9.97695993e-01
9.97772942e-01
9.97851553e-01
9.97931758e-01
9.98013494e-01
9.98096700e-01
9.98181316e-01
9.98267286e-01
9.98354553e-01
9.98443066e-01
9.98532773e-01
9.98623624e-01
9.98715569e-01
9.98808560e-01
9.98902548e-01
9.98997483e-01
9.99093314e-01
9.99189990e-01
9.99287456e-01
9.99385656e-01
9.99484531e-01
9.99584020e-01
9.99684056e-01
9.99784572e-01
9.99885496e-01
9.99986753e-01
1.00008827e+00
1.00018995e+00
1.00029172e+00
1.00039350e+00
1.00049518e+00
1.00059668e+00
1.00069791e+00
1.00079877e+00
1.00089917e+00
1.00099900e+00
1.00109819e+00
1.00119663e+00
1.00129423e+00
1.00139090e+00
1.00148656e+00
1.00158114e+00
1.00167454e+00
1.00176669e+00
1.00185754e+00
1.00194702e+00
1.00203507e+00
1.00212164e+00
1.00220670e+00
1.00229020e+00
1.00237211e+00
1.00245241e+00
1.00253109e+00
1.00260814e+00
1.00268354e+00
1.00275730e+00
1.00282943e+00
1.00289993e+00
1.00296882e+00
1.00303611e+00
1.00310183e+00
1.00316599e+00
1.00322862e+00
1.00328974e+00
1.00334937e+00
1.00340753e+00
1.00346423e+00
1.00351950e+00
1.00357334e+00
1.00362576e+00
1.00367676e+00
1.00372633e+00
1.00377448e+00
1.00382118e+00
1.00386642e+00
1.00391016e+00
1.00395238e+00
1.00399303e+00
1.00403207e+00
1.00406946e+00
1.00410514e+00
1.00413906e+00
1.00417115e+00
1.00420135e+00
1.00422961e+00
1.00425585e+00
1.00428002e+00
1.00430205e+00
1.00432189e+00
1.00433947e+00
1.00435475e+00
1.00436770e+00
1.00437827e+00
1.00438644e+00
1.00439220e+00
1.00439552e+00
9.96437164e-01
9.96440048e-01
9.96445240e-01
9.96452705e-01
9.96462476e-01
9.96474593e-01
9.96489080e-01
9.96505963e-01
9.96525268e-01
9.96547014e-01
9.96571225e-01
9.96597923e-01
9.96627129e-01
9.96658859e-01
9.96693123e-01
9.96729930e-01
9.96769280e-01
9.96811166e-01
9.96855576e-01
9.96902490e-01
9.96951881e-01
9.97003714e-01
9.97057948e-01
9.97114536e-01
9.97173425e-01
9.97234556e-01
9.97297868e-01
9.97363293e-01
9.97430764e-01
9.97500210e-01
9.97571559e-01
9.97644740e-01
9.97719681e-01
9.97796312e-01
9.97874564e-01
9.97954370e-01
9.98035666e-01
9.98118390e-01
9.98202481e-01
9.98287883e-01
9.98374541e-01
9.98462402e-01
9.98551415e-01
9.98641532e-01
9.98732704e-01
9.98824883e-01
9.98918022e-01
9.99012073e-01
9.99106989e-01
9.99202719e-01
9.99299211e-01
9.99396413e-01
9.99494267e-01
9.99592717e-01
9.99691699e-01
9.99791148e-01
9.99890997e-01
9.99991173e-01
1.00009160e+00
1.00019220e+00
1.00029290e+00
1.00039360e+00
1.00049422e+00
1.00059468e+00
1.00069487e+00
1.00079472e+00
1.00089412e+00
1.00099298e+00
1.00109122e+00
1.00118873e+00
1.00128543e+00
1.00138124e+00
1.00147606e+00
1.00156983e+00
1.00166245e+00
1.00175386e+00
1.00184400e+00
1.00193280e+00
1.00202021e+00
1.00210617e+00
1.00219065e+00
1.00227361e+00
1.00235501e+00
1.00243484e+00
1.00251308e+00
1.00258972e+00
1.00266474e+00
1.00273816e+00
1.00280997e+00
1.00288018e+00
1.00294881e+00
1.00301587e+00
1.00308138e+00
1.00314535e+00
1.00320781e+00
1.00326877e+00
1.00332827e+00
1.00338630e+00
1.00344290e+00
1.00349807e+00
1.00355182e+00
1.00360415e+00
1.00365507e+00
1.00370458e+00
1.00375265e+00
1.00379928e+00
1.00384445e+00
1.00388812e+00
1.00393026e+00
1.00397084e+00
1.00400981e+00
1.00404712e+00
1.00408272e+00
1.00411655e+00
1.00414855e+00
1.00417867e+00
1.00420683e+00
1.00423299e+00
1.00425707e+00
1.00427901e+00
1.00429875e+00
1.00431625e+00
1.00433145e+00
1.00434430e+00
1.00435478e+00
1.00436288e+00
1.00436856e+00
1.00437179e+00
9.96461281e-01
9.96464068e-01
9.96469198e-01
9.96476642e-01
9.96486423e-01
9.96498576e-01
9.96513128e-01
9.96530102e-01
9.96549515e-01
9.96571387e-01
9.96595739e-01
9.96622588e-01
9.96651950e-01
9.96683838e-01
9.96718262e-01
9.96755223e-01
9.96794719e-01
9.96836742e-01
9.96881275e-01
9.96928295e-01
9.96977773e-01
9.97029671e-01
9.97083947e-01
9.97140550e-01
9.97199425e-01
9.97260513e-01
9.97323750e-01
9.97389067e-01
9.97456395e-01
9.97525661e-01
9.97596793e-01
9.97669719e-01
9.97744364e-01
9.97820659e-01
9.97898532e-01
9.97977918e-01
9.98058750e-01
9.98140965e-01
9.98224505e-01
9.98309311e-01
9.98395328e-01
9.98482506e-01
9.98570793e-01
9.98660140e-01
9.98750502e-01
9.98841831e-01
9.98934082e-01
9.99027210e-01
9.99121167e-01
9.99215908e-01
9.99311383e-01
9.99407541e-01
9.99504330e-01
9.99601695e-01
9.99699576e-01
9.99797912e-01
9.99896638e-01
9.99995686e-01
1.00009498e+00
1.00019446e+00
1.00029402e+00
1.00039361e+00
1.00049312e+00
1.00059248e+00
1.00069160e+00
1.00079038e+00
1.00088874e+00
1.00098659e+00
1.00108383e+00
1.00118037e+00
1.00127614e+00
1.00137104e+00
1.00146498e+00
1.00155790e+00
1.00164971e+00
1.00174034e+00
1.00182974e+00
1.00191783e+00
1.00200456e+00
1.00208988e+00
1.00217376e+00
1.00225615e+00
1.00233703e+00
1.00241636e+00
1.00249414e+00
1.00257035e+00
1.00264499e+00
1.00271804e+00
1.00278953e+00
1.00285944e+00
1.00292780e+00
1.00299461e+00
1.00305990e+00
1.00312368e+00
1.00318596e+00
1.00324677e+00
1.00330613e+00
1.00336404e+00
1.00342053e+00
1.00347559e+00
1.00352925e+00
1.00358150e+00
1.00363235e+00
1.00368178e+00
1.00372978e+00
1.00377634e+00
1.00382143e+00
1.00386503e+00
1.00390710e+00
1.00394760e+00
1.00398649e+00
1.00402372e+00
1.00405923e+00
1.00409298e+00
1.00412489e+00
1.00415492e+00
1.00418299e+00
1.00420905e+00
1.00423304e+00
1.00425489e+00
1.00427454e+00
1.00429195e+00
1.00430706e+00
1.00431983e+00
1.00433023e+00
1.00433825e+00
1.00434386e+00
1.00434701e+00
9.96486442e-01
9.96489135e-01
9.96494209e-01
9.96501633e-01
9.96511425e-01
9.96523615e-01
9.96538232e-01
9.96555294e-01
9.96574814e-01
9.96596811e-01
9.96621301e-01
9.96648298e-01
9.96677814e-01
9.96709859e-01
9.96744439e-01
9.96781551e-01
9.96821191e-01
9.96863347e-01
9.96907999e-01
9.96955121e-01
9.97004680e-01
9.97056639e-01
9.97110949e-01
9.97167560e-01
9.97226415e-01
9.97287452e-01
9.97350604e-01
9.97415803e-01
9.97482976e-01
9.97552050e-01
9.97622952e-01
9.97695606e-01
9.97769940e-01
9.97845880e-01
9.97923356e-01
9.98002300e-01
9.98082646e-01
9.98164330e-01
9.98247293e-01
9.98331476e-01
9.98416826e-01
9.98503290e-01
9.98590819e-01
9.98679365e-01
9.98768883e-01
9.98859328e-01
9.98950655e-01
9.99042822e-01
9.99135784e-01
9.99229497e-01
9.99323915e-01
9.99418990e-01
9.99514672e-01
9.99610910e-01
9.99707648e-01
9.99804828e-01
9.99902389e-01
1.00000027e+00
1.00009839e+00
1.00019669e+00
1.00029509e+00
1.00039351e+00
1.00049187e+00
1.00059010e+00
1.00068809e+00