# vtk DataFile Version 2.0
LBM Flow Field - Timestep 1160
ASCII
DATASET STRUCTURED_POINTS
DIMENSIONS 128 128 1
ORIGIN 0.0 0.0 0.0
SPACING 1.0 1.0 1.0
POINT_DATA 16384
SCALARS density double 1
LOOKUP_TABLE default
1.00066253e+00
1.00067785e+00
1.00069099e+00
1.00067010e+00
1.00064430e+00
1.00061911e+00
1.00058712e+00
1.00054875e+00
1.00050835e+00
1.00046598e+00
1.00042158e+00
1.00037649e+00
1.00033196e+00
1.00028858e+00
1.00024709e+00
1.00020826e+00
1.00017271e+00
1.00014088e+00
1.00011316e+00
1.00008984e+00
1.00007106e+00
1.00005688e+00
1.00004727e+00
1.00004212e+00
1.00004124e+00
1.00004440e+00
1.00005130e+00
1.00006163e+00
1.00007503e+00
1.00009113e+00
1.00010955e+00
1.00012989e+00
1.00015175e+00
1.00017474e+00
1.00019844e+00
1.00022249e+00
1.00024647e+00
1.00027004e+00
1.00029281e+00
1.00031447e+00
1.00033469e+00
1.00035318e+00
1.00036968e+00
1.00038396e+00
1.00039583e+00
1.00040513e+00
1.00041175e+00
1.00041560e+00
1.00041664e+00
1.00041486e+00
1.00041028e+00
1.00040295e+00
1.00039296e+00
1.00038041e+00
1.00036543e+00
1.00034817e+00
1.00032878e+00
1.00030743e+00
1.00028431e+00
1.00025959e+00
1.00023347e+00
1.00020615e+00
1.00017783e+00
1.00014870e+00
1.00011896e+00
1.00008882e+00
1.00005850e+00
1.00002819e+00
9.99998114e-01
9.99968488e-01
9.99939533e-01
9.99911479e-01
9.99884560e-01
9.99859018e-01
9.99835100e-01
9.99813061e-01
9.99793161e-01
9.99775664e-01
9.99760836e-01
9.99748942e-01
9.99740242e-01
9.99734988e-01
9.99733415e-01
9.99735739e-01
9.99742144e-01
9.99752779e-01
9.99767746e-01
9.99787094e-01
9.99810805e-01
9.99838789e-01
9.99870876e-01
9.99906806e-01
9.99946225e-01
9.99988686e-01
1.00003364e+00
1.00008045e+00
1.00012840e+00
1.00017668e+00
1.00022443e+00
1.00027075e+00
1.00031473e+00
1.00035545e+00
1.00039203e+00
1.00042366e+00
1.00044959e+00
1.00046923e+00
1.00048209e+00
1.00048786e+00
1.00048639e+00
1.00047773e+00
1.00046208e+00
1.00043987e+00
1.00041165e+00
1.00037814e+00
1.00034020e+00
1.00029886e+00
1.00025515e+00
1.00020991e+00
1.00016461e+00
1.00012078e+00
1.00007857e+00
1.00003821e+00
1.00000406e+00
9.99976652e-01
9.99948862e-01
9.99926335e-01
9.99936377e-01
9.99948721e-01
1.00067733e+00
1.00067639e+00
1.00068025e+00
1.00066380e+00
1.00064156e+00
1.00061463e+00
1.00058298e+00
1.00054615e+00
1.00050634e+00
1.00046407e+00
1.00042025e+00
1.00037566e+00
1.00033134e+00
1.00028804e+00
1.00024659e+00
1.00020766e+00
1.00017187e+00
1.00013972e+00
1.00011160e+00
1.00008779e+00
1.00006848e+00
1.00005374e+00
1.00004356e+00
1.00003785e+00
1.00003642e+00
1.00003905e+00
1.00004547e+00
1.00005535e+00
1.00006836e+00
1.00008411e+00
1.00010223e+00
1.00012232e+00
1.00014397e+00
1.00016679e+00
1.00019037e+00
1.00021432e+00
1.00023826e+00
1.00026180e+00
1.00028459e+00
1.00030629e+00
1.00032659e+00
1.00034518e+00
1.00036183e+00
1.00037629e+00
1.00038837e+00
1.00039792e+00
1.00040481e+00
1.00040897e+00
1.00041035e+00
1.00040893e+00
1.00040473e+00
1.00039782e+00
1.00038826e+00
1.00037616e+00
1.00036164e+00
1.00034485e+00
1.00032594e+00
1.00030508e+00
1.00028245e+00
1.00025823e+00
1.00023261e+00
1.00020578e+00
1.00017796e+00
1.00014932e+00
1.00012009e+00
1.00009046e+00
1.00006064e+00
1.00003084e+00
1.00000127e+00
9.99972160e-01
9.99943726e-01
9.99916198e-01
9.99889810e-01
9.99864804e-01
9.99841426e-01
9.99819931e-01
9.99800575e-01
9.99783621e-01
9.99769330e-01
9.99757963e-01
9.99749776e-01
9.99745014e-01
9.99743904e-01
9.99746653e-01
9.99753438e-01
9.99764397e-01
9.99779623e-01
9.99799151e-01
9.99822956e-01
9.99850938e-01
9.99882915e-01
9.99918622e-01
9.99957699e-01
9.99999696e-01
1.00004407e+00
1.00009018e+00
1.00013731e+00
1.00018468e+00
1.00023144e+00
1.00027671e+00
1.00031959e+00
1.00035921e+00
1.00039470e+00
1.00042528e+00
1.00045025e+00
1.00046902e+00
1.00048114e+00
1.00048632e+00
1.00048443e+00
1.00047552e+00
1.00045982e+00
1.00043771e+00
1.00040979e+00
1.00037674e+00
1.00033943e+00
1.00029877e+00
1.00025583e+00
1.00021161e+00
1.00016738e+00
1.00012407e+00
1.00008282e+00
1.00004427e+00
1.00001075e+00
9.99981854e-01
9.99957568e-01
9.99939580e-01
9.99941107e-01
9.99938118e-01
1.00069103e+00
1.00068086e+00
1.00066282e+00
1.00065394e+00
1.00063691e+00
1.00060697e+00
1.00057416e+00
1.00053925e+00
1.00049989e+00
1.00045734e+00
1.00041371e+00
1.00036938e+00
1.00032496e+00
1.00028148e+00
1.00023978e+00
1.00020050e+00
1.00016423e+00
1.00013154e+00
1.00010282e+00
1.00007838e+00
1.00005841e+00
1.00004301e+00
1.00003219e+00
1.00002586e+00
1.00002386e+00
1.00002598e+00
1.00003194e+00
1.00004144e+00
1.00005412e+00
1.00006961e+00
1.00008754e+00
1.00010749e+00
1.00012906e+00
1.00015186e+00
1.00017546e+00
1.00019949e+00
1.00022353e+00
1.00024723e+00
1.00027022e+00
1.00029216e+00
1.00031273e+00
1.00033165e+00
1.00034865e+00
1.00036351e+00
1.00037603e+00
1.00038606e+00
1.00039348e+00
1.00039820e+00
1.00040017e+00
1.00039938e+00
1.00039585e+00
1.00038963e+00
1.00038080e+00
1.00036944e+00
1.00035569e+00
1.00033968e+00
1.00032157e+00
1.00030152e+00
1.00027970e+00
1.00025631e+00
1.00023152e+00
1.00020554e+00
1.00017855e+00
1.00015077e+00
1.00012238e+00
1.00009360e+00
1.00006464e+00
1.00003570e+00
1.00000700e+00
9.99978761e-01
9.99951201e-01
9.99924550e-01
9.99899042e-01
9.99874917e-01
9.99852420e-01
9.99831803e-01
9.99813318e-01
9.99797224e-01
9.99783777e-01
9.99773233e-01
9.99765839e-01
9.99761831e-01
9.99761429e-01
9.99764828e-01
9.99772196e-01
9.99783657e-01
9.99799294e-01
9.99819130e-01
9.99843128e-01
9.99871176e-01
9.99903086e-01
9.99938583e-01
9.99977304e-01
1.00001880e+00
1.00006251e+00
1.00010783e+00
1.00015404e+00
1.00020037e+00
1.00024599e+00
1.00029005e+00
1.00033167e+00
1.00037001e+00
1.00040423e+00
1.00043359e+00
1.00045741e+00
1.00047514e+00
1.00048636e+00
1.00049080e+00
1.00048834e+00
1.00047905e+00
1.00046317e+00
1.00044109e+00
1.00041338e+00
1.00038074e+00
1.00034400e+00
1.00030402e+00
1.00026185e+00
1.00021872e+00
1.00017545e+00
1.00013263e+00
1.00009250e+00
1.00005641e+00
1.00002223e+00
9.99990865e-01
9.99972139e-01
9.99961617e-01
9.99942482e-01
9.99930838e-01
1.00067447e+00
1.00066878e+00
1.00065717e+00
1.00064377e+00
1.00062147e+00
1.00059434e+00
1.00056309e+00
1.00052702e+00
1.00048726e+00
1.00044532e+00
1.00040166e+00
1.00035700e+00
1.00031237e+00
1.00026866e+00
1.00022655e+00
1.00018677e+00
1.00014997e+00
1.00011669e+00
1.00008733e+00
1.00006223e+00
1.00004160e+00
1.00002556e+00
1.00001412e+00
1.00000721e+00
1.00000469e+00
1.00000634e+00
1.00001190e+00
1.00002106e+00
1.00003347e+00
1.00004877e+00
1.00006655e+00
1.00008643e+00
1.00010799e+00
1.00013082e+00
1.00015452e+00
1.00017868e+00
1.00020293e+00
1.00022686e+00
1.00025014e+00
1.00027242e+00
1.00029339e+00
1.00031275e+00
1.00033025e+00
1.00034566e+00
1.00035880e+00
1.00036949e+00
1.00037763e+00
1.00038312e+00
1.00038592e+00
1.00038601e+00
1.00038341e+00
1.00037815e+00
1.00037032e+00
1.00036000e+00
1.00034732e+00
1.00033241e+00
1.00031542e+00
1.00029651e+00
1.00027585e+00
1.00025362e+00
1.00023002e+00
1.00020523e+00
1.00017944e+00
1.00015286e+00
1.00012569e+00
1.00009813e+00
1.00007040e+00
1.00004269e+00
1.00001523e+00
9.99988228e-01
9.99961913e-01
9.99936509e-01
9.99912248e-01
9.99889368e-01
9.99868111e-01
9.99848723e-01
9.99831454e-01
9.99816553e-01
9.99804272e-01
9.99794856e-01
9.99788543e-01
9.99785558e-01
9.99786109e-01
9.99790379e-01
9.99798520e-01
9.99810645e-01
9.99826820e-01
9.99847056e-01
9.99871303e-01
9.99899437e-01
9.99931261e-01
9.99966494e-01
1.00000477e+00
1.00004563e+00
1.00008854e+00
1.00013289e+00
1.00017797e+00
1.00022304e+00
1.00026729e+00
1.00030990e+00
1.00035003e+00
1.00038686e+00
1.00041960e+00
1.00044753e+00
1.00047003e+00
1.00048657e+00
1.00049676e+00
1.00050036e+00
1.00049728e+00
1.00048759e+00
1.00047154e+00
1.00044952e+00
1.00042208e+00
1.00038990e+00
1.00035381e+00
1.00031471e+00
1.00027349e+00
1.00023120e+00
1.00018904e+00
1.00014791e+00
1.00010839e+00
1.00007213e+00
1.00004030e+00
1.00001237e+00
9.99989185e-01
9.99974764e-01
9.99962349e-01
9.99955372e-01
1.00065487e+00
1.00065157e+00
1.00064504e+00
1.00062633e+00
1.00060297e+00
1.00057830e+00
1.00054652e+00
1.00050936e+00
1.00046996e+00
1.00042824e+00
1.00038416e+00
1.00033916e+00
1.00029430e+00
1.00025017e+00
1.00020753e+00
1.00016719e+00
1.00012978e+00
1.00009581e+00
1.00006576e+00
1.00003996e+00
1.00001863e+00
1.00000192e+00
9.99989844e-01
9.99982354e-01
9.99979312e-01
9.99980514e-01
9.99985695e-01
9.99994549e-01
1.00000673e+00
1.00002186e+00
1.00003956e+00
1.00005941e+00
1.00008101e+00
1.00010394e+00
1.00012779e+00
1.00015217e+00
1.00017667e+00
1.00020093e+00
1.00022459e+00
1.00024731e+00
1.00026877e+00
1.00028870e+00
1.00030682e+00
1.00032293e+00
1.00033683e+00
1.00034837e+00
1.00035741e+00
1.00036388e+00
1.00036772e+00
1.00036892e+00
1.00036748e+00
1.00036345e+00
1.00035689e+00
1.00034789e+00
1.00033658e+00
1.00032306e+00
1.00030750e+00
1.00029005e+00
1.00027087e+00
1.00025014e+00
1.00022806e+00
1.00020480e+00
1.00018056e+00
1.00015553e+00
1.00012993e+00
1.00010394e+00
1.00007779e+00
1.00005167e+00
1.00002580e+00
1.00000040e+00
9.99975694e-01
9.99951896e-01
9.99929239e-01
9.99907959e-01
9.99888292e-01
9.99870478e-01
9.99854761e-01
9.99841383e-01
9.99830584e-01
9.99822600e-01
9.99817655e-01
9.99815963e-01
9.99817715e-01
9.99823079e-01
9.99832191e-01
9.99845147e-01
9.99861996e-01
9.99882734e-01
9.99907295e-01
9.99935544e-01
9.99967273e-01
1.00000219e+00
1.00003993e+00
1.00008004e+00
1.00012200e+00
1.00016518e+00
1.00020892e+00
1.00025249e+00
1.00029512e+00
1.00033601e+00
1.00037438e+00
1.00040942e+00
1.00044042e+00
1.00046669e+00
1.00048765e+00
1.00050280e+00
1.00051181e+00
1.00051445e+00
1.00051066e+00
1.00050052e+00
1.00048429e+00
1.00046236e+00
1.00043528e+00
1.00040369e+00
1.00036836e+00
1.00033023e+00
1.00029023e+00
1.00024909e+00
1.00020798e+00
1.00016845e+00
1.00013061e+00
1.00009450e+00
1.00006328e+00
1.00003871e+00
1.00001531e+00
9.99996409e-01
9.99989374e-01
9.99985112e-01
1.00063713e+00
1.00063150e+00
1.00062171e+00
1.00060534e+00
1.00058431e+00
1.00055673e+00
1.00052389e+00
1.00048805e+00
1.00044863e+00
1.00040596e+00
1.00036160e+00
1.00031650e+00
1.00027113e+00
1.00022637e+00
1.00018316e+00
1.00014219e+00
1.00010405e+00
1.00006934e+00
1.00003853e+00
1.00001197e+00
9.99989909e-01
9.99972492e-01
9.99959765e-01
9.99951684e-01
9.99948120e-01
9.99948874e-01
9.99953689e-01
9.99962256e-01
9.99974229e-01
9.99989234e-01
1.00000687e+00
1.00002674e+00
1.00004842e+00
1.00007150e+00
1.00009556e+00
1.00012021e+00
1.00014505e+00
1.00016971e+00
1.00019383e+00
1.00021708e+00
1.00023914e+00
1.00025975e+00
1.00027863e+00
1.00029558e+00
1.00031040e+00
1.00032293e+00
1.00033306e+00
1.00034070e+00
1.00034579e+00
1.00034831e+00
1.00034827e+00
1.00034571e+00
1.00034068e+00
1.00033327e+00
1.00032358e+00
1.00031175e+00
1.00029791e+00
1.00028221e+00
1.00026481e+00
1.00024590e+00
1.00022564e+00
1.00020423e+00
1.00018185e+00
1.00015871e+00
1.00013500e+00
1.00011092e+00
1.00008668e+00
1.00006249e+00
1.00003856e+00
1.00001510e+00
9.99992330e-01
9.99970476e-01
9.99949761e-01
9.99930415e-01
9.99912668e-01
9.99896755e-01
9.99882909e-01
9.99871363e-01
9.99862346e-01
9.99856080e-01
9.99852775e-01
9.99852628e-01
9.99855815e-01
9.99862484e-01
9.99872752e-01
9.99886696e-01
9.99904347e-01
9.99925682e-01
9.99950620e-01
9.99979011e-01
1.00001064e+00
1.00004520e+00
1.00008233e+00
1.00012158e+00
1.00016243e+00
1.00020429e+00
1.00024650e+00
1.00028836e+00
1.00032914e+00
1.00036808e+00
1.00040444e+00
1.00043747e+00
1.00046649e+00
1.00049088e+00
1.00051009e+00
1.00052369e+00
1.00053136e+00
1.00053292e+00
1.00052833e+00
1.00051769e+00
1.00050126e+00
1.00047943e+00
1.00045272e+00
1.00042181e+00
1.00038741e+00
1.00035029e+00
1.00031149e+00
1.00027197e+00
1.00023232e+00
1.00019356e+00
1.00015732e+00
1.00012398e+00
1.00009307e+00
1.00006686e+00
1.00004673e+00
1.00003094e+00
1.00002125e+00
1.00001503e+00
1.00061373e+00
1.00060802e+00
1.00059655e+00
1.00058139e+00
1.00055973e+00
1.00053098e+00
1.00049884e+00
1.00046286e+00
1.00042248e+00
1.00037950e+00
1.00033502e+00
1.00028931e+00
1.00024324e+00
1.00019790e+00
1.00015402e+00
1.00011225e+00
1.00007331e+00
1.00003779e+00
1.00000616e+00
9.99978785e-01
9.99955940e-01
9.99937785e-01
9.99924378e-01
9.99915686e-01
9.99911589e-01
9.99911893e-01
9.99916344e-01
9.99924634e-01
9.99936416e-01
9.99951311e-01
9.99968921e-01
9.99988835e-01
1.00001063e+00
1.00003390e+00
1.00005822e+00
1.00008319e+00
1.00010843e+00
1.00013355e+00
1.00015821e+00
1.00018208e+00
1.00020484e+00
1.00022623e+00
1.00024599e+00
1.00026390e+00
1.00027978e+00
1.00029348e+00
1.00030486e+00
1.00031385e+00
1.00032038e+00
1.00032443e+00
1.00032600e+00
1.00032513e+00
1.00032186e+00
1.00031628e+00
1.00030848e+00
1.00029859e+00
1.00028673e+00
1.00027306e+00
1.00025773e+00
1.00024090e+00
1.00022276e+00
1.00020350e+00
1.00018328e+00
1.00016232e+00
1.00014081e+00
1.00011894e+00
1.00009693e+00
1.00007497e+00
1.00005328e+00
1.00003207e+00
1.00001156e+00
9.99991961e-01
9.99973499e-01
9.99956396e-01
9.99940875e-01
9.99927163e-01
9.99915484e-01
9.99906057e-01
9.99899099e-01
9.99894816e-01
9.99893403e-01
9.99895037e-01
9.99899874e-01
9.99908044e-01
9.99919640e-01
9.99934720e-01
9.99953293e-01
9.99975318e-01
1.00000069e+00
1.00002926e+00
1.00006078e+00
1.00009496e+00
1.00013142e+00
1.00016972e+00
1.00020935e+00
1.00024973e+00
1.00029024e+00
1.00033021e+00
1.00036894e+00
1.00040572e+00
1.00043986e+00
1.00047066e+00
1.00049750e+00
1.00051980e+00
1.00053708e+00
1.00054895e+00
1.00055513e+00
1.00055549e+00
1.00055000e+00
1.00053879e+00
1.00052212e+00
1.00050039e+00
1.00047409e+00
1.00044385e+00
1.00041044e+00
1.00037456e+00
1.00033700e+00
1.00029887e+00
1.00026109e+00
1.00022397e+00
1.00018863e+00
1.00015688e+00
1.00012824e+00
1.00010228e+00
1.00008267e+00
1.00006897e+00
1.00005835e+00
1.00005248e+00
1.00058530e+00
1.00058060e+00
1.00057039e+00
1.00055377e+00
1.00053078e+00
1.00050315e+00
1.00047081e+00
1.00043342e+00
1.00039279e+00
1.00034979e+00
1.00030453e+00
1.00025800e+00
1.00021137e+00
1.00016533e+00
1.00012058e+00
1.00007795e+00
1.00003816e+00
1.00000175e+00
9.99969226e-01
9.99940988e-01
9.99917319e-01
9.99898391e-01
9.99884276e-01
9.99874953e-01
9.99870309e-01
9.99870156e-01
9.99874240e-01
9.99882254e-01
9.99893849e-01
9.99908645e-01
9.99926240e-01
9.99946218e-01
9.99968158e-01
9.99991642e-01
1.00001625e+00
1.00004159e+00
1.00006727e+00
1.00009292e+00
1.00011818e+00
1.00014274e+00
1.00016628e+00
1.00018855e+00
1.00020929e+00
1.00022828e+00
1.00024535e+00
1.00026034e+00
1.00027313e+00
1.00028363e+00
1.00029177e+00
1.00029754e+00
1.00030091e+00
1.00030193e+00
1.00030064e+00
1.00029711e+00
1.00029143e+00
1.00028371e+00
1.00027408e+00
1.00026268e+00
1.00024966e+00
1.00023519e+00
1.00021943e+00
1.00020257e+00
1.00018478e+00
1.00016627e+00
1.00014723e+00
1.00012785e+00
1.00010833e+00
1.00008889e+00
1.00006973e+00
1.00005105e+00
1.00003308e+00
1.00001602e+00
1.00000009e+00
9.99985511e-01
9.99972494e-01
9.99961256e-01
9.99952010e-01
9.99944962e-01
9.99940314e-01
9.99938254e-01
9.99938960e-01
9.99942587e-01
9.99949270e-01
9.99959116e-01
9.99972197e-01
9.99988545e-01
1.00000815e+00
1.00003095e+00
1.00005682e+00
1.00008559e+00
1.00011701e+00
1.00015077e+00
1.00018651e+00
1.00022378e+00
1.00026208e+00
1.00030087e+00
1.00033954e+00
1.00037746e+00
1.00041397e+00
1.00044842e+00
1.00048014e+00
1.00050853e+00
1.00053300e+00
1.00055304e+00
1.00056822e+00
1.00057820e+00
1.00058277e+00
1.00058180e+00
1.00057532e+00
1.00056347e+00
1.00054651e+00
1.00052485e+00
1.00049897e+00
1.00046944e+00
1.00043697e+00
1.00040239e+00
1.00036638e+00
1.00032963e+00
1.00029328e+00
1.00025830e+00
1.00022480e+00
1.00019363e+00
1.00016654e+00
1.00014324e+00
1.00012365e+00
1.00010955e+00
1.00010096e+00
1.00009662e+00
1.00055585e+00
1.00055104e+00
1.00054075e+00
1.00052337e+00
1.00050039e+00
1.00047255e+00
1.00043912e+00
1.00040141e+00
1.00036061e+00
1.00031672e+00
1.00027062e+00
1.00022353e+00
1.00017615e+00
1.00012916e+00
1.00008350e+00
1.00003999e+00
9.99999235e-01
9.99961857e-01
9.99928394e-01
9.99899247e-01
9.99874707e-01
9.99854967e-01
9.99840116e-01
9.99830137e-01
9.99824925e-01
9.99824296e-01
9.99828001e-01
9.99835730e-01
9.99847134e-01
9.99861830e-01
9.99879412e-01
9.99899461e-01
9.99921555e-01
9.99945272e-01
9.99970199e-01
9.99995932e-01
1.00002209e+00
1.00004830e+00
1.00007421e+00
1.00009952e+00
1.00012392e+00
1.00014714e+00
1.00016895e+00
1.00018913e+00
1.00020750e+00
1.00022391e+00
1.00023824e+00
1.00025039e+00
1.00026030e+00
1.00026794e+00
1.00027330e+00
1.00027639e+00
1.00027726e+00
1.00027597e+00
1.00027261e+00
1.00026727e+00
1.00026008e+00
1.00025117e+00
1.00024069e+00
1.00022878e+00
1.00021563e+00
1.00020141e+00
1.00018629e+00
1.00017046e+00
1.00015412e+00
1.00013747e+00
1.00012070e+00
1.00010402e+00
1.00008763e+00
1.00007174e+00
1.00005655e+00
1.00004228e+00
1.00002913e+00
1.00001732e+00
1.00000705e+00
9.99998530e-01
9.99991952e-01
9.99987513e-01
9.99985395e-01
9.99985770e-01
9.99988793e-01
9.99994599e-01
1.00000330e+00
1.00001498e+00
1.00002968e+00
1.00004741e+00
1.00006815e+00
1.00009179e+00
1.00011821e+00
1.00014721e+00
1.00017853e+00
1.00021187e+00
1.00024684e+00
1.00028302e+00
1.00031993e+00
1.00035702e+00
1.00039373e+00
1.00042947e+00
1.00046362e+00
1.00049558e+00
1.00052474e+00
1.00055055e+00
1.00057250e+00
1.00059012e+00
1.00060305e+00
1.00061102e+00
1.00061383e+00
1.00061143e+00
1.00060386e+00
1.00059129e+00
1.00057399e+00
1.00055234e+00
1.00052684e+00
1.00049807e+00
1.00046661e+00
1.00043319e+00
1.00039870e+00
1.00036376e+00
1.00032895e+00
1.00029545e+00
1.00026404e+00
1.00023468e+00
1.00020846e+00
1.00018666e+00
1.00016853e+00
1.00015482e+00
1.00014701e+00
1.00014317e+00
1.00052517e+00
1.00051980e+00
1.00050867e+00
1.00049141e+00
1.00046831e+00
1.00043929e+00
1.00040536e+00
1.00036752e+00
1.00032578e+00
1.00028096e+00
1.00023429e+00
1.00018641e+00
1.00013800e+00
1.00009007e+00
1.00004351e+00
9.99998972e-01
9.99957182e-01
9.99918804e-01
9.99884355e-01
9.99854245e-01
9.99828795e-01
9.99808214e-01
9.99792594e-01
9.99781930e-01
9.99776125e-01
9.99774999e-01
9.99778303e-01
9.99785731e-01
9.99796928e-01
9.99811510e-01
9.99829069e-01
9.99849184e-01
9.99871430e-01
9.99895384e-01
9.99920632e-01
9.99946775e-01
9.99973429e-01
1.00000023e+00
1.00002684e+00
1.00005295e+00
1.00007826e+00
1.00010250e+00
1.00012545e+00
1.00014690e+00
1.00016667e+00
1.00018460e+00
1.00020058e+00
1.00021451e+00
1.00022632e+00
1.00023598e+00
1.00024346e+00
1.00024879e+00
1.00025198e+00
1.00025310e+00
1.00025223e+00
1.00024945e+00
1.00024488e+00
1.00023864e+00
1.00023088e+00
1.00022174e+00
1.00021138e+00
1.00019999e+00
1.00018773e+00
1.00017480e+00
1.00016137e+00
1.00014765e+00
1.00013383e+00
1.00012012e+00
1.00010671e+00
1.00009381e+00
1.00008162e+00
1.00007035e+00
1.00006020e+00
1.00005136e+00
1.00004405e+00
1.00003844e+00
1.00003473e+00
1.00003310e+00
1.00003369e+00
1.00003668e+00
1.00004219e+00
1.00005033e+00
1.00006120e+00
1.00007483e+00
1.00009127e+00
1.00011049e+00
1.00013243e+00
1.00015699e+00
1.00018400e+00
1.00021325e+00
1.00024449e+00
1.00027739e+00
1.00031157e+00
1.00034662e+00
1.00038206e+00
1.00041738e+00
1.00045205e+00
1.00048551e+00
1.00051719e+00
1.00054654e+00
1.00057302e+00
1.00059613e+00
1.00061542e+00
1.00063050e+00
1.00064106e+00
1.00064688e+00
1.00064784e+00
1.00064390e+00
1.00063515e+00
1.00062178e+00
1.00060407e+00
1.00058240e+00
1.00055722e+00
1.00052913e+00
1.00049873e+00
1.00046660e+00
1.00043346e+00
1.00040020e+00
1.00036736e+00
1.00033542e+00
1.00030550e+00
1.00027826e+00
1.00025363e+00
1.00023250e+00
1.00021579e+00
1.00020344e+00
1.00019573e+00
1.00019196e+00
1.00049287e+00
1.00048741e+00
1.00047584e+00
1.00045809e+00
1.00043424e+00
1.00040465e+00
1.00037037e+00
1.00033162e+00
1.00028895e+00
1.00024352e+00
1.00019602e+00
1.00014706e+00
1.00009769e+00
1.00004883e+00
1.00000119e+00
9.99955560e-01
9.99912721e-01
9.99873294e-01
9.99837799e-01
9.99806689e-01
9.99780299e-01
9.99758840e-01
9.99742417e-01
9.99731038e-01
9.99724610e-01
9.99722958e-01
9.99725835e-01
9.99732932e-01
9.99743897e-01
9.99758343e-01
9.99775859e-01
9.99796021e-01
9.99818404e-01
9.99842586e-01
9.99868153e-01
9.99894707e-01
9.99921870e-01
9.99949284e-01
9.99976613e-01
1.00000355e+00
1.00002981e+00
1.00005513e+00
1.00007929e+00
1.00010207e+00
1.00012331e+00
1.00014286e+00
1.00016059e+00
1.00017639e+00
1.00019022e+00
1.00020201e+00
1.00021174e+00
1.00021942e+00
1.00022507e+00
1.00022874e+00
1.00023050e+00
1.00023042e+00
1.00022862e+00
1.00022521e+00
1.00022032e+00
1.00021410e+00
1.00020670e+00
1.00019830e+00
1.00018907e+00
1.00017918e+00
1.00016883e+00
1.00015821e+00
1.00014751e+00
1.00013693e+00
1.00012667e+00
1.00011694e+00
1.00010792e+00
1.00009982e+00
1.00009283e+00
1.00008715e+00
1.00008295e+00
1.00008043e+00
1.00007975e+00
1.00008107e+00
1.00008453e+00
1.00009027e+00
1.00009840e+00
1.00010900e+00
1.00012214e+00
1.00013784e+00
1.00015610e+00
1.00017688e+00
1.00020010e+00
1.00022561e+00
1.00025325e+00
1.00028279e+00
1.00031395e+00
1.00034640e+00
1.00037978e+00
1.00041366e+00
1.00044760e+00
1.00048110e+00
1.00051367e+00
1.00054478e+00
1.00057392e+00
1.00060058e+00
1.00062429e+00
1.00064460e+00
1.00066114e+00
1.00067359e+00
1.00068168e+00
1.00068526e+00
1.00068426e+00
1.00067870e+00
1.00066869e+00
1.00065443e+00
1.00063623e+00
1.00061447e+00
1.00058961e+00
1.00056214e+00
1.00053268e+00
1.00050187e+00
1.00047022e+00
1.00043844e+00
1.00040737e+00
1.00037743e+00
1.00034909e+00
1.00032331e+00
1.00030050e+00
1.00028074e+00
1.00026492e+00
1.00025338e+00
1.00024619e+00
1.00024300e+00
1.00045992e+00
1.00045427e+00
1.00044233e+00
1.00042380e+00
1.00039924e+00
1.00036924e+00
1.00033413e+00
1.00029439e+00
1.00025105e+00
1.00020478e+00
1.00015616e+00
1.00010623e+00
1.00005592e+00
1.00000595e+00
9.99957175e-01
9.99910468e-01
9.99866532e-01
9.99825992e-01
9.99789426e-01
9.99757293e-01
9.99729928e-01
9.99707556e-01
9.99690302e-01
9.99678176e-01
9.99671092e-01
9.99668879e-01
9.99671292e-01
9.99678025e-01
9.99688723e-01
9.99702998e-01
9.99720438e-01
9.99740619e-01
9.99763114e-01
9.99787501e-01
9.99813370e-01
9.99840326e-01
9.99867994e-01
9.99896022e-01
9.99924080e-01
9.99951866e-01
9.99979102e-01
1.00000554e+00
1.00003094e+00
1.00005512e+00
1.00007790e+00
1.00009913e+00
1.00011868e+00
1.00013645e+00
1.00015237e+00
1.00016638e+00
1.00017847e+00
1.00018861e+00
1.00019683e+00
1.00020316e+00
1.00020765e+00
1.00021040e+00
1.00021148e+00
1.00021101e+00
1.00020912e+00
1.00020594e+00
1.00020162e+00
1.00019633e+00
1.00019024e+00
1.00018353e+00
1.00017638e+00
1.00016899e+00
1.00016153e+00
1.00015422e+00
1.00014724e+00
1.00014080e+00
1.00013508e+00
1.00013028e+00
1.00012659e+00
1.00012418e+00
1.00012323e+00
1.00012391e+00
1.00012637e+00
1.00013076e+00
1.00013720e+00
1.00014580e+00
1.00015664e+00
1.00016979e+00
1.00018528e+00
1.00020312e+00
1.00022327e+00
1.00024567e+00
1.00027020e+00
1.00029671e+00
1.00032501e+00
1.00035484e+00
1.00038593e+00
1.00041795e+00
1.00045051e+00
1.00048322e+00
1.00051563e+00
1.00054729e+00
1.00057772e+00
1.00060645e+00
1.00063300e+00
1.00065692e+00
1.00067781e+00
1.00069528e+00
1.00070900e+00
1.00071874e+00
1.00072430e+00
1.00072557e+00
1.00072254e+00
1.00071527e+00
1.00070392e+00
1.00068871e+00
1.00066995e+00
1.00064802e+00
1.00062340e+00
1.00059654e+00
1.00056797e+00
1.00053831e+00
1.00050818e+00
1.00047802e+00
1.00044850e+00
1.00042035e+00
1.00039391e+00
1.00036959e+00
1.00034819e+00
1.00032998e+00
1.00031515e+00
1.00030416e+00
1.00029759e+00
1.00029488e+00
1.00042707e+00
1.00042092e+00
1.00040831e+00
1.00038913e+00
1.00036396e+00
1.00033315e+00
1.00029712e+00
1.00025664e+00
1.00021244e+00
1.00016507e+00
1.00011547e+00
1.00006458e+00
1.00001314e+00
9.99962025e-01
9.99912164e-01
9.99864332e-01
9.99819240e-01
9.99777579e-01
9.99739930e-01
9.99706743e-01
9.99678372e-01
9.99655065e-01
9.99636949e-01
9.99624042e-01
9.99616266e-01
9.99613454e-01
9.99615363e-01
9.99621689e-01
9.99632077e-01
9.99646138e-01
9.99663460e-01
9.99683618e-01
9.99706188e-01
9.99730749e-01
9.99756892e-01
9.99784227e-01
9.99812385e-01
9.99841018e-01
9.99869805e-01
9.99898448e-01
9.99926677e-01
9.99954245e-01
9.99980932e-01
1.00000654e+00
1.00003090e+00
1.00005385e+00
1.00007528e+00
1.00009508e+00
1.00011317e+00
1.00012948e+00
1.00014399e+00
1.00015667e+00
1.00016753e+00
1.00017660e+00
1.00018392e+00
1.00018957e+00
1.00019362e+00
1.00019618e+00
1.00019737e+00
1.00019731e+00
1.00019617e+00
1.00019408e+00
1.00019123e+00
1.00018778e+00
1.00018392e+00
1.00017983e+00
1.00017571e+00
1.00017175e+00
1.00016815e+00
1.00016508e+00
1.00016275e+00
1.00016133e+00
1.00016101e+00
1.00016196e+00
1.00016434e+00
1.00016831e+00
1.00017399e+00
1.00018152e+00
1.00019100e+00
1.00020251e+00
1.00021613e+00
1.00023188e+00
1.00024977e+00
1.00026979e+00
1.00029186e+00
1.00031590e+00
1.00034177e+00
1.00036930e+00
1.00039827e+00
1.00042841e+00
1.00045945e+00
1.00049102e+00
1.00052278e+00
1.00055431e+00
1.00058520e+00
1.00061501e+00
1.00064330e+00
1.00066964e+00
1.00069359e+00
1.00071477e+00
1.00073281e+00
1.00074741e+00
1.00075830e+00
1.00076529e+00
1.00076827e+00
1.00076719e+00
1.00076208e+00
1.00075305e+00
1.00074029e+00
1.00072405e+00
1.00070467e+00
1.00068252e+00
1.00065803e+00
1.00063170e+00
1.00060401e+00
1.00057546e+00
1.00054664e+00
1.00051810e+00
1.00049025e+00
1.00046366e+00
1.00043893e+00
1.00041632e+00
1.00039625e+00
1.00037924e+00
1.00036548e+00
1.00035518e+00
1.00034892e+00
1.00034641e+00
1.00039439e+00
1.00038767e+00
1.00037431e+00
1.00035447e+00
1.00032854e+00
1.00029683e+00
1.00025999e+00
1.00021866e+00
1.00017340e+00
1.00012504e+00
1.00007448e+00
1.00002248e+00
9.99969906e-01
9.99917710e-01
9.99866720e-01
9.99817717e-01
9.99771484e-01
9.99728707e-01
9.99689949e-01
9.99655690e-01
9.99626304e-01
9.99602040e-01
9.99583032e-01
9.99569312e-01
9.99560807e-01
9.99557355e-01
9.99558715e-01
9.99564585e-01
9.99574613e-01
9.99588409e-01
9.99605562e-01
9.99625649e-01
9.99648246e-01
9.99672937e-01
9.99699315e-01
9.99726996e-01
9.99755616e-01
9.99784834e-01
9.99814335e-01
9.99843829e-01
9.99873052e-01
9.99901762e-01
9.99929743e-01
9.99956802e-01
9.99982766e-01
1.00000749e+00
1.00003083e+00
1.00005270e+00
1.00007299e+00
1.00009166e+00
1.00010863e+00
1.00012391e+00
1.00013747e+00
1.00014933e+00
1.00015954e+00
1.00016814e+00
1.00017522e+00
1.00018086e+00
1.00018519e+00
1.00018831e+00
1.00019038e+00
1.00019155e+00
1.00019198e+00
1.00019185e+00
1.00019133e+00
1.00019061e+00
1.00018987e+00
1.00018931e+00
1.00018912e+00
1.00018948e+00
1.00019058e+00
1.00019259e+00
1.00019569e+00
1.00020004e+00
1.00020578e+00
1.00021306e+00
1.00022200e+00
1.00023269e+00
1.00024524e+00
1.00025969e+00
1.00027610e+00
1.00029446e+00
1.00031477e+00
1.00033696e+00
1.00036096e+00
1.00038665e+00
1.00041387e+00
1.00044241e+00
1.00047205e+00
1.00050251e+00
1.00053349e+00
1.00056464e+00
1.00059560e+00
1.00062597e+00
1.00065535e+00
1.00068334e+00
1.00070951e+00
1.00073347e+00
1.00075485e+00
1.00077330e+00
1.00078852e+00
1.00080026e+00
1.00080832e+00
1.00081257e+00
1.00081296e+00
1.00080950e+00
1.00080228e+00
1.00079146e+00
1.00077724e+00
1.00075993e+00
1.00073986e+00
1.00071741e+00
1.00069301e+00
1.00066710e+00
1.00064018e+00
1.00061271e+00
1.00058514e+00
1.00055802e+00
1.00053180e+00
1.00050683e+00
1.00048360e+00
1.00046255e+00
1.00044390e+00
1.00042797e+00
1.00041513e+00
1.00040548e+00
1.00039944e+00
1.00039701e+00
1.00036207e+00
1.00035476e+00
1.00034064e+00
1.00031999e+00
1.00029322e+00
1.00026070e+00
1.00022300e+00
1.00018067e+00
1.00013444e+00
1.00008513e+00
1.00003351e+00
9.99980409e-01
9.99926777e-01
9.99873479e-01
9.99821336e-01
9.99771202e-01
9.99723850e-01
9.99679945e-01
9.99640081e-01
9.99604756e-01
9.99574345e-01
9.99549105e-01
9.99529185e-01
9.99514624e-01
9.99505353e-01
9.99501217e-01
9.99501981e-01
9.99507343e-01
9.99516954e-01
9.99530428e-01
9.99547354e-01
9.99567312e-01
9.99589882e-01
9.99614649e-01
9.99641215e-01
9.99669198e-01
9.99698242e-01
9.99728013e-01
9.99758203e-01
9.99788529e-01
9.99818733e-01
9.99848578e-01
9.99877854e-01
9.99906369e-01
9.99933951e-01
9.99960449e-01
9.99985732e-01
1.00000969e+00
1.00003222e+00
1.00005325e+00
1.00007273e+00
1.00009062e+00
1.00010691e+00
1.00012160e+00
1.00013472e+00
1.00014631e+00
1.00015644e+00
1.00016519e+00
1.00017268e+00
1.00017901e+00
1.00018432e+00
1.00018876e+00
1.00019250e+00
1.00019570e+00
1.00019853e+00
1.00020119e+00
1.00020385e+00
1.00020670e+00
1.00020993e+00
1.00021373e+00
1.00021826e+00
1.00022370e+00
1.00023022e+00
1.00023796e+00
1.00024706e+00
1.00025765e+00
1.00026982e+00
1.00028367e+00
1.00029926e+00
1.00031664e+00
1.00033580e+00
1.00035676e+00
1.00037945e+00
1.00040380e+00
1.00042971e+00
1.00045702e+00
1.00048556e+00
1.00051510e+00
1.00054540e+00
1.00057617e+00
1.00060710e+00
1.00063783e+00
1.00066800e+00
1.00069724e+00
1.00072515e+00
1.00075134e+00
1.00077544e+00
1.00079708e+00
1.00081594e+00
1.00083171e+00
1.00084415e+00
1.00085307e+00
1.00085834e+00
1.00085989e+00
1.00085771e+00
1.00085189e+00
1.00084256e+00
1.00082992e+00
1.00081423e+00
1.00079580e+00
1.00077498e+00
1.00075217e+00
1.00072779e+00
1.00070224e+00
1.00067598e+00
1.00064948e+00
1.00062313e+00
1.00059733e+00
1.00057256e+00
1.00054915e+00
1.00052741e+00
1.00050771e+00
1.00049036e+00
1.00047553e+00
1.00046347e+00
1.00045429e+00
1.00044840e+00
1.00044600e+00
1.00033026e+00
1.00032228e+00
1.00030735e+00
1.00028588e+00
1.00025828e+00
1.00022492e+00
1.00018630e+00
1.00014303e+00
1.00009588e+00
1.00004558e+00
9.99992920e-01
9.99938812e-01
9.99884135e-01
9.99829736e-01
9.99776506e-01
9.99725287e-01
9.99676827e-01
9.99631819e-01
9.99590878e-01
9.99554497e-01
9.99523059e-01
9.99496837e-01
9.99475990e-01
9.99460561e-01
9.99450491e-01
9.99445630e-01
9.99445747e-01
9.99450547e-01
9.99459683e-01
9.99472772e-01
9.99489408e-01
9.99509174e-01
9.99531653e-01
9.99556438e-01
9.99583134e-01
9.99611367e-01
9.99640788e-01
9.99671070e-01
9.99701912e-01
9.99733039e-01
9.99764199e-01
9.99795161e-01
9.99825716e-01
9.99855676e-01
9.99884870e-01
9.99913144e-01
9.99940364e-01
9.99966409e-01
9.99991180e-01
1.00001459e+00
1.00003658e+00
1.00005710e+00
1.00007612e+00
1.00009364e+00
1.00010967e+00
1.00012425e+00
1.00013744e+00
1.00014930e+00
1.00015994e+00
1.00016948e+00
1.00017802e+00
1.00018574e+00
1.00019277e+00
1.00019928e+00
1.00020545e+00