# vtk DataFile Version 2.0
LBM Flow Field - Timestep 2690
ASCII
DATASET STRUCTURED_POINTS
DIMENSIONS 128 128 1
ORIGIN 0.0 0.0 0.0
SPACING 1.0 1.0 1.0
POINT_DATA 16384
SCALARS density double 1
LOOKUP_TABLE default
1.00266809e+00
1.00266191e+00
1.00265552e+00
1.00265848e+00
1.00266121e+00
1.00266236e+00
1.00266453e+00
1.00266757e+00
1.00267033e+00
1.00267294e+00
1.00267563e+00
1.00267810e+00
1.00268007e+00
1.00268148e+00
1.00268217e+00
1.00268195e+00
1.00268065e+00
1.00267813e+00
1.00267423e+00
1.00266881e+00
1.00266173e+00
1.00265288e+00
1.00264214e+00
1.00262942e+00
1.00261463e+00
1.00259770e+00
1.00257859e+00
1.00255725e+00
1.00253365e+00
1.00250779e+00
1.00247966e+00
1.00244927e+00
1.00241667e+00
1.00238187e+00
1.00234494e+00
1.00230594e+00
1.00226492e+00
1.00222197e+00
1.00217718e+00
1.00213063e+00
1.00208242e+00
1.00203264e+00
1.00198139e+00
1.00192878e+00
1.00187490e+00
1.00181984e+00
1.00176372e+00
1.00170660e+00
1.00164858e+00
1.00158972e+00
1.00153011e+00
1.00146980e+00
1.00140884e+00
1.00134728e+00
1.00128514e+00
1.00122246e+00
1.00115925e+00
1.00109552e+00
1.00103128e+00
1.00096651e+00
1.00090123e+00
1.00083540e+00
1.00076904e+00
1.00070212e+00
1.00063465e+00
1.00056662e+00
1.00049804e+00
1.00042892e+00
1.00035928e+00
1.00028915e+00
1.00021857e+00
1.00014759e+00
1.00007628e+00
1.00000470e+00
9.99932943e-01
9.99861100e-01
9.99789272e-01
9.99717569e-01
9.99646105e-01
9.99574999e-01
9.99504374e-01
9.99434353e-01
9.99365058e-01
9.99296610e-01
9.99229123e-01
9.99162709e-01
9.99097471e-01
9.99033505e-01
9.98970900e-01
9.98909731e-01
9.98850069e-01
9.98791970e-01
9.98735482e-01
9.98680644e-01
9.98627484e-01
9.98576022e-01
9.98526270e-01
9.98478229e-01
9.98431898e-01
9.98387268e-01
9.98344325e-01
9.98303050e-01
9.98263424e-01
9.98225423e-01
9.98189023e-01
9.98154199e-01
9.98120928e-01
9.98089186e-01
9.98058950e-01
9.98030204e-01
9.98002930e-01
9.97977111e-01
9.97952737e-01
9.97929806e-01
9.97908314e-01
9.97888238e-01
9.97869593e-01
9.97852434e-01
9.97836715e-01
9.97822352e-01
9.97809594e-01
9.97798661e-01
9.97788881e-01
9.97780154e-01
9.97774524e-01
9.97771335e-01
9.97763119e-01
9.97756657e-01
1.00266037e+00
1.00265980e+00
1.00265661e+00
1.00265800e+00
1.00265992e+00
1.00266184e+00
1.00266410e+00
1.00266683e+00
1.00266963e+00
1.00267239e+00
1.00267503e+00
1.00267741e+00
1.00267937e+00
1.00268074e+00
1.00268136e+00
1.00268107e+00
1.00267971e+00
1.00267711e+00
1.00267314e+00
1.00266765e+00
1.00266051e+00
1.00265159e+00
1.00264079e+00
1.00262802e+00
1.00261318e+00
1.00259622e+00
1.00257707e+00
1.00255571e+00
1.00253209e+00
1.00250622e+00
1.00247808e+00
1.00244771e+00
1.00241511e+00
1.00238034e+00
1.00234344e+00
1.00230447e+00
1.00226350e+00
1.00222060e+00
1.00217586e+00
1.00212937e+00
1.00208123e+00
1.00203152e+00
1.00198034e+00
1.00192780e+00
1.00187400e+00
1.00181903e+00
1.00176297e+00
1.00170593e+00
1.00164798e+00
1.00158920e+00
1.00152966e+00
1.00146941e+00
1.00140851e+00
1.00134699e+00
1.00128491e+00
1.00122227e+00
1.00115909e+00
1.00109540e+00
1.00103118e+00
1.00096644e+00
1.00090117e+00
1.00083537e+00
1.00076903e+00
1.00070213e+00
1.00063468e+00
1.00056668e+00
1.00049812e+00
1.00042903e+00
1.00035942e+00
1.00028933e+00
1.00021879e+00
1.00014786e+00
1.00007660e+00
1.00000508e+00
9.99933385e-01
9.99861607e-01
9.99789846e-01
9.99718211e-01
9.99646815e-01
9.99575778e-01
9.99505219e-01
9.99435262e-01
9.99366026e-01
9.99297632e-01
9.99230194e-01
9.99163822e-01
9.99098620e-01
9.99034681e-01
9.98972095e-01
9.98910937e-01
9.98851277e-01
9.98793173e-01
9.98736673e-01
9.98681815e-01
9.98628629e-01
9.98577136e-01
9.98527347e-01
9.98479268e-01
9.98432897e-01
9.98388225e-01
9.98345242e-01
9.98303929e-01
9.98264268e-01
9.98226238e-01
9.98189815e-01
9.98154977e-01
9.98121701e-01
9.98089963e-01
9.98059744e-01
9.98031026e-01
9.98003791e-01
9.97978027e-01
9.97953723e-01
9.97930871e-01
9.97909465e-01
9.97889506e-01
9.97870999e-01
9.97853948e-01
9.97838354e-01
9.97824245e-01
9.97811684e-01
9.97800658e-01
9.97791056e-01
9.97783035e-01
9.97776982e-01
9.97772432e-01
9.97766535e-01
9.97764521e-01
1.00265240e+00
1.00265517e+00
1.00265941e+00
1.00265866e+00
1.00265899e+00
1.00266194e+00
1.00266465e+00
1.00266695e+00
1.00266970e+00
1.00267263e+00
1.00267524e+00
1.00267753e+00
1.00267946e+00
1.00268079e+00
1.00268133e+00
1.00268097e+00
1.00267953e+00
1.00267686e+00
1.00267281e+00
1.00266724e+00
1.00266002e+00
1.00265102e+00
1.00264015e+00
1.00262730e+00
1.00261240e+00
1.00259538e+00
1.00257618e+00
1.00255477e+00
1.00253111e+00
1.00250520e+00
1.00247704e+00
1.00244664e+00
1.00241404e+00
1.00237926e+00
1.00234237e+00
1.00230341e+00
1.00226246e+00
1.00221959e+00
1.00217488e+00
1.00212844e+00
1.00208033e+00
1.00203068e+00
1.00197956e+00
1.00192708e+00
1.00187334e+00
1.00181843e+00
1.00176244e+00
1.00170547e+00
1.00164758e+00
1.00158886e+00
1.00152938e+00
1.00146919e+00
1.00140834e+00
1.00134688e+00
1.00128484e+00
1.00122224e+00
1.00115910e+00
1.00109544e+00
1.00103125e+00
1.00096654e+00
1.00090129e+00
1.00083551e+00
1.00076919e+00
1.00070231e+00
1.00063488e+00
1.00056689e+00
1.00049836e+00
1.00042929e+00
1.00035971e+00
1.00028965e+00
1.00021914e+00
1.00014825e+00
1.00007703e+00
1.00000555e+00
9.99933901e-01
9.99862172e-01
9.99790462e-01
9.99718879e-01
9.99647536e-01
9.99576550e-01
9.99506042e-01
9.99436133e-01
9.99366942e-01
9.99298587e-01
9.99231184e-01
9.99164841e-01
9.99099660e-01
9.99035737e-01
9.98973157e-01
9.98911999e-01
9.98852330e-01
9.98794209e-01
9.98737683e-01
9.98682794e-01
9.98629569e-01
9.98578030e-01
9.98528191e-01
9.98480058e-01
9.98433628e-01
9.98388897e-01
9.98345853e-01
9.98304481e-01
9.98264763e-01
9.98226679e-01
9.98190208e-01
9.98155328e-01
9.98122017e-01
9.98090254e-01
9.98060021e-01
9.98031299e-01
9.98004072e-01
9.97978328e-01
9.97954060e-01
9.97931252e-01
9.97909901e-01
9.97890024e-01
9.97871612e-01
9.97854628e-01
9.97839143e-01
9.97825261e-01
9.97812785e-01
9.97801610e-01
9.97792418e-01
9.97785207e-01
9.97778017e-01
9.97771965e-01
9.97771895e-01
9.97772526e-01
1.00265484e+00
1.00265653e+00
1.00265841e+00
1.00265911e+00
1.00266111e+00
1.00266326e+00
1.00266550e+00
1.00266818e+00
1.00267102e+00
1.00267373e+00
1.00267629e+00
1.00267860e+00
1.00268044e+00
1.00268166e+00
1.00268213e+00
1.00268167e+00
1.00268013e+00
1.00267736e+00
1.00267320e+00
1.00266752e+00
1.00266020e+00
1.00265110e+00
1.00264013e+00
1.00262719e+00
1.00261220e+00
1.00259509e+00
1.00257581e+00
1.00255433e+00
1.00253061e+00
1.00250465e+00
1.00247644e+00
1.00244601e+00
1.00241338e+00
1.00237858e+00
1.00234167e+00
1.00230272e+00
1.00226177e+00
1.00221892e+00
1.00217424e+00
1.00212782e+00
1.00207976e+00
1.00203015e+00
1.00197908e+00
1.00192666e+00
1.00187297e+00
1.00181812e+00
1.00176220e+00
1.00170528e+00
1.00164745e+00
1.00158879e+00
1.00152937e+00
1.00146923e+00
1.00140843e+00
1.00134701e+00
1.00128500e+00
1.00122244e+00
1.00115933e+00
1.00109568e+00
1.00103151e+00
1.00096681e+00
1.00090158e+00
1.00083580e+00
1.00076948e+00
1.00070261e+00
1.00063518e+00
1.00056719e+00
1.00049866e+00
1.00042960e+00
1.00036003e+00
1.00028998e+00
1.00021949e+00
1.00014862e+00
1.00007742e+00
1.00000598e+00
9.99934360e-01
9.99862667e-01
9.99790997e-01
9.99719456e-01
9.99648157e-01
9.99577215e-01
9.99506751e-01
9.99436883e-01
9.99367732e-01
9.99299414e-01
9.99232042e-01
9.99165725e-01
9.99100564e-01
9.99036653e-01
9.98974079e-01
9.98912918e-01
9.98853238e-01
9.98795098e-01
9.98738544e-01
9.98683618e-01
9.98630349e-01
9.98578759e-01
9.98528861e-01
9.98480662e-01
9.98434163e-01
9.98389358e-01
9.98346237e-01
9.98304786e-01
9.98264989e-01
9.98226827e-01
9.98190280e-01
9.98155328e-01
9.98121951e-01
9.98090128e-01
9.98059841e-01
9.98031074e-01
9.98003813e-01
9.97978044e-01
9.97953759e-01
9.97930952e-01
9.97909618e-01
9.97889750e-01
9.97871364e-01
9.97854467e-01
9.97839038e-01
9.97825111e-01
9.97812776e-01
9.97801930e-01
9.97792473e-01
9.97784782e-01
9.97778887e-01
9.97773859e-01
9.97771700e-01
9.97771680e-01
1.00265854e+00
1.00265907e+00
1.00265928e+00
1.00266172e+00
1.00266401e+00
1.00266534e+00
1.00266768e+00
1.00267063e+00
1.00267330e+00
1.00267583e+00
1.00267838e+00
1.00268061e+00
1.00268232e+00
1.00268342e+00
1.00268378e+00
1.00268319e+00
1.00268151e+00
1.00267860e+00
1.00267431e+00
1.00266849e+00
1.00266103e+00
1.00265180e+00
1.00264070e+00
1.00262763e+00
1.00261252e+00
1.00259531e+00
1.00257593e+00
1.00255435e+00
1.00253054e+00
1.00250451e+00
1.00247624e+00
1.00244575e+00
1.00241307e+00
1.00237825e+00
1.00234132e+00
1.00230235e+00
1.00226140e+00
1.00221856e+00
1.00217390e+00
1.00212751e+00
1.00207948e+00
1.00202991e+00
1.00197889e+00
1.00192651e+00
1.00187288e+00
1.00181809e+00
1.00176222e+00
1.00170536e+00
1.00164760e+00
1.00158899e+00
1.00152961e+00
1.00146951e+00
1.00140875e+00
1.00134737e+00
1.00128539e+00
1.00122284e+00
1.00115975e+00
1.00109611e+00
1.00103194e+00
1.00096724e+00
1.00090199e+00
1.00083621e+00
1.00076987e+00
1.00070298e+00
1.00063553e+00
1.00056753e+00
1.00049899e+00
1.00042991e+00
1.00036033e+00
1.00029028e+00
1.00021979e+00
1.00014893e+00
1.00007774e+00
1.00000631e+00
9.99934720e-01
9.99863056e-01
9.99791418e-01
9.99719914e-01
9.99648654e-01
9.99577753e-01
9.99507331e-01
9.99437505e-01
9.99368393e-01
9.99300112e-01
9.99232773e-01
9.99166483e-01
9.99101344e-01
9.99037447e-01
9.98974879e-01
9.98913715e-01
9.98854023e-01
9.98795860e-01
9.98739275e-01
9.98684307e-01
9.98630987e-01
9.98579335e-01
9.98529367e-01
9.98481090e-01
9.98434505e-01
9.98389607e-01
9.98346387e-01
9.98304834e-01
9.98264932e-01
9.98226662e-01
9.98190008e-01
9.98154950e-01
9.98121469e-01
9.98089547e-01
9.98059167e-01
9.98030313e-01
9.98002973e-01
9.97977135e-01
9.97952788e-01
9.97929932e-01
9.97908565e-01
9.97888668e-01
9.97870251e-01
9.97853367e-01
9.97837986e-01
9.97824007e-01
9.97811616e-01
9.97801018e-01
9.97791700e-01
9.97783423e-01
9.97777692e-01
9.97774051e-01
9.97770739e-01
9.97769630e-01
1.00266187e+00
1.00266283e+00
1.00266384e+00
1.00266535e+00
1.00266680e+00
1.00266894e+00
1.00267151e+00
1.00267391e+00
1.00267643e+00
1.00267908e+00
1.00268149e+00
1.00268351e+00
1.00268510e+00
1.00268608e+00
1.00268627e+00
1.00268551e+00
1.00268367e+00
1.00268059e+00
1.00267612e+00
1.00267013e+00
1.00266250e+00
1.00265311e+00
1.00264185e+00
1.00262863e+00
1.00261337e+00
1.00259602e+00
1.00257651e+00
1.00255481e+00
1.00253090e+00
1.00250477e+00
1.00247642e+00
1.00244586e+00
1.00241312e+00
1.00237825e+00
1.00234128e+00
1.00230229e+00
1.00226133e+00
1.00221849e+00
1.00217384e+00
1.00212747e+00
1.00207947e+00
1.00202993e+00
1.00197895e+00
1.00192663e+00
1.00187305e+00
1.00181831e+00
1.00176249e+00
1.00170569e+00
1.00164797e+00
1.00158941e+00
1.00153008e+00
1.00147002e+00
1.00140929e+00
1.00134793e+00
1.00128597e+00
1.00122343e+00
1.00116034e+00
1.00109669e+00
1.00103251e+00
1.00096779e+00
1.00090252e+00
1.00083670e+00
1.00077033e+00
1.00070341e+00
1.00063593e+00
1.00056789e+00
1.00049932e+00
1.00043022e+00
1.00036061e+00
1.00029054e+00
1.00022004e+00
1.00014916e+00
1.00007798e+00
1.00000656e+00
9.99934978e-01
9.99863334e-01
9.99791722e-01
9.99720249e-01
9.99649024e-01
9.99578162e-01
9.99507779e-01
9.99437993e-01
9.99368921e-01
9.99300676e-01
9.99233371e-01
9.99167110e-01
9.99101992e-01
9.99038110e-01
9.98975548e-01
9.98914381e-01
9.98854675e-01
9.98796488e-01
9.98739867e-01
9.98684852e-01
9.98631472e-01
9.98579750e-01
9.98529700e-01
9.98481331e-01
9.98434643e-01
9.98389634e-01
9.98346296e-01
9.98304617e-01
9.98264584e-01
9.98226180e-01
9.98189389e-01
9.98154192e-01
9.98120574e-01
9.98088516e-01
9.98058005e-01
9.98029025e-01
9.98001564e-01
9.97975615e-01
9.97951169e-01
9.97928215e-01
9.97906757e-01
9.97886807e-01
9.97868342e-01
9.97851355e-01
9.97835926e-01
9.97822058e-01
9.97809603e-01
9.97798659e-01
9.97789536e-01
9.97781865e-01
9.97775505e-01
9.97771153e-01
9.97768385e-01
9.97767514e-01
1.00266693e+00
1.00266771e+00
1.00266904e+00
1.00266996e+00
1.00267143e+00
1.00267378e+00
1.00267596e+00
1.00267819e+00
1.00268078e+00
1.00268327e+00
1.00268544e+00
1.00268733e+00
1.00268878e+00
1.00268956e+00
1.00268955e+00
1.00268860e+00
1.00268657e+00
1.00268328e+00
1.00267861e+00
1.00267242e+00
1.00266459e+00
1.00265501e+00
1.00264356e+00
1.00263016e+00
1.00261473e+00
1.00259721e+00
1.00257755e+00
1.00255572e+00
1.00253168e+00
1.00250543e+00
1.00247697e+00
1.00244632e+00
1.00241351e+00
1.00237857e+00
1.00234156e+00
1.00230254e+00
1.00226156e+00
1.00221870e+00
1.00217405e+00
1.00212770e+00
1.00207972e+00
1.00203021e+00
1.00197927e+00
1.00192699e+00
1.00187345e+00
1.00181876e+00
1.00176299e+00
1.00170624e+00
1.00164856e+00
1.00159005e+00
1.00153074e+00
1.00147072e+00
1.00141001e+00
1.00134866e+00
1.00128671e+00
1.00122417e+00
1.00116107e+00
1.00109741e+00
1.00103320e+00
1.00096844e+00
1.00090313e+00
1.00083727e+00
1.00077085e+00
1.00070387e+00
1.00063634e+00
1.00056826e+00
1.00049963e+00
1.00043049e+00
1.00036084e+00
1.00029073e+00
1.00022021e+00
1.00014931e+00
1.00007812e+00
1.00000669e+00
9.99935119e-01
9.99863487e-01
9.99791895e-01
9.99720447e-01
9.99649253e-01
9.99578426e-01
9.99508081e-01
9.99438335e-01
9.99369302e-01
9.99301095e-01
9.99233823e-01
9.99167591e-01
9.99102496e-01
9.99038629e-01
9.98976072e-01
9.98914901e-01
9.98855180e-01
9.98796965e-01
9.98740304e-01
9.98685235e-01
9.98631789e-01
9.98579988e-01
9.98529845e-01
9.98481371e-01
9.98434566e-01
9.98389429e-01
9.98345952e-01
9.98304126e-01
9.98263938e-01
9.98225373e-01
9.98188416e-01
9.98153051e-01
9.98119263e-01
9.98087037e-01
9.98056358e-01
9.98027216e-01
9.97999597e-01
9.97973495e-01
9.97948908e-01
9.97925825e-01
9.97904238e-01
9.97884164e-01
9.97865618e-01
9.97848556e-01
9.97832986e-01
9.97819032e-01
9.97806646e-01
9.97795607e-01
9.97786196e-01
9.97778673e-01
9.97772372e-01
9.97767562e-01
9.97764986e-01
9.97763939e-01
1.00267374e+00
1.00267406e+00
1.00267473e+00
1.00267588e+00
1.00267754e+00
1.00267930e+00
1.00268129e+00
1.00268370e+00
1.00268607e+00
1.00268824e+00
1.00269029e+00
1.00269205e+00
1.00269325e+00
1.00269381e+00
1.00269359e+00
1.00269243e+00
1.00269015e+00
1.00268664e+00
1.00268174e+00
1.00267533e+00
1.00266727e+00
1.00265746e+00
1.00264580e+00
1.00263220e+00
1.00261657e+00
1.00259887e+00
1.00257904e+00
1.00255704e+00
1.00253285e+00
1.00250647e+00
1.00247789e+00
1.00244714e+00
1.00241424e+00
1.00237923e+00
1.00234215e+00
1.00230308e+00
1.00226207e+00
1.00221920e+00
1.00217454e+00
1.00212819e+00
1.00208023e+00
1.00203074e+00
1.00197983e+00
1.00192758e+00
1.00187409e+00
1.00181944e+00
1.00176372e+00
1.00170700e+00
1.00164937e+00
1.00159088e+00
1.00153161e+00
1.00147160e+00
1.00141091e+00
1.00134957e+00
1.00128761e+00
1.00122505e+00
1.00116192e+00
1.00109823e+00
1.00103398e+00
1.00096917e+00
1.00090380e+00
1.00083788e+00
1.00077140e+00
1.00070435e+00
1.00063675e+00
1.00056860e+00
1.00049991e+00
1.00043070e+00
1.00036100e+00
1.00029085e+00
1.00022028e+00
1.00014936e+00
1.00007814e+00
1.00000670e+00
9.99935121e-01
9.99863494e-01
9.99791915e-01
9.99720488e-01
9.99649321e-01
9.99578527e-01
9.99508218e-01
9.99438510e-01
9.99369516e-01
9.99301346e-01
9.99234110e-01
9.99167908e-01
9.99102837e-01
9.99038986e-01
9.98976436e-01
9.98915261e-01
9.98855523e-01
9.98797279e-01
9.98740576e-01
9.98685450e-01
9.98631932e-01
9.98580044e-01
9.98529800e-01
9.98481210e-01
9.98434275e-01
9.98388995e-01
9.98345363e-01
9.98303370e-01
9.98263006e-01
9.98224256e-01
9.98187109e-01
9.98151548e-01
9.98117561e-01
9.98085135e-01
9.98054256e-01
9.98024916e-01
9.97997107e-01
9.97970817e-01
9.97946043e-01
9.97922791e-01
9.97901054e-01
9.97880815e-01
9.97862101e-01
9.97844947e-01
9.97829298e-01
9.97815127e-01
9.97802590e-01
9.97791675e-01
9.97782135e-01
9.97774186e-01
9.97768003e-01
9.97763314e-01
9.97760226e-01
9.97758845e-01
1.00268112e+00
1.00268127e+00
1.00268174e+00
1.00268288e+00
1.00268428e+00
1.00268582e+00
1.00268784e+00
1.00269002e+00
1.00269208e+00
1.00269414e+00
1.00269603e+00
1.00269751e+00
1.00269847e+00
1.00269881e+00
1.00269835e+00
1.00269692e+00
1.00269439e+00
1.00269063e+00
1.00268547e+00
1.00267880e+00
1.00267049e+00
1.00266044e+00
1.00264854e+00
1.00263471e+00
1.00261887e+00
1.00260096e+00
1.00258094e+00
1.00255876e+00
1.00253441e+00
1.00250788e+00
1.00247916e+00
1.00244829e+00
1.00241529e+00
1.00238019e+00
1.00234305e+00
1.00230392e+00
1.00226287e+00
1.00221997e+00
1.00217531e+00
1.00212895e+00
1.00208099e+00
1.00203153e+00
1.00198064e+00
1.00192842e+00
1.00187496e+00
1.00182035e+00
1.00176466e+00
1.00170798e+00
1.00165037e+00
1.00159192e+00
1.00153266e+00
1.00147267e+00
1.00141197e+00
1.00135062e+00
1.00128864e+00
1.00122606e+00
1.00116289e+00
1.00109915e+00
1.00103484e+00
1.00096997e+00
1.00090453e+00
1.00083852e+00
1.00077196e+00
1.00070483e+00
1.00063714e+00
1.00056891e+00
1.00050013e+00
1.00043085e+00
1.00036108e+00
1.00029086e+00
1.00022024e+00
1.00014927e+00
1.00007801e+00
1.00000655e+00
9.99934959e-01
9.99863329e-01
9.99791758e-01
9.99720346e-01
9.99649203e-01
9.99578439e-01
9.99508165e-01
9.99438495e-01
9.99369540e-01
9.99301410e-01
9.99234210e-01
9.99168040e-01
9.99102995e-01
9.99039161e-01
9.98976620e-01
9.98915441e-01
9.98855687e-01
9.98797414e-01
9.98740665e-01
9.98685479e-01
9.98631885e-01
9.98579904e-01
9.98529550e-01
9.98480834e-01
9.98433757e-01
9.98388320e-01
9.98344517e-01
9.98302340e-01
9.98261780e-01
9.98222824e-01
9.98185462e-01
9.98149680e-01
9.98115467e-01
9.98082811e-01
9.98051703e-01
9.98022133e-01
9.97994096e-01
9.97967588e-01
9.97942600e-01
9.97919132e-01
9.97897196e-01
9.97876787e-01
9.97857885e-01
9.97840527e-01
9.97824753e-01
9.97810489e-01
9.97797730e-01
9.97786640e-01
9.97777111e-01
9.97768993e-01
9.97762582e-01
9.97757877e-01
9.97754634e-01
9.97753067e-01
1.00268927e+00
1.00268940e+00
1.00268990e+00
1.00269070e+00
1.00269182e+00
1.00269341e+00
1.00269523e+00
1.00269705e+00
1.00269899e+00
1.00270089e+00
1.00270247e+00
1.00270368e+00
1.00270443e+00
1.00270451e+00
1.00270375e+00
1.00270205e+00
1.00269925e+00
1.00269520e+00
1.00268976e+00
1.00268281e+00
1.00267423e+00
1.00266391e+00
1.00265176e+00
1.00263768e+00
1.00262160e+00
1.00260347e+00
1.00258324e+00
1.00256086e+00
1.00253633e+00
1.00250964e+00
1.00248078e+00
1.00244978e+00
1.00241666e+00
1.00238147e+00
1.00234425e+00
1.00230506e+00
1.00226396e+00
1.00222103e+00
1.00217634e+00
1.00212998e+00
1.00208202e+00
1.00203257e+00
1.00198170e+00
1.00192950e+00
1.00187607e+00
1.00182149e+00
1.00176583e+00
1.00170917e+00
1.00165159e+00
1.00159314e+00
1.00153390e+00
1.00147390e+00
1.00141320e+00
1.00135183e+00
1.00128982e+00
1.00122719e+00
1.00116397e+00
1.00110016e+00
1.00103577e+00
1.00097081e+00
1.00090528e+00
1.00083918e+00
1.00077251e+00
1.00070528e+00
1.00063748e+00
1.00056914e+00
1.00050027e+00
1.00043089e+00
1.00036103e+00
1.00029074e+00
1.00022005e+00
1.00014902e+00
1.00007772e+00
1.00000622e+00
9.99934609e-01
9.99862969e-01
9.99791398e-01
9.99719998e-01
9.99648875e-01
9.99578139e-01
9.99507899e-01
9.99438267e-01
9.99369353e-01
9.99301263e-01
9.99234101e-01
9.99167966e-01
9.99102949e-01
9.99039137e-01
9.98976605e-01
9.98915425e-01
9.98855657e-01
9.98797354e-01
9.98740561e-01
9.98685313e-01
9.98631639e-01
9.98579560e-01
9.98529091e-01
9.98480241e-01
9.98433014e-01
9.98387408e-01
9.98343420e-01
9.98301044e-01
9.98260271e-01
9.98221090e-01
9.98183492e-01
9.98147465e-01
9.98113001e-01
9.98080090e-01
9.98048724e-01
9.98018897e-01
9.97990601e-01
9.97963838e-01
9.97938607e-01
9.97914901e-01
9.97892720e-01
9.97872088e-01
9.97853001e-01
9.97835430e-01
9.97819417e-01
9.97805018e-01
9.97792146e-01
9.97780787e-01
9.97771091e-01
9.97762978e-01
9.97756352e-01
9.97751374e-01
9.97748095e-01
9.97746479e-01
1.00269843e+00
1.00269838e+00
1.00269873e+00
1.00269936e+00
1.00270038e+00
1.00270176e+00
1.00270329e+00
1.00270496e+00
1.00270671e+00
1.00270829e+00
1.00270961e+00
1.00271060e+00
1.00271105e+00
1.00271082e+00
1.00270977e+00
1.00270778e+00
1.00270467e+00
1.00270031e+00
1.00269457e+00
1.00268732e+00
1.00267845e+00
1.00266784e+00
1.00265541e+00
1.00264107e+00
1.00262474e+00
1.00260637e+00
1.00258591e+00
1.00256333e+00
1.00253861e+00
1.00251174e+00
1.00248273e+00
1.00245159e+00
1.00241835e+00
1.00238305e+00
1.00234575e+00
1.00230648e+00
1.00226533e+00
1.00222236e+00
1.00217764e+00
1.00213127e+00
1.00208331e+00
1.00203386e+00
1.00198300e+00
1.00193083e+00
1.00187741e+00
1.00182285e+00
1.00176721e+00
1.00171057e+00
1.00165300e+00
1.00159456e+00
1.00153531e+00
1.00147530e+00
1.00141457e+00
1.00135316e+00
1.00129111e+00
1.00122842e+00
1.00116512e+00
1.00110123e+00
1.00103675e+00
1.00097169e+00
1.00090605e+00
1.00083983e+00
1.00077304e+00
1.00070568e+00
1.00063776e+00
1.00056930e+00
1.00050031e+00
1.00043081e+00
1.00036085e+00
1.00029046e+00
1.00021969e+00
1.00014859e+00
1.00007723e+00
1.00000569e+00
9.99934044e-01
9.99862387e-01
9.99790811e-01
9.99719418e-01
9.99648312e-01
9.99577601e-01
9.99507395e-01
9.99437801e-01
9.99368928e-01
9.99300881e-01
9.99233761e-01
9.99167663e-01
9.99102678e-01
9.99038889e-01
9.98976370e-01
9.98915191e-01
9.98855411e-01
9.98797080e-01
9.98740241e-01
9.98684930e-01
9.98631174e-01
9.98578994e-01
9.98528405e-01
9.98479414e-01
9.98432026e-01
9.98386242e-01
9.98342058e-01
9.98299468e-01
9.98258465e-01
9.98219042e-01
9.98181188e-01
9.98144897e-01
9.98110159e-01
9.98076968e-01
9.98045318e-01
9.98015206e-01
9.97986629e-01
9.97959582e-01
9.97934070e-01
9.97910099e-01
9.97887662e-01
9.97866762e-01
9.97847427e-01
9.97829655e-01
9.97813417e-01
9.97798763e-01
9.97785728e-01
9.97774230e-01
9.97764294e-01
9.97756009e-01
9.97749279e-01
9.97744144e-01
9.97740726e-01
9.97738949e-01
1.00270840e+00
1.00270818e+00
1.00270831e+00
1.00270883e+00
1.00270970e+00
1.00271079e+00
1.00271212e+00
1.00271362e+00
1.00271506e+00
1.00271636e+00
1.00271744e+00
1.00271813e+00
1.00271825e+00
1.00271771e+00
1.00271637e+00
1.00271404e+00
1.00271060e+00
1.00270591e+00
1.00269985e+00
1.00269229e+00
1.00268310e+00
1.00267220e+00
1.00265948e+00
1.00264485e+00
1.00262826e+00
1.00260964e+00
1.00258894e+00
1.00256614e+00
1.00254122e+00
1.00251417e+00
1.00248499e+00
1.00245370e+00
1.00242034e+00
1.00238493e+00
1.00234753e+00
1.00230820e+00
1.00226698e+00
1.00222397e+00
1.00217922e+00
1.00213282e+00
1.00208486e+00
1.00203540e+00
1.00198455e+00
1.00193239e+00
1.00187899e+00
1.00182443e+00
1.00176880e+00
1.00171217e+00
1.00165460e+00
1.00159615e+00
1.00153689e+00
1.00147685e+00
1.00141608e+00
1.00135463e+00
1.00129250e+00
1.00122974e+00
1.00116635e+00
1.00110236e+00
1.00103776e+00
1.00097257e+00
1.00090680e+00
1.00084044e+00
1.00077351e+00
1.00070600e+00
1.00063794e+00
1.00056934e+00
1.00050021e+00
1.00043059e+00
1.00036050e+00
1.00029000e+00
1.00021913e+00
1.00014795e+00
1.00007652e+00
1.00000492e+00
9.99933240e-01
9.99861557e-01
9.99789971e-01
9.99718580e-01
9.99647489e-01
9.99576803e-01
9.99506629e-01
9.99437075e-01
9.99368245e-01
9.99300243e-01
9.99233167e-01
9.99167111e-01
9.99102161e-01
9.99038399e-01
9.98975898e-01
9.98914724e-01
9.98854934e-01
9.98796577e-01
9.98739695e-01
9.98684322e-01
9.98630484e-01
9.98578201e-01
9.98527488e-01
9.98478352e-01
9.98430799e-01
9.98384828e-01
9.98340437e-01
9.98297623e-01
9.98256378e-01
9.98216697e-01
9.98178572e-01
9.98141997e-01
9.98106966e-01
9.98073476e-01
9.98041520e-01
9.98011098e-01
9.97982212e-01
9.97954860e-01
9.97929043e-01
9.97904769e-01
9.97882049e-01
9.97860876e-01
9.97841254e-01
9.97823220e-01
9.97806767e-01
9.97791869e-01
9.97778576e-01
9.97766913e-01
9.97756804e-01
9.97748280e-01
9.97741402e-01
9.97736152e-01
9.97732543e-01
9.97730605e-01
1.00271901e+00
1.00271866e+00
1.00271865e+00
1.00271900e+00
1.00271963e+00
1.00272054e+00
1.00272167e+00
1.00272287e+00
1.00272403e+00
1.00272508e+00
1.00272586e+00
1.00272620e+00
1.00272602e+00
1.00272516e+00
1.00272346e+00
1.00272078e+00
1.00271700e+00
1.00271198e+00
1.00270557e+00
1.00269767e+00
1.00268816e+00
1.00267694e+00
1.00266391e+00
1.00264900e+00
1.00263212e+00
1.00261324e+00
1.00259230e+00
1.00256928e+00
1.00254414e+00
1.00251690e+00
1.00248755e+00
1.00245612e+00
1.00242262e+00
1.00238710e+00
1.00234960e+00
1.00231018e+00
1.00226891e+00
1.00222584e+00
1.00218106e+00
1.00213463e+00
1.00208665e+00
1.00203720e+00
1.00198634e+00
1.00193418e+00
1.00188078e+00
1.00182623e+00
1.00177061e+00
1.00171397e+00
1.00165639e+00
1.00159792e+00
1.00153862e+00
1.00147854e+00
1.00141772e+00
1.00135619e+00
1.00129399e+00
1.00123113e+00
1.00116763e+00
1.00110351e+00
1.00103878e+00
1.00097345e+00
1.00090752e+00
1.00084100e+00
1.00077390e+00
1.00070624e+00
1.00063801e+00
1.00056924e+00
1.00049996e+00
1.00043019e+00
1.00035997e+00
1.00028934e+00
1.00021835e+00
1.00014707e+00
1.00007556e+00
1.00000390e+00
9.99932169e-01
9.99860455e-01
9.99788852e-01
9.99717460e-01
9.99646380e-01
9.99575717e-01
9.99505577e-01
9.99436063e-01
9.99367279e-01
9.99299325e-01
9.99232297e-01
9.99166285e-01
9.99101375e-01
9.99037645e-01
9.98975166e-01
9.98914001e-01
9.98854205e-01
9.98795825e-01
9.98738902e-01
9.98683468e-01
9.98629548e-01
9.98577161e-01
9.98526322e-01
9.98477038e-01
9.98429313e-01
9.98383149e-01
9.98338545e-01
9.98295496e-01
9.98253998e-01
9.98214046e-01
9.98175635e-01
9.98138761e-01
9.98103420e-01
9.98069609e-01
9.98037329e-01
9.98006578e-01
9.97977358e-01
9.97949677e-01
9.97923537e-01
9.97898940e-01
9.97875899e-01
9.97854429e-01
9.97834523e-01
9.97816190e-01
9.97799464e-01
9.97784340e-01
9.97770799e-01
9.97758884e-01
9.97748594e-01
9.97739889e-01
9.97732812e-01
9.97727400e-01
9.97723655e-01
9.97721588e-01
1.00273026e+00
1.00272978e+00
1.00272963e+00
1.00272977e+00
1.00273020e+00
1.00273091e+00
1.00273177e+00
1.00273269e+00
1.00273359e+00
1.00273434e+00
1.00273477e+00
1.00273480e+00
1.00273428e+00
1.00273306e+00
1.00273099e+00
1.00272797e+00
1.00272383e+00
1.00271844e+00
1.00271168e+00
1.00270343e+00
1.00269358e+00
1.00268203e+00
1.00266868e+00
1.00265347e+00
1.00263631e+00
1.00261715e+00
1.00259596e+00
1.00257270e+00
1.00254736e+00
1.00251992e+00
1.00249040e+00
1.00245880e+00
1.00242517e+00
1.00238953e+00
1.00235194e+00
1.00231244e+00
1.00227109e+00
1.00222797e+00
1.00218315e+00
1.00213670e+00
1.00208870e+00
1.00203923e+00
1.00198837e+00
1.00193620e+00
1.00188280e+00
1.00182824e+00
1.00177260e+00
1.00171595e+00
1.00165834e+00
1.00159984e+00
1.00154050e+00
1.00148036e+00
1.00141947e+00
1.00135785e+00
1.00129554e+00
1.00123257e+00
1.00116894e+00
1.00110468e+00
1.00103979e+00
1.00097429e+00
1.00090819e+00
1.00084149e+00
1.00077420e+00
1.00070635e+00
1.00063793e+00
1.00056898e+00
1.00049952e+00
1.00042959e+00
1.00035921e+00
1.00028844e+00
1.00021733e+00
1.00014594e+00
1.00007433e+00
1.00000260e+00
9.99930809e-01
9.99859056e-01
9.99787431e-01
9.99716034e-01
9.99644964e-01
9.99574325e-01
9.99504218e-01
9.99434746e-01
9.99366011e-01
9.99298108e-01
9.99231132e-01
9.99165171e-01
9.99100307e-01
9.99036615e-01
9.98974163e-01
9.98913012e-01
9.98853215e-01
9.98794818e-01
9.98737858e-01
9.98682366e-01
9.98628367e-01
9.98575878e-01
9.98524913e-01
9.98475479e-01
9.98427581e-01
9.98381221e-01
9.98336396e-01
9.98293106e-01
9.98251347e-01
9.98211115e-01
9.98172407e-01
9.98135221e-01
9.98099555e-01
9.98065409e-01
9.98032786e-01
9.98001688e-01
9.97972120e-01
9.97944086e-01
9.97917599e-01
9.97892664e-01
9.97869286e-01
9.97847483e-01
9.97827270e-01
9.97808642e-01
9.97791613e-01
9.97776216e-01
9.97762439e-01
9.97750272e-01
9.97739748e-01
9.97730862e-01
9.97723598e-01
9.97717999e-01
9.97714111e-01
9.97711919e-01
1.00274208e+00
1.00274145e+00
1.00274114e+00
1.00274109e+00
1.00274133e+00
1.00274179e+00
1.00274238e+00
1.00274304e+00
1.00274365e+00
1.00274405e+00
1.00274416e+00
1.00274385e+00
1.00274296e+00
1.00274136e+00
1.00273894e+00
1.00273553e+00
1.00273101e+00
1.00272525e+00
1.00271812e+00
1.00270951e+00
1.00269931e+00
1.00268742e+00
1.00267375e+00
1.00265822e+00
1.00264077e+00
1.00262134e+00
1.00259989e+00
1.00257640e+00
1.00255084e+00
1.00252320e+00
1.00249350e+00
1.00246175e+00
1.00242798e+00
1.00239222e+00
1.00235452e+00
1.00231494e+00
1.00227352e+00
1.00223035e+00
1.00218548e+00
1.00213900e+00
1.00209097e+00
1.00204148e+00
1.00199061e+00
1.00193843e+00
1.00188501e+00
1.00183044e+00
1.00177478e+00
1.00171810e+00
1.00166045e+00
1.00160191e+00
1.00154250e+00
1.00148229e+00
1.00142130e+00
1.00135958e+00
1.00129715e+00
1.00123404e+00
1.00117026e+00
1.00110583e+00
1.00104077e+00
1.00097508e+00
1.00090877e+00
1.00084187e+00
1.00077438e+00
1.00070631e+00
1.00063769e+00
1.00056854e+00
1.00049889e+00
1.00042876e+00
1.00035821e+00
1.00028728e+00
1.00021603e+00
1.00014452e+00
1.00007281e+00
1.00000099e+00
9.99929136e-01
9.99857338e-01
9.99785688e-01
9.99714282e-01
9.99643221e-01
9.99572603e-01
9.99502531e-01
9.99433104e-01
9.99364420e-01
9.99296574e-01
9.99229655e-01
9.99163750e-01
9.99098937e-01
9.99035288e-01
9.98972870e-01
9.98911739e-01
9.98851948e-01
9.98793538e-01
9.98736545e-01
9.98681000e-01
9.98626924e-01
9.98574335e-01
9.98523245e-01
9.98473661e-01
9.98425589e-01
9.98379028e-01
9.98333981e-01
9.98290444e-01
9.98248416e-01
9.98207895e-01
9.98168880e-01
9.98131371e-01
9.98095368e-01
9.98060875e-01
9.98027894e-01
9.97996434e-01
9.97966500e-01
9.97938101e-01
9.97911247e-01
9.97885952e-01
9.97862227e-01
9.97840077e-01
9.97819525e-01
9.97800586e-01
9.97783259e-01
9.97767560e-01
9.97753514e-01
9.97741110e-01
9.97730346e-01
9.97721240e-01
9.97713794e-01
9.97708030e-01
9.97703985e-01
9.97701651e-01
1.00275438e+00
1.00275361e+00
1.00275312e+00
1.00275290e+00
1.00275291e+00
1.00275312e+00
1.00275346e+00
1.00275383e+00
1.00275410e+00
1.00275418e+00
1.00275395e+00
1.00275326e+00
1.00275200e+00
1.00275003e+00
1.00274721e+00
1.00274341e+00
1.00273850e+00
1.00273236e+00
1.00272485e+00
1.00271587e+00
1.00270531e+00
1.00269307e+00
1.00267907e+00
1.00266322e+00
1.00264548e+00
1.00262577e+00
1.00260406e+00
1.00258032e+00
1.00255454e+00
1.00252671e+00
1.00249683e+00
1.00246492e+00
1.00243101e+00
1.00239513e+00
1.00235733e+00
1.00231766e+00
1.00227618e+00
1.00223295e+00
1.00218803e+00
1.00214151e+00
1.00209346e+00
1.00204395e+00
1.00199305e+00
1.00194085e+00
1.00188741e+00
1.00183282e+00
1.00177712e+00
1.00172040e+00
1.00166270e+00
1.00160409e+00
1.00154461e+00
1.00148430e+00
1.00142321e+00
1.00136137e+00
1.00129879e+00
1.00123552e+00
1.00117157e+00
1.00110695e+00
1.00104169e+00
1.00097578e+00
1.00090926e+00
1.00084213e+00
1.00077441e+00
1.00070611e+00
1.00063726e+00