# vtk DataFile Version 2.0
LBM Flow Field - Timestep 2510
ASCII
DATASET STRUCTURED_POINTS
DIMENSIONS 128 128 1
ORIGIN 0.0 0.0 0.0
SPACING 1.0 1.0 1.0
POINT_DATA 16384
SCALARS density double 1
LOOKUP_TABLE default
9.97336950e-01
9.97341025e-01
9.97345949e-01
9.97350315e-01
9.97356349e-01
9.97364197e-01
9.97373732e-01
9.97384943e-01
9.97397928e-01
9.97412697e-01
9.97429254e-01
9.97447647e-01
9.97467931e-01
9.97490142e-01
9.97514316e-01
9.97540498e-01
9.97568724e-01
9.97599022e-01
9.97631420e-01
9.97665939e-01
9.97702592e-01
9.97741383e-01
9.97782308e-01
9.97825352e-01
9.97870489e-01
9.97917680e-01
9.97966876e-01
9.98018015e-01
9.98071023e-01
9.98125817e-01
9.98182302e-01
9.98240374e-01
9.98299925e-01
9.98360837e-01
9.98422993e-01
9.98486272e-01
9.98550555e-01
9.98615725e-01
9.98681672e-01
9.98748290e-01
9.98815485e-01
9.98883170e-01
9.98951270e-01
9.99019724e-01
9.99088480e-01
9.99157503e-01
9.99226766e-01
9.99296257e-01
9.99365973e-01
9.99435923e-01
9.99506124e-01
9.99576598e-01
9.99647375e-01
9.99718487e-01
9.99789968e-01
9.99861852e-01
9.99934170e-01
1.00000695e+00
1.00008022e+00
1.00015399e+00
1.00022827e+00
1.00030305e+00
1.00037834e+00
1.00045410e+00
1.00053031e+00
1.00060692e+00
1.00068388e+00
1.00076112e+00
1.00083858e+00
1.00091617e+00
1.00099379e+00
1.00107136e+00
1.00114876e+00
1.00122590e+00
1.00130266e+00
1.00137893e+00
1.00145460e+00
1.00152956e+00
1.00160370e+00
1.00167692e+00
1.00174912e+00
1.00182020e+00
1.00189009e+00
1.00195871e+00
1.00202598e+00
1.00209184e+00
1.00215624e+00
1.00221914e+00
1.00228050e+00
1.00234028e+00
1.00239848e+00
1.00245506e+00
1.00251003e+00
1.00256337e+00
1.00261508e+00
1.00266517e+00
1.00271364e+00
1.00276048e+00
1.00280572e+00
1.00284934e+00
1.00289136e+00
1.00293179e+00
1.00297061e+00
1.00300784e+00
1.00304348e+00
1.00307752e+00
1.00310997e+00
1.00314082e+00
1.00317008e+00
1.00319773e+00
1.00322379e+00
1.00324825e+00
1.00327111e+00
1.00329238e+00
1.00331206e+00
1.00333016e+00
1.00334670e+00
1.00336170e+00
1.00337516e+00
1.00338705e+00
1.00339748e+00
1.00340655e+00
1.00341387e+00
1.00341940e+00
1.00342435e+00
1.00342835e+00
1.00342821e+00
1.00342788e+00
9.97342362e-01
9.97345543e-01
9.97350114e-01
9.97354916e-01
9.97361484e-01
9.97369538e-01
9.97379245e-01
9.97390647e-01
9.97403802e-01
9.97418724e-01
9.97435443e-01
9.97454001e-01
9.97474437e-01
9.97496792e-01
9.97521103e-01
9.97547407e-01
9.97575738e-01
9.97606126e-01
9.97638595e-01
9.97673164e-01
9.97709844e-01
9.97748641e-01
9.97789546e-01
9.97832546e-01
9.97877613e-01
9.97924710e-01
9.97973787e-01
9.98024784e-01
9.98077629e-01
9.98132239e-01
9.98188522e-01
9.98246378e-01
9.98305699e-01
9.98366373e-01
9.98428284e-01
9.98491316e-01
9.98555352e-01
9.98620278e-01
9.98685987e-01
9.98752376e-01
9.98819352e-01
9.98886831e-01
9.98954739e-01
9.99023014e-01
9.99091608e-01
9.99160482e-01
9.99229611e-01
9.99298981e-01
9.99368588e-01
9.99438440e-01
9.99508551e-01
9.99578942e-01
9.99649639e-01
9.99720674e-01
9.99792078e-01
9.99863882e-01
9.99936116e-01
1.00000881e+00
1.00008197e+00
1.00015563e+00
1.00022979e+00
1.00030445e+00
1.00037958e+00
1.00045519e+00
1.00053122e+00
1.00060764e+00
1.00068440e+00
1.00076143e+00
1.00083866e+00
1.00091600e+00
1.00099337e+00
1.00107068e+00
1.00114781e+00
1.00122467e+00
1.00130114e+00
1.00137712e+00
1.00145249e+00
1.00152715e+00
1.00160099e+00
1.00167391e+00
1.00174581e+00
1.00181659e+00
1.00188619e+00
1.00195451e+00
1.00202150e+00
1.00208708e+00
1.00215122e+00
1.00221386e+00
1.00227497e+00
1.00233452e+00
1.00239249e+00
1.00244886e+00
1.00250363e+00
1.00255679e+00
1.00260834e+00
1.00265828e+00
1.00270662e+00
1.00275335e+00
1.00279849e+00
1.00284204e+00
1.00288400e+00
1.00292439e+00
1.00296320e+00
1.00300044e+00
1.00303610e+00
1.00307018e+00
1.00310269e+00
1.00313363e+00
1.00316298e+00
1.00319076e+00
1.00321695e+00
1.00324156e+00
1.00326459e+00
1.00328603e+00
1.00330591e+00
1.00332422e+00
1.00334097e+00
1.00335617e+00
1.00336984e+00
1.00338200e+00
1.00339264e+00
1.00340182e+00
1.00340940e+00
1.00341560e+00
1.00342066e+00
1.00342427e+00
1.00342539e+00
1.00342727e+00
9.97350519e-01
9.97353188e-01
9.97356700e-01
9.97362184e-01
9.97369068e-01
9.97377218e-01
9.97387083e-01
9.97398684e-01
9.97411993e-01
9.97427050e-01
9.97443922e-01
9.97462631e-01
9.97483200e-01
9.97505674e-01
9.97530095e-01
9.97556491e-01
9.97584894e-01
9.97615332e-01
9.97647830e-01
9.97682403e-01
9.97719062e-01
9.97757810e-01
9.97798640e-01
9.97841536e-01
9.97886473e-01
9.97933412e-01
9.97982307e-01
9.98033097e-01
9.98085713e-01
9.98140075e-01
9.98196094e-01
9.98253671e-01
9.98312704e-01
9.98373082e-01
9.98434695e-01
9.98497428e-01
9.98561169e-01
9.98625808e-01
9.98691238e-01
9.98757361e-01
9.98824085e-01
9.98891327e-01
9.98959016e-01
9.99027090e-01
9.99095499e-01
9.99164207e-01
9.99233187e-01
9.99302423e-01
9.99371910e-01
9.99441654e-01
9.99511666e-01
9.99581965e-01
9.99652576e-01
9.99723526e-01
9.99794844e-01
9.99866560e-01
9.99938700e-01
1.00001129e+00
1.00008435e+00
1.00015788e+00
1.00023191e+00
1.00030641e+00
1.00038139e+00
1.00045681e+00
1.00053265e+00
1.00060886e+00
1.00068539e+00
1.00076217e+00
1.00083914e+00
1.00091621e+00
1.00099330e+00
1.00107030e+00
1.00114712e+00
1.00122365e+00
1.00129979e+00
1.00137543e+00
1.00145045e+00
1.00152475e+00
1.00159823e+00
1.00167079e+00
1.00174232e+00
1.00181274e+00
1.00188196e+00
1.00194992e+00
1.00201655e+00
1.00208177e+00
1.00214556e+00
1.00220785e+00
1.00226862e+00
1.00232785e+00
1.00238550e+00
1.00244158e+00
1.00249606e+00
1.00254895e+00
1.00260024e+00
1.00264994e+00
1.00269806e+00
1.00274460e+00
1.00278956e+00
1.00283295e+00
1.00287479e+00
1.00291506e+00
1.00295379e+00
1.00299096e+00
1.00302658e+00
1.00306065e+00
1.00309317e+00
1.00312414e+00
1.00315355e+00
1.00318140e+00
1.00320768e+00
1.00323241e+00
1.00325557e+00
1.00327716e+00
1.00329720e+00
1.00331569e+00
1.00333263e+00
1.00334802e+00
1.00336189e+00
1.00337429e+00
1.00338513e+00
1.00339436e+00
1.00340237e+00
1.00340923e+00
1.00341386e+00
1.00341695e+00
1.00342109e+00
1.00342417e+00
9.97360368e-01
9.97363025e-01
9.97366765e-01
9.97372239e-01
9.97379022e-01
9.97387422e-01
9.97397490e-01
9.97409193e-01
9.97422619e-01
9.97437812e-01
9.97454793e-01
9.97473592e-01
9.97494249e-01
9.97516797e-01
9.97541268e-01
9.97567696e-01
9.97596109e-01
9.97626534e-01
9.97658992e-01
9.97693499e-01
9.97730064e-01
9.97768690e-01
9.97809370e-01
9.97852088e-01
9.97896820e-01
9.97943529e-01
9.97992168e-01
9.98042681e-01
9.98095001e-01
9.98149049e-01
9.98204741e-01
9.98261982e-01
9.98320671e-01
9.98380705e-01
9.98441973e-01
9.98504366e-01
9.98567776e-01
9.98632094e-01
9.98697217e-01
9.98763050e-01
9.98829502e-01
9.98896492e-01
9.98963949e-01
9.99031811e-01
9.99100031e-01
9.99168568e-01
9.99237395e-01
9.99306496e-01
9.99375863e-01
9.99445499e-01
9.99515413e-01
9.99585621e-01
9.99656146e-01
9.99727011e-01
9.99798244e-01
9.99869869e-01
9.99941913e-01
1.00001440e+00
1.00008734e+00
1.00016074e+00
1.00023462e+00
1.00030897e+00
1.00038376e+00
1.00045899e+00
1.00053461e+00
1.00061059e+00
1.00068687e+00
1.00076338e+00
1.00084006e+00
1.00091683e+00
1.00099359e+00
1.00107026e+00
1.00114673e+00
1.00122289e+00
1.00129866e+00
1.00137391e+00
1.00144853e+00
1.00152243e+00
1.00159550e+00
1.00166763e+00
1.00173875e+00
1.00180874e+00
1.00187755e+00
1.00194508e+00
1.00201128e+00
1.00207609e+00
1.00213946e+00
1.00220134e+00
1.00226171e+00
1.00232054e+00
1.00237781e+00
1.00243351e+00
1.00248764e+00
1.00254018e+00
1.00259114e+00
1.00264053e+00
1.00268835e+00
1.00273460e+00
1.00277931e+00
1.00282246e+00
1.00286408e+00
1.00290416e+00
1.00294271e+00
1.00297973e+00
1.00301523e+00
1.00304920e+00
1.00308164e+00
1.00311255e+00
1.00314193e+00
1.00316976e+00
1.00319606e+00
1.00322082e+00
1.00324403e+00
1.00326571e+00
1.00328583e+00
1.00330442e+00
1.00332149e+00
1.00333703e+00
1.00335104e+00
1.00336354e+00
1.00337460e+00
1.00338415e+00
1.00339218e+00
1.00339894e+00
1.00340445e+00
1.00340825e+00
1.00341130e+00
1.00341377e+00
9.97372917e-01
9.97375576e-01
9.97379448e-01
9.97384761e-01
9.97391642e-01
9.97400242e-01
9.97410385e-01
9.97422170e-01
9.97435703e-01
9.97450988e-01
9.97468036e-01
9.97486890e-01
9.97507592e-01
9.97530165e-01
9.97554636e-01
9.97581042e-01
9.97609409e-01
9.97639759e-01
9.97672114e-01
9.97706488e-01
9.97742891e-01
9.97781324e-01
9.97821780e-01
9.97864246e-01
9.97908698e-01
9.97955099e-01
9.98003408e-01
9.98053569e-01
9.98105518e-01
9.98159181e-01
9.98214476e-01
9.98271314e-01
9.98329597e-01
9.98389225e-01
9.98450093e-01
9.98512096e-01
9.98575127e-01
9.98639083e-01
9.98703864e-01
9.98769376e-01
9.98835529e-01
9.98902245e-01
9.98969454e-01
9.99037093e-01
9.99105114e-01
9.99173476e-01
9.99242150e-01
9.99311117e-01
9.99380368e-01
9.99449901e-01
9.99519725e-01
9.99589851e-01
9.99660297e-01
9.99731086e-01
9.99802239e-01
9.99873780e-01
9.99945732e-01
1.00001811e+00
1.00009093e+00
1.00016421e+00
1.00023794e+00
1.00031211e+00
1.00038672e+00
1.00046174e+00
1.00053713e+00
1.00061286e+00
1.00068886e+00
1.00076508e+00
1.00084144e+00
1.00091787e+00
1.00099428e+00
1.00107058e+00
1.00114666e+00
1.00122242e+00
1.00129776e+00
1.00137258e+00
1.00144676e+00
1.00152021e+00
1.00159281e+00
1.00166448e+00
1.00173511e+00
1.00180463e+00
1.00187295e+00
1.00194000e+00
1.00200572e+00
1.00207004e+00
1.00213293e+00
1.00219434e+00
1.00225424e+00
1.00231260e+00
1.00236942e+00
1.00242467e+00
1.00247835e+00
1.00253047e+00
1.00258102e+00
1.00263002e+00
1.00267746e+00
1.00272335e+00
1.00276771e+00
1.00281054e+00
1.00285185e+00
1.00289165e+00
1.00292994e+00
1.00296673e+00
1.00300201e+00
1.00303579e+00
1.00306806e+00
1.00309883e+00
1.00312809e+00
1.00315584e+00
1.00318207e+00
1.00320678e+00
1.00322997e+00
1.00325165e+00
1.00327180e+00
1.00329043e+00
1.00330754e+00
1.00332316e+00
1.00333729e+00
1.00334987e+00
1.00336100e+00
1.00337081e+00
1.00337907e+00
1.00338564e+00
1.00339138e+00
1.00339602e+00
1.00339849e+00
1.00340043e+00
9.97388014e-01
9.97390617e-01
9.97394515e-01
9.97399901e-01
9.97406908e-01
9.97415505e-01
9.97425708e-01
9.97437617e-01
9.97451217e-01
9.97466539e-01
9.97483630e-01
9.97502516e-01
9.97523217e-01
9.97545765e-01
9.97570194e-01
9.97596530e-01
9.97624794e-01
9.97655013e-01
9.97687205e-01
9.97721384e-01
9.97757558e-01
9.97795730e-01
9.97835894e-01
9.97878036e-01
9.97922133e-01
9.97968155e-01
9.98016058e-01
9.98065794e-01
9.98117299e-01
9.98170506e-01
9.98225335e-01
9.98281702e-01
9.98339515e-01
9.98398677e-01
9.98459089e-01
9.98520648e-01
9.98583253e-01
9.98646804e-01
9.98711203e-01
9.98776359e-01
9.98842185e-01
9.98908603e-01
9.98975543e-01
9.99042944e-01
9.99110754e-01
9.99178932e-01
9.99247448e-01
9.99316279e-01
9.99385414e-01
9.99454848e-01
9.99524584e-01
9.99594632e-01
9.99665006e-01
9.99735722e-01
9.99806802e-01
9.99878263e-01
9.99950125e-01
1.00002240e+00
1.00009511e+00
1.00016825e+00
1.00024182e+00
1.00031582e+00
1.00039023e+00
1.00046503e+00
1.00054017e+00
1.00061563e+00
1.00069134e+00
1.00076724e+00
1.00084326e+00
1.00091932e+00
1.00099534e+00
1.00107123e+00
1.00114688e+00
1.00122220e+00
1.00129708e+00
1.00137142e+00
1.00144511e+00
1.00151806e+00
1.00159015e+00
1.00166129e+00
1.00173139e+00
1.00180037e+00
1.00186815e+00
1.00193465e+00
1.00199982e+00
1.00206359e+00
1.00212593e+00
1.00218679e+00
1.00224615e+00
1.00230398e+00
1.00236026e+00
1.00241499e+00
1.00246816e+00
1.00251978e+00
1.00256984e+00
1.00261835e+00
1.00266533e+00
1.00271078e+00
1.00275471e+00
1.00279713e+00
1.00283806e+00
1.00287749e+00
1.00291543e+00
1.00295190e+00
1.00298688e+00
1.00302039e+00
1.00305242e+00
1.00308297e+00
1.00311204e+00
1.00313962e+00
1.00316571e+00
1.00319031e+00
1.00321341e+00
1.00323502e+00
1.00325513e+00
1.00327375e+00
1.00329087e+00
1.00330650e+00
1.00332067e+00
1.00333339e+00
1.00334457e+00
1.00335431e+00
1.00336279e+00
1.00336983e+00
1.00337531e+00
1.00337965e+00
1.00338266e+00
1.00338492e+00
9.97405604e-01
9.97408252e-01
9.97412136e-01
9.97417582e-01
9.97424633e-01
9.97433255e-01
9.97443536e-01
9.97455496e-01
9.97469124e-01
9.97484474e-01
9.97501577e-01
9.97520447e-01
9.97541110e-01
9.97563598e-01
9.97587938e-01
9.97614151e-01
9.97642263e-01
9.97672296e-01
9.97704267e-01
9.97738188e-01
9.97774070e-01
9.97811915e-01
9.97851717e-01
9.97893465e-01
9.97937138e-01
9.97982707e-01
9.98030135e-01
9.98079372e-01
9.98130364e-01
9.98183044e-01
9.98237340e-01
9.98293171e-01
9.98350450e-01
9.98409087e-01
9.98468986e-01
9.98530049e-01
9.98592180e-01
9.98655281e-01
9.98719259e-01
9.98784024e-01
9.98849492e-01
9.98915585e-01
9.98982234e-01
9.99049377e-01
9.99116962e-01
9.99184946e-01
9.99253295e-01
9.99321985e-01
9.99391001e-01
9.99460333e-01
9.99529982e-01
9.99599953e-01
9.99670255e-01
9.99740902e-01
9.99811908e-01
9.99883290e-01
9.99955063e-01
1.00002724e+00
1.00009982e+00
1.00017282e+00
1.00024624e+00
1.00032005e+00
1.00039425e+00
1.00046881e+00
1.00054369e+00
1.00061886e+00
1.00069425e+00
1.00076980e+00
1.00084546e+00
1.00092113e+00
1.00099673e+00
1.00107217e+00
1.00114736e+00
1.00122219e+00
1.00129657e+00
1.00137039e+00
1.00144354e+00
1.00151593e+00
1.00158745e+00
1.00165802e+00
1.00172753e+00
1.00179591e+00
1.00186309e+00
1.00192898e+00
1.00199354e+00
1.00205670e+00
1.00211842e+00
1.00217866e+00
1.00223741e+00
1.00229463e+00
1.00235030e+00
1.00240444e+00
1.00245702e+00
1.00250805e+00
1.00255755e+00
1.00260550e+00
1.00265194e+00
1.00269686e+00
1.00274029e+00
1.00278222e+00
1.00282267e+00
1.00286166e+00
1.00289918e+00
1.00293524e+00
1.00296985e+00
1.00300301e+00
1.00303472e+00
1.00306498e+00
1.00309378e+00
1.00312112e+00
1.00314700e+00
1.00317142e+00
1.00319437e+00
1.00321585e+00
1.00323586e+00
1.00325441e+00
1.00327150e+00
1.00328711e+00
1.00330124e+00
1.00331398e+00
1.00332529e+00
1.00333507e+00
1.00334348e+00
1.00335070e+00
1.00335636e+00
1.00336055e+00
1.00336381e+00
1.00336614e+00
9.97425707e-01
9.97428373e-01
9.97432308e-01
9.97437777e-01
9.97444836e-01
9.97453516e-01
9.97463834e-01
9.97475793e-01
9.97489438e-01
9.97504793e-01
9.97521863e-01
9.97540678e-01
9.97561267e-01
9.97583652e-01
9.97607851e-01
9.97633893e-01
9.97661800e-01
9.97691590e-01
9.97723280e-01
9.97756883e-01
9.97792410e-01
9.97829861e-01
9.97869234e-01
9.97910519e-01
9.97953698e-01
9.97998744e-01
9.98045624e-01
9.98094294e-01
9.98144703e-01
9.98196789e-01
9.98250486e-01
9.98305717e-01
9.98362403e-01
9.98420456e-01
9.98479787e-01
9.98540304e-01
9.98601912e-01
9.98664521e-01
9.98728038e-01
9.98792377e-01
9.98857455e-01
9.98923197e-01
9.98989531e-01
9.99056396e-01
9.99123739e-01
9.99191515e-01
9.99259687e-01
9.99328227e-01
9.99397117e-01
9.99466344e-01
9.99535902e-01
9.99605793e-01
9.99676022e-01
9.99746596e-01
9.99817528e-01
9.99888828e-01
9.99960507e-01
1.00003257e+00
1.00010503e+00
1.00017789e+00
1.00025113e+00
1.00032475e+00
1.00039872e+00
1.00047303e+00
1.00054763e+00
1.00062249e+00
1.00069754e+00
1.00077273e+00
1.00084798e+00
1.00092322e+00
1.00099837e+00
1.00107334e+00
1.00114803e+00
1.00122234e+00
1.00129617e+00
1.00136942e+00
1.00144199e+00
1.00151378e+00
1.00158469e+00
1.00165462e+00
1.00172350e+00
1.00179123e+00
1.00185774e+00
1.00192297e+00
1.00198685e+00
1.00204933e+00
1.00211037e+00
1.00216994e+00
1.00222800e+00
1.00228454e+00
1.00233955e+00
1.00239301e+00
1.00244493e+00
1.00249531e+00
1.00254416e+00
1.00259149e+00
1.00263730e+00
1.00268162e+00
1.00272446e+00
1.00276582e+00
1.00280573e+00
1.00284419e+00
1.00288121e+00
1.00291679e+00
1.00295095e+00
1.00298369e+00
1.00301500e+00
1.00304488e+00
1.00307335e+00
1.00310038e+00
1.00312599e+00
1.00315016e+00
1.00317289e+00
1.00319419e+00
1.00321405e+00
1.00323246e+00
1.00324944e+00
1.00326501e+00
1.00327912e+00
1.00329178e+00
1.00330307e+00
1.00331299e+00
1.00332142e+00
1.00332850e+00
1.00333433e+00
1.00333873e+00
1.00334183e+00
1.00334406e+00
9.97448368e-01
9.97451036e-01
9.97454997e-01
9.97460481e-01
9.97467555e-01
9.97476256e-01
9.97486574e-01
9.97498531e-01
9.97512161e-01
9.97527472e-01
9.97544478e-01
9.97563207e-01
9.97583677e-01
9.97605908e-01
9.97629922e-01
9.97655743e-01
9.97683390e-01
9.97712879e-01
9.97744230e-01
9.97777454e-01
9.97812559e-01
9.97849552e-01
9.97888429e-01
9.97929182e-01
9.97971798e-01
9.98016253e-01
9.98062517e-01
9.98110551e-01
9.98160308e-01
9.98211734e-01
9.98264767e-01
9.98319336e-01
9.98375368e-01
9.98432780e-01
9.98491490e-01
9.98551409e-01
9.98612448e-01
9.98674520e-01
9.98737537e-01
9.98801414e-01
9.98866070e-01
9.98931430e-01
9.98997425e-01
9.99063990e-01
9.99131073e-01
9.99198624e-01
9.99266605e-01
9.99334985e-01
9.99403740e-01
9.99472853e-01
9.99542314e-01
9.99612120e-01
9.99682270e-01
9.99752768e-01
9.99823619e-01
9.99894832e-01
9.99966412e-01
1.00003836e+00
1.00011069e+00
1.00018338e+00
1.00025644e+00
1.00032985e+00
1.00040359e+00
1.00047763e+00
1.00055194e+00
1.00062646e+00
1.00070115e+00
1.00077594e+00
1.00085078e+00
1.00092557e+00
1.00100023e+00
1.00107469e+00
1.00114884e+00
1.00122259e+00
1.00129584e+00
1.00136848e+00
1.00144042e+00
1.00151157e+00
1.00158181e+00
1.00165107e+00
1.00171926e+00
1.00178629e+00
1.00185208e+00
1.00191659e+00
1.00197974e+00
1.00204149e+00
1.00210179e+00
1.00216061e+00
1.00221793e+00
1.00227372e+00
1.00232799e+00
1.00238071e+00
1.00243190e+00
1.00248155e+00
1.00252968e+00
1.00257631e+00
1.00262143e+00
1.00266507e+00
1.00270724e+00
1.00274797e+00
1.00278725e+00
1.00282510e+00
1.00286154e+00
1.00289657e+00
1.00293020e+00
1.00296244e+00
1.00299328e+00
1.00302272e+00
1.00305078e+00
1.00307744e+00
1.00310270e+00
1.00312656e+00
1.00314901e+00
1.00317006e+00
1.00318971e+00
1.00320796e+00
1.00322478e+00
1.00324020e+00
1.00325425e+00
1.00326688e+00
1.00327808e+00
1.00328796e+00
1.00329648e+00
1.00330355e+00
1.00330934e+00
1.00331384e+00
1.00331697e+00
1.00331920e+00
9.97473541e-01
9.97476204e-01
9.97480182e-01
9.97485687e-01
9.97492772e-01
9.97501456e-01
9.97511754e-01
9.97523692e-01
9.97537269e-01
9.97552501e-01
9.97569411e-01
9.97588012e-01
9.97608317e-01
9.97630350e-01
9.97654132e-01
9.97679678e-01
9.97707008e-01
9.97736141e-01
9.97767092e-01
9.97799874e-01
9.97834496e-01
9.97870964e-01
9.97909279e-01
9.97949434e-01
9.97991419e-01
9.98035214e-01
9.98080794e-01
9.98128125e-01
9.98177165e-01
9.98227866e-01
9.98280171e-01
9.98334018e-01
9.98389336e-01
9.98446052e-01
9.98504087e-01
9.98563358e-01
9.98623781e-01
9.98685273e-01
9.98747749e-01
9.98811127e-01
9.98875328e-01
9.98940277e-01
9.99005904e-01
9.99072147e-01
9.99138947e-01
9.99206256e-01
9.99274030e-01
9.99342235e-01
9.99410842e-01
9.99479830e-01
9.99549185e-01
9.99618897e-01
9.99688960e-01
9.99759373e-01
9.99830137e-01
9.99901254e-01
9.99972726e-01
1.00004455e+00
1.00011673e+00
1.00018926e+00
1.00026213e+00
1.00033532e+00
1.00040880e+00
1.00048256e+00
1.00055654e+00
1.00063072e+00
1.00070502e+00
1.00077940e+00
1.00085378e+00
1.00092809e+00
1.00100225e+00
1.00107616e+00
1.00114975e+00
1.00122290e+00
1.00129553e+00
1.00136753e+00
1.00143880e+00
1.00150926e+00
1.00157880e+00
1.00164734e+00
1.00171478e+00
1.00178106e+00
1.00184610e+00
1.00190983e+00
1.00197219e+00
1.00203315e+00
1.00209265e+00
1.00215067e+00
1.00220719e+00
1.00226217e+00
1.00231563e+00
1.00236755e+00
1.00241794e+00
1.00246680e+00
1.00251415e+00
1.00255999e+00
1.00260435e+00
1.00264724e+00
1.00268868e+00
1.00272868e+00
1.00276727e+00
1.00280444e+00
1.00284023e+00
1.00287463e+00
1.00290766e+00
1.00293932e+00
1.00296962e+00
1.00299855e+00
1.00302613e+00
1.00305234e+00
1.00307719e+00
1.00310067e+00
1.00312279e+00
1.00314354e+00
1.00316291e+00
1.00318092e+00
1.00319755e+00
1.00321281e+00
1.00322669e+00
1.00323924e+00
1.00325040e+00
1.00326017e+00
1.00326865e+00
1.00327579e+00
1.00328155e+00
1.00328601e+00
1.00328923e+00
1.00329152e+00
9.97501192e-01
9.97503870e-01
9.97507863e-01
9.97513369e-01
9.97520445e-01
9.97529106e-01
9.97539368e-01
9.97551244e-01
9.97564738e-01
9.97579865e-01
9.97596638e-01
9.97615065e-01
9.97635165e-01
9.97656955e-01
9.97680450e-01
9.97705669e-01
9.97732630e-01
9.97761349e-01
9.97791841e-01
9.97824119e-01
9.97858195e-01
9.97894076e-01
9.97931762e-01
9.97971253e-01
9.98012541e-01
9.98055610e-01
9.98100440e-01
9.98147002e-01
9.98195261e-01
9.98245173e-01
9.98296690e-01
9.98349754e-01
9.98404302e-01
9.98460266e-01
9.98517573e-01
9.98576147e-01
9.98635908e-01
9.98696776e-01
9.98758670e-01
9.98821511e-01
9.98885222e-01
9.98949728e-01
9.99014959e-01
9.99080852e-01
9.99147347e-01
9.99214392e-01
9.99281940e-01
9.99349952e-01
9.99418396e-01
9.99487245e-01
9.99556480e-01
9.99626085e-01
9.99696050e-01
9.99766367e-01
9.99837033e-01
9.99908043e-01
9.99979396e-01
1.00005109e+00
1.00012311e+00
1.00019546e+00
1.00026812e+00
1.00034107e+00
1.00041428e+00
1.00048774e+00
1.00056139e+00
1.00063519e+00
1.00070909e+00
1.00078303e+00
1.00085694e+00
1.00093074e+00
1.00100436e+00
1.00107771e+00
1.00115069e+00
1.00122322e+00
1.00129519e+00
1.00136651e+00
1.00143708e+00
1.00150682e+00
1.00157561e+00
1.00164338e+00
1.00171005e+00
1.00177553e+00
1.00183975e+00
1.00190266e+00
1.00196419e+00
1.00202430e+00
1.00208296e+00
1.00214012e+00
1.00219577e+00
1.00224989e+00
1.00230248e+00
1.00235354e+00
1.00240306e+00
1.00245107e+00
1.00249756e+00
1.00254256e+00
1.00258609e+00
1.00262816e+00
1.00266879e+00
1.00270800e+00
1.00274581e+00
1.00278224e+00
1.00281730e+00
1.00285100e+00
1.00288336e+00
1.00291437e+00
1.00294406e+00
1.00297241e+00
1.00299944e+00
1.00302514e+00
1.00304951e+00
1.00307255e+00
1.00309427e+00
1.00311465e+00
1.00313370e+00
1.00315141e+00
1.00316780e+00
1.00318285e+00
1.00319655e+00
1.00320892e+00
1.00321999e+00
1.00322971e+00
1.00323809e+00
1.00324519e+00
1.00325098e+00
1.00325544e+00
1.00325869e+00
1.00326100e+00
9.97531301e-01
9.97533989e-01
9.97538008e-01
9.97543509e-01
9.97550557e-01
9.97559179e-01
9.97569379e-01
9.97581164e-01
9.97594547e-01
9.97609533e-01
9.97626126e-01
9.97644340e-01
9.97664190e-01
9.97685688e-01
9.97708847e-01
9.97733687e-01
9.97760223e-01
9.97788470e-01
9.97818444e-01
9.97850160e-01
9.97883627e-01
9.97918856e-01
9.97955852e-01
9.97994614e-01
9.98035140e-01
9.98077419e-01
9.98121435e-01
9.98167165e-01
9.98214580e-01
9.98263644e-01
9.98314312e-01
9.98366535e-01
9.98420257e-01
9.98475416e-01
9.98531945e-01
9.98589772e-01
9.98648824e-01
9.98709024e-01
9.98770295e-01
9.98832561e-01
9.98895746e-01
9.98959776e-01
9.99024581e-01
9.99090095e-01
9.99156258e-01
9.99223014e-01
9.99290313e-01
9.99358112e-01
9.99426373e-01
9.99495066e-01
9.99564164e-01
9.99633646e-01
9.99703497e-01
9.99773704e-01
9.99844256e-01
9.99915146e-01
9.99986366e-01
1.00005791e+00
1.00012976e+00
1.00020191e+00
1.00027435e+00
1.00034704e+00
1.00041997e+00
1.00049311e+00
1.00056640e+00
1.00063981e+00
1.00071329e+00
1.00078677e+00
1.00086018e+00
1.00093345e+00
1.00100651e+00
1.00107926e+00
1.00115161e+00
1.00122348e+00
1.00129477e+00
1.00136538e+00
1.00143522e+00
1.00150419e+00
1.00157220e+00
1.00163917e+00
1.00170502e+00
1.00176966e+00
1.00183303e+00
1.00189507e+00
1.00195572e+00
1.00201494e+00
1.00207269e+00
1.00212894e+00
1.00218368e+00
1.00223689e+00
1.00228855e+00
1.00233868e+00
1.00238729e+00
1.00243437e+00
1.00247995e+00
1.00252404e+00
1.00256667e+00
1.00260785e+00
1.00264761e+00
1.00268596e+00
1.00272294e+00
1.00275855e+00
1.00279281e+00
1.00282574e+00
1.00285735e+00
1.00288766e+00
1.00291666e+00
1.00294436e+00
1.00297077e+00
1.00299590e+00
1.00301973e+00
1.00304227e+00
1.00306352e+00
1.00308348e+00
1.00310215e+00
1.00311953e+00
1.00313560e+00
1.00315038e+00
1.00316388e+00
1.00317606e+00
1.00318695e+00
1.00319657e+00
1.00320488e+00
1.00321190e+00
1.00321766e+00
1.00322215e+00
1.00322543e+00
1.00322774e+00
9.97563852e-01
9.97566551e-01
9.97570583e-01
9.97576072e-01
9.97583082e-01
9.97591641e-01
9.97601753e-01
9.97613425e-01
9.97626662e-01
9.97641466e-01
9.97657844e-01
9.97675805e-01
9.97695357e-01
9.97716513e-01
9.97739288e-01
9.97763696e-01
9.97789752e-01
9.97817471e-01
9.97846870e-01
9.97877962e-01
9.97910761e-01
9.97945278e-01
9.97981520e-01
9.98019492e-01
9.98059194e-01
9.98100621e-01
9.98143761e-01
9.98188599e-01
9.98235110e-01
9.98283266e-01
9.98333029e-01
9.98384356e-01
9.98437198e-01
9.98491499e-01
9.98547198e-01
9.98604231e-01
9.98662527e-01
9.98722016e-01
9.98782623e-01
9.98844275e-01
9.98906896e-01
9.98970414e-01
9.99034759e-01
9.99099864e-01
9.99165666e-01
9.99232106e-01
9.99299130e-01
9.99366691e-01
9.99434747e-01
9.99503261e-01
9.99572201e-01
9.99641541e-01
9.99711259e-01
9.99781336e-01
9.99851758e-01
9.99922509e-01
9.99993578e-01
1.00006495e+00
1.00013662e+00
1.00020855e+00
1.00028075e+00
1.00035317e+00
1.00042580e+00
1.00049859e+00
1.00057151e+00
1.00064452e+00
1.00071755e+00
1.00079054e+00
1.00086344e+00
1.00093616e+00
1.00100862e+00
1.00108075e+00
1.00115246e+00
1.00122364e+00
1.00129422e+00
1.00136409e+00
1.00143316e+00
1.00150134e+00
1.00156854e+00
1.00163467e+00
1.00169966e+00
1.00176342e+00
1.00182590e+00
1.00188703e+00
1.00194676e+00
1.00200504e+00
1.00206185e+00
1.00211714e+00
1.00217091e+00
1.00222315e+00
1.00227384e+00
1.00232299e+00
1.00237062e+00
1.00241672e+00
1.00246133e+00
1.00250445e+00
1.00254612e+00
1.00258635e+00
1.00262517e+00
1.00266260e+00
1.00269867e+00
1.00273339e+00
1.00276679e+00
1.00279889e+00
1.00282969e+00
1.00285921e+00
1.00288746e+00
1.00291445e+00
1.00294019e+00
1.00296467e+00
1.00298790e+00
1.00300988e+00
1.00303061e+00
1.00305009e+00
1.00306832e+00
1.00308530e+00
1.00310103e+00
1.00311549e+00
1.00312872e+00
1.00314069e+00
1.00315139e+00
1.00316084e+00
1.00316905e+00
1.00317600e+00
1.00318170e+00
1.00318619e+00
1.00318951e+00
1.00319186e+00
9.97598808e-01
9.97601518e-01
9.97605559e-01
9.97611027e-01
9.97617985e-01
9.97626458e-01
9.97636457e-01
9.97647987e-01
9.97661043e-01
9.97675630e-01
9.97691753e-01
9.97709416e-01
9.97728625e-01
9.97749394e-01
9.97771733e-01
9.97795656e-01
9.97821178e-01
9.97848315e-01
9.97877081e-01
9.97907492e-01
9.97939564e-01
9.97973309e-01
9.98008739e-01
9.98045860e-01
9.98084679e-01
9.98125194e-01
9.98167400e-01
9.98211286e-01
9.98256837e-01
9.98304028e-01
9.98352831e-01
9.98403208e-01
9.98455117e-01
9.98508510e-01
9.98563332e-01
9.98619523e-01
9.98677019e-01
9.98735752e-01
9.98795653e-01
9.98856649e-01
9.98918669e-01
9.98981639e-01
9.99045489e-01
9.99110151e-01
9.99175559e-01
9.99241651e-01
9.99308372e-01
9.99375667e-01
9.99443490e-01
9.99511799e-01
9.99580556e-01
9.99649730e-01
9.99719292e-01
9.99789217e-01
9.99859486e-01
9.99930077e-01
1.00000097e+00
1.00007216e+00
1.00014362e+00
1.00021532e+00
1.00028725e+00
1.00035939e+00
1.00043169e+00
1.00050413e+00
1.00057665e+00
1.00064923e+00
1.00072179e+00
1.00079428e+00
1.00086664e+00
1.00093878e+00
1.00101064e+00
1.00108213e+00
1.00115315e+00
1.00122363e+00
1.00129347e+00
1.00136257e+00
1.00143085e+00
1.00149821e+00
1.00156456e+00
1.00162983e+00
1.00169393e+00
1.00175678e+00
1.00181833e+00
1.00187852e+00
1.00193728e+00
1.00199459e+00
1.00205041e+00
1.00210471e+00
1.00215747e+00
1.00220869e+00
1.00225835e+00
1.00230648e+00
1.00235307e+00
1.00239815e+00
1.00244172e+00
1.00248382e+00
1.00252447e+00
1.00256369e+00
1.00260152e+00
1.00263796e+00
1.00267307e+00
1.00270684e+00
1.00273932e+00
1.00277051e+00
1.00280044e+00
1.00282911e+00
1.00285655e+00
1.00288277e+00
1.00290776e+00
1.00293153e+00
1.00295410e+00
1.00297546e+00
1.00299561e+00
1.00301456e+00
1.00303229e+00
1.00304883e+00
1.00306415e+00
1.00307827e+00
1.00309117e+00
1.00310288e+00
1.00311336e+00
1.00312263e+00
1.00313070e+00
1.00313755e+00
1.00314320e+00
1.00314766e+00
1.00315102e+00
1.00315340e+00
9.97636137e-01
9.97638858e-01
9.97642903e-01
9.97648334e-01
9.97655220e-01
9.97663589e-01
9.97673451e-01
9.97684804e-01
9.97697648e-01
9.97711982e-01
9.97727809e-01
9.97745129e-01
9.97763952e-01
9.97784285e-01
9.97806139e-01
9.97829526e-01
9.97854462e-01
9.97880960e-01
9.97909038e-01
9.97938713e-01
9.97970001e-01
9.98002918e-01
9.98037477e-01
9.98073691e-01
9.98111569e-01
9.98151116e-01
9.98192331e-01
9.98235212e-01
9.98279747e-01
9.98325920e-01
9.98373710e-01
9.98423086e-01
9.98474013e-01
9.98526448e-01
9.98580344e-01
9.98635647e-01
9.98692298e-01
9.98750232e-01
9.98809384e-01
9.98869685e-01
9.98931062e-01
9.98993446e-01
9.99056763e-01
9.99120946e-01
9.99185925e-01
9.99251637e-01
9.99318020e-01
9.99385017e-01
9.99452577e-01
9.99520650e-01
9.99589196e-01
9.99658175e-01
9.99727553e-01
9.99797300e-01
9.99867390e-01
9.99937797e-01
1.00000850e+00
1.00007947e+00
1.00015070e+00
1.00022215e+00
1.00029380e+00
1.00036562e+00
1.00043757e+00
1.00050963e+00
1.00058175e+00
1.00065387e+00
1.00072595e+00
1.00079792e+00
1.00086971e+00
1.00094126e+00
1.00101249e+00
1.00108331e+00
1.00115364e+00
1.00122339e+00
1.00129246e+00
1.00136078e+00
1.00142824e+00
1.00149475e+00
1.00156024e+00
1.00162461e+00
1.00168779e+00
1.00174971e+00
1.00181030e+00
1.00186951e+00
1.00192728e+00
1.00198358e+00
1.00203837e+00
1.00209163e+00
1.00214334e+00
1.00219350e+00
1.00224210e+00
1.00228915e+00
1.00233466e+00
1.00237866e+00
1.00242116e+00
1.00246218e+00
1.00250175e+00
1.00253991e+00
1.00257668e+00
1.00261208e+00
1.00264616e+00
1.00267893e+00
1.00271041e+00
1.00274064e+00
1.00276963e+00
1.00279741e+00
1.00282397e+00
1.00284934e+00
1.00287353e+00
1.00289655e+00
1.00291839e+00
1.00293907e+00
1.00295858e+00
1.00297694e+00
1.00299414e+00
1.00301017e+00
1.00302504e+00
1.00303876e+00
1.00305132e+00
1.00306271e+00
1.00307294e+00
1.00308200e+00
1.00308989e+00
1.00309662e+00
1.00310220e+00
1.00310664e+00
1.00311003e+00
1.00311244e+00
9.97675803e-01
9.97678528e-01
9.97682568e-01
9.97687950e-01
9.97694745e-01
9.97702988e-01
9.97712683e-01
9.97723830e-01
9.97736428e-01
9.97750472e-01
9.97765960e-01
9.97782898e-01
9.97801288e-01
9.97821138e-01
9.97842457e-01
9.97865259e-01
9.97889556e-01
9.97915365e-01
9.97942702e-01
9.97971586e-01
9.98002036e-01
9.98034069e-01
9.98067704e-01
9.98102956e-01
9.98139840e-01
9.98178364e-01
9.98218537e-01
9.98260359e-01
9.98303827e-01
9.98348932e-01
9.98395658e-01
9.98443984e-01
9.98493881e-01
9.98545312e-01
9.98598236e-01
9.98652606e-01
9.98708366e-01
9.98765458e-01
9.98823819e-01
9.98883381e-01
9.98944076e-01
9.99005832e-01
9.99068578e-01
9.99132242e-01
9.99196755e-01
9.99262048e-01
9.99328057e-01
9.99394721e-01
9.99461982e-01
9.99529786e-01
9.99598087e-01
9.99666838e-01
9.99736001e-01
9.99805540e-01
9.99875420e-01
9.99945614e-01
1.00001609e+00
1.00008683e+00
1.00015779e+00
1.00022896e+00
1.00030031e+00
1.00037179e+00
1.00044338e+00
1.00051504e+00
1.00058672e+00