# vtk DataFile Version 2.0
LBM Flow Field - Timestep 700
ASCII
DATASET STRUCTURED_POINTS
DIMENSIONS 128 128 1
ORIGIN 0.0 0.0 0.0
SPACING 1.0 1.0 1.0
POINT_DATA 16384
SCALARS density double 1
LOOKUP_TABLE default
9.94292352e-01
9.94394818e-01
9.94522984e-01
9.94628611e-01
9.94763313e-01
9.94920033e-01
9.95091467e-01
9.95274059e-01
9.95465403e-01
9.95661679e-01
9.95860312e-01
9.96058335e-01
9.96253339e-01
9.96443587e-01
9.96627702e-01
9.96804514e-01
9.96973250e-01
9.97133414e-01
9.97284662e-01
9.97426788e-01
9.97559711e-01
9.97683454e-01
9.97798126e-01
9.97903939e-01
9.98001211e-01
9.98090372e-01
9.98171965e-01
9.98246635e-01
9.98315117e-01
9.98378215e-01
9.98436768e-01
9.98491624e-01
9.98543605e-01
9.98593480e-01
9.98641941e-01
9.98689581e-01
9.98736884e-01
9.98784223e-01
9.98831859e-01
9.98879952e-01
9.98928571e-01
9.98977715e-01
9.99027326e-01
9.99077311e-01
9.99127556e-01
9.99177943e-01
9.99228362e-01
9.99278718e-01
9.99328943e-01
9.99378989e-01
9.99428839e-01
9.99478497e-01
9.99527989e-01
9.99577358e-01
9.99626658e-01
9.99675950e-01
9.99725297e-01
9.99774764e-01
9.99824411e-01
9.99874293e-01
9.99924459e-01
9.99974955e-01
1.00002582e+00
1.00007709e+00
1.00012879e+00
1.00018096e+00
1.00023363e+00
1.00028683e+00
1.00034059e+00
1.00039494e+00
1.00044993e+00
1.00050558e+00
1.00056193e+00
1.00061902e+00
1.00067687e+00
1.00073553e+00
1.00079502e+00
1.00085537e+00
1.00091661e+00
1.00097876e+00
1.00104185e+00
1.00110590e+00
1.00117095e+00
1.00123702e+00
1.00130416e+00
1.00137241e+00
1.00144180e+00
1.00151238e+00
1.00158420e+00
1.00165730e+00
1.00173173e+00
1.00180751e+00
1.00188469e+00
1.00196327e+00
1.00204324e+00
1.00212460e+00
1.00220730e+00
1.00229127e+00
1.00237641e+00
1.00246262e+00
1.00254973e+00
1.00263760e+00
1.00272606e+00
1.00281495e+00
1.00290412e+00
1.00299349e+00
1.00308305e+00
1.00317286e+00
1.00326309e+00
1.00335406e+00
1.00344614e+00
1.00353981e+00
1.00363556e+00
1.00373392e+00
1.00383527e+00
1.00393971e+00
1.00404727e+00
1.00415766e+00
1.00427004e+00
1.00438312e+00
1.00449566e+00
1.00460494e+00
1.00471151e+00
1.00481320e+00
1.00489949e+00
1.00496648e+00
1.00508220e+00
1.00518042e+00
9.94399806e-01
9.94472016e-01
9.94584504e-01
9.94690299e-01
9.94826189e-01
9.94977129e-01
9.95144228e-01
9.95322503e-01
9.95509795e-01
9.95701808e-01
9.95896297e-01
9.96090377e-01
9.96281832e-01
9.96468758e-01
9.96649761e-01
9.96823717e-01
9.96989824e-01
9.97147525e-01
9.97296460e-01
9.97436422e-01
9.97567328e-01
9.97689202e-01
9.97802170e-01
9.97906465e-01
9.98002418e-01
9.98090472e-01
9.98171174e-01
9.98245165e-01
9.98313167e-01
9.98375961e-01
9.98434360e-01
9.98489178e-01
9.98541206e-01
9.98591181e-01
9.98639764e-01
9.98687526e-01
9.98734934e-01
9.98782348e-01
9.98830025e-01
9.98878124e-01
9.98926721e-01
9.98975824e-01
9.99025384e-01
9.99075322e-01
9.99125533e-01
9.99175911e-01
9.99226351e-01
9.99276766e-01
9.99327088e-01
9.99377270e-01
9.99427292e-01
9.99477155e-01
9.99526878e-01
9.99576498e-01
9.99626062e-01
9.99675627e-01
9.99725250e-01
9.99774990e-01
9.99824904e-01
9.99875044e-01
9.99925459e-01
9.99976192e-01
1.00002728e+00
1.00007876e+00
1.00013067e+00
1.00018304e+00
1.00023589e+00
1.00028926e+00
1.00034318e+00
1.00039768e+00
1.00045280e+00
1.00050857e+00
1.00056503e+00
1.00062221e+00
1.00068014e+00
1.00073886e+00
1.00079838e+00
1.00085875e+00
1.00091998e+00
1.00098210e+00
1.00104514e+00
1.00110911e+00
1.00117406e+00
1.00124000e+00
1.00130698e+00
1.00137503e+00
1.00144418e+00
1.00151449e+00
1.00158600e+00
1.00165874e+00
1.00173276e+00
1.00180808e+00
1.00188475e+00
1.00196275e+00
1.00204210e+00
1.00212277e+00
1.00220472e+00
1.00228788e+00
1.00237217e+00
1.00245747e+00
1.00254364e+00
1.00263054e+00
1.00271801e+00
1.00280591e+00
1.00289411e+00
1.00298254e+00
1.00307118e+00
1.00316012e+00
1.00324952e+00
1.00333965e+00
1.00343086e+00
1.00352358e+00
1.00361826e+00
1.00371530e+00
1.00381504e+00
1.00391758e+00
1.00402292e+00
1.00413058e+00
1.00423989e+00
1.00434944e+00
1.00445871e+00
1.00456462e+00
1.00466713e+00
1.00476202e+00
1.00485121e+00
1.00492084e+00
1.00501637e+00
1.00507569e+00
9.94545100e-01
9.94602257e-01
9.94677082e-01
9.94790669e-01
9.94923386e-01
9.95067671e-01
9.95229266e-01
9.95402417e-01
9.95583979e-01
9.95770818e-01
9.95959932e-01
9.96148688e-01
9.96335134e-01
9.96517287e-01
9.96693646e-01
9.96863168e-01
9.97025054e-01
9.97178700e-01
9.97323746e-01
9.97459998e-01
9.97587383e-01
9.97705940e-01
9.97815825e-01
9.97917291e-01
9.98010697e-01
9.98096501e-01
9.98175255e-01
9.98247601e-01
9.98314246e-01
9.98375948e-01
9.98433490e-01
9.98487650e-01
9.98539182e-01
9.98588783e-01
9.98637082e-01
9.98684619e-01
9.98731836e-01
9.98779078e-01
9.98826592e-01
9.98874535e-01
9.98922985e-01
9.98971955e-01
9.99021408e-01
9.99071272e-01
9.99121455e-01
9.99171857e-01
9.99222381e-01
9.99272943e-01
9.99323473e-01
9.99373925e-01
9.99424272e-01
9.99474508e-01
9.99524644e-01
9.99574708e-01
9.99624738e-01
9.99674782e-01
9.99724889e-01
9.99775111e-01
9.99825500e-01
9.99876105e-01
9.99926971e-01
9.99978138e-01
1.00002964e+00
1.00008152e+00
1.00013381e+00
1.00018654e+00
1.00023973e+00
1.00029342e+00
1.00034764e+00
1.00040242e+00
1.00045779e+00
1.00051379e+00
1.00057045e+00
1.00062779e+00
1.00068586e+00
1.00074468e+00
1.00080427e+00
1.00086466e+00
1.00092588e+00
1.00098794e+00
1.00105087e+00
1.00111469e+00
1.00117942e+00
1.00124510e+00
1.00131175e+00
1.00137940e+00
1.00144809e+00
1.00151786e+00
1.00158874e+00
1.00166078e+00
1.00173401e+00
1.00180846e+00
1.00188414e+00
1.00196108e+00
1.00203926e+00
1.00211867e+00
1.00219926e+00
1.00228098e+00
1.00236372e+00
1.00244740e+00
1.00253188e+00
1.00261703e+00
1.00270271e+00
1.00278878e+00
1.00287515e+00
1.00296175e+00
1.00304857e+00
1.00313570e+00
1.00322329e+00
1.00331158e+00
1.00340088e+00
1.00349160e+00
1.00358411e+00
1.00367874e+00
1.00377577e+00
1.00387535e+00
1.00397731e+00
1.00408111e+00
1.00418629e+00
1.00429158e+00
1.00439591e+00
1.00449790e+00
1.00459469e+00
1.00468155e+00
1.00477015e+00
1.00485160e+00
1.00489771e+00
1.00493787e+00
9.94685713e-01
9.94742500e-01
9.94822306e-01
9.94928908e-01
9.95048684e-01
9.95188304e-01
9.95344444e-01
9.95510890e-01
9.95685515e-01
9.95865630e-01
9.96048206e-01
9.96230637e-01
9.96410793e-01
9.96586833e-01
9.96757339e-01
9.96921184e-01
9.97077533e-01
9.97225823e-01
9.97365701e-01
9.97496972e-01
9.97619591e-01
9.97733636e-01
9.97839298e-01
9.97936865e-01
9.98026725e-01
9.98109356e-01
9.98185320e-01
9.98255253e-01
9.98319843e-01
9.98379821e-01
9.98435931e-01
9.98488909e-01
9.98539461e-01
9.98588244e-01
9.98635845e-01
9.98682771e-01
9.98729440e-01
9.98776179e-01
9.98823226e-01
9.98870736e-01
9.98918792e-01
9.98967417e-01
9.99016583e-01
9.99066231e-01
9.99116280e-01
9.99166638e-01
9.99217215e-01
9.99267925e-01
9.99318699e-01
9.99369484e-01
9.99420243e-01
9.99470960e-01
9.99521634e-01
9.99572280e-01
9.99622923e-01
9.99673597e-01
9.99724344e-01
9.99775206e-01
9.99826227e-01
9.99877450e-01
9.99928916e-01
9.99980663e-01
1.00003273e+00
1.00008514e+00
1.00013794e+00
1.00019114e+00
1.00024479e+00
1.00029890e+00
1.00035352e+00
1.00040866e+00
1.00046436e+00
1.00052065e+00
1.00057756e+00
1.00063511e+00
1.00069334e+00
1.00075227e+00
1.00081191e+00
1.00087230e+00
1.00093345e+00
1.00099538e+00
1.00105811e+00
1.00112165e+00
1.00118603e+00
1.00125126e+00
1.00131738e+00
1.00138441e+00
1.00145237e+00
1.00152131e+00
1.00159125e+00
1.00166223e+00
1.00173428e+00
1.00180743e+00
1.00188168e+00
1.00195705e+00
1.00203354e+00
1.00211111e+00
1.00218974e+00
1.00226935e+00
1.00234987e+00
1.00243120e+00
1.00251323e+00
1.00259583e+00
1.00267888e+00
1.00276228e+00
1.00284593e+00
1.00292980e+00
1.00301390e+00
1.00309830e+00
1.00318316e+00
1.00326872e+00
1.00335526e+00
1.00344312e+00
1.00353263e+00
1.00362410e+00
1.00371771e+00
1.00381349e+00
1.00391131e+00
1.00401071e+00
1.00411111e+00
1.00421137e+00
1.00430980e+00
1.00440566e+00
1.00449857e+00
1.00458264e+00
1.00465583e+00
1.00472852e+00
1.00478341e+00
1.00482618e+00
9.94865852e-01
9.94920746e-01
9.94997213e-01
9.95090806e-01
9.95205233e-01
9.95339843e-01
9.95486953e-01
9.95645338e-01
9.95812440e-01
9.95984606e-01
9.96159381e-01
9.96334273e-01
9.96506990e-01
9.96675816e-01
9.96839355e-01
9.96996404e-01
9.97146135e-01
9.97288004e-01
9.97421651e-01
9.97546897e-01
9.97663736e-01
9.97772288e-01
9.97872786e-01
9.97965562e-01
9.98051041e-01
9.98129726e-01
9.98202191e-01
9.98269064e-01
9.98331015e-01
9.98388739e-01
9.98442936e-01
9.98494292e-01
9.98543461e-01
9.98591049e-01
9.98637595e-01
9.98683570e-01
9.98729363e-01
9.98775282e-01
9.98821556e-01
9.98868341e-01
9.98915726e-01
9.98963745e-01
9.99012386e-01
9.99061604e-01
9.99111332e-01
9.99161488e-01
9.99211987e-01
9.99262748e-01
9.99313698e-01
9.99364773e-01
9.99415930e-01
9.99467136e-01
9.99518375e-01
9.99569646e-01
9.99620959e-01
9.99672332e-01
9.99723794e-01
9.99775375e-01
9.99827110e-01
9.99879034e-01
9.99931182e-01
9.99983588e-01
1.00003629e+00
1.00008930e+00
1.00014267e+00
1.00019642e+00
1.00025058e+00
1.00030517e+00
1.00036021e+00
1.00041575e+00
1.00047180e+00
1.00052838e+00
1.00058553e+00
1.00064327e+00
1.00070163e+00
1.00076061e+00
1.00082024e+00
1.00088054e+00
1.00094152e+00
1.00100319e+00
1.00106557e+00
1.00112866e+00
1.00119249e+00
1.00125707e+00
1.00132241e+00
1.00138855e+00
1.00145549e+00
1.00152328e+00
1.00159193e+00
1.00166148e+00
1.00173194e+00
1.00180335e+00
1.00187570e+00
1.00194901e+00
1.00202327e+00
1.00209845e+00
1.00217452e+00
1.00225141e+00
1.00232906e+00
1.00240738e+00
1.00248626e+00
1.00256561e+00
1.00264533e+00
1.00272532e+00
1.00280553e+00
1.00288595e+00
1.00296661e+00
1.00304760e+00
1.00312909e+00
1.00321128e+00
1.00329444e+00
1.00337885e+00
1.00346478e+00
1.00355248e+00
1.00364208e+00
1.00373347e+00
1.00382652e+00
1.00392080e+00
1.00401549e+00
1.00410981e+00
1.00420262e+00
1.00429134e+00
1.00437585e+00
1.00445710e+00
1.00452545e+00
1.00458268e+00
1.00463706e+00
1.00467987e+00
9.95076664e-01
9.95124210e-01
9.95193501e-01
9.95281425e-01
9.95390566e-01
9.95515551e-01
9.95653623e-01
9.95803825e-01
9.95962189e-01
9.96125607e-01
9.96291699e-01
9.96458006e-01
9.96622449e-01
9.96783233e-01
9.96938856e-01
9.97088199e-01
9.97230456e-01
9.97365033e-01
9.97491579e-01
9.97609964e-01
9.97720213e-01
9.97822487e-01
9.97917069e-01
9.98004344e-01
9.98084773e-01
9.98158885e-01
9.98227266e-01
9.98290536e-01
9.98349343e-01
9.98404343e-01
9.98456188e-01
9.98505509e-01
9.98552903e-01
9.98598918e-01
9.98644048e-01
9.98688719e-01
9.98733292e-01
9.98778053e-01
9.98823225e-01
9.98868964e-01
9.98915366e-01
9.98962481e-01
9.99010312e-01
9.99058834e-01
9.99107992e-01
9.99157719e-01
9.99207936e-01
9.99258566e-01
9.99309530e-01
9.99360760e-01
9.99412198e-01
9.99463797e-01
9.99515524e-01
9.99567360e-01
9.99619295e-01
9.99671332e-01
9.99723483e-01
9.99775766e-01
9.99828203e-01
9.99880820e-01
9.99933645e-01
9.99986707e-01
1.00004003e+00
1.00009365e+00
1.00014758e+00
1.00020186e+00
1.00025650e+00
1.00031154e+00
1.00036698e+00
1.00042286e+00
1.00047920e+00
1.00053602e+00
1.00059334e+00
1.00065117e+00
1.00070955e+00
1.00076847e+00
1.00082795e+00
1.00088800e+00
1.00094864e+00
1.00100986e+00
1.00107168e+00
1.00113410e+00
1.00119713e+00
1.00126078e+00
1.00132506e+00
1.00138999e+00
1.00145558e+00
1.00152186e+00
1.00158885e+00
1.00165656e+00
1.00172502e+00
1.00179425e+00
1.00186424e+00
1.00193501e+00
1.00200655e+00
1.00207882e+00
1.00215180e+00
1.00222543e+00
1.00229965e+00
1.00237439e+00
1.00244955e+00
1.00252507e+00
1.00260086e+00
1.00267687e+00
1.00275308e+00
1.00282949e+00
1.00290616e+00
1.00298321e+00
1.00306079e+00
1.00313911e+00
1.00321838e+00
1.00329886e+00
1.00338075e+00
1.00346417e+00
1.00354920e+00
1.00363574e+00
1.00372353e+00
1.00381207e+00
1.00390058e+00
1.00398812e+00
1.00407419e+00
1.00415696e+00
1.00423329e+00
1.00430466e+00
1.00436988e+00
1.00442318e+00
1.00446921e+00
1.00450407e+00
9.95309721e-01
9.95351606e-01
9.95414106e-01
9.95495945e-01
9.95596006e-01
9.95711819e-01
9.95842025e-01
9.95982922e-01
9.96131534e-01
9.96285683e-01
9.96442543e-01
9.96599733e-01
9.96755300e-01
9.96907382e-01
9.97054513e-01
9.97195607e-01
9.97329799e-01
9.97456492e-01
9.97575374e-01
9.97686336e-01
9.97789435e-01
9.97884884e-01
9.97973025e-01
9.98054287e-01
9.98129174e-01
9.98198244e-01
9.98262093e-01
9.98321333e-01
9.98376587e-01
9.98428471e-01
9.98477586e-01
9.98524502e-01
9.98569756e-01
9.98613839e-01
9.98657192e-01
9.98700198e-01
9.98743187e-01
9.98786426e-01
9.98830129e-01
9.98874455e-01
9.98919511e-01
9.98965363e-01
9.99012034e-01
9.99059516e-01
9.99107777e-01
9.99156760e-01
9.99206398e-01
9.99256616e-01
9.99307335e-01
9.99358478e-01
9.99409974e-01
9.99461763e-01
9.99513793e-01
9.99566023e-01
9.99618426e-01
9.99670987e-01
9.99723698e-01
9.99776563e-01
9.99829590e-01
9.99882796e-01
9.99936197e-01
9.99989816e-01
1.00004367e+00
1.00009779e+00
1.00015219e+00
1.00020690e+00
1.00026192e+00
1.00031729e+00
1.00037301e+00
1.00042912e+00
1.00048561e+00
1.00054252e+00
1.00059984e+00
1.00065760e+00
1.00071581e+00
1.00077447e+00
1.00083359e+00
1.00089317e+00
1.00095322e+00
1.00101373e+00
1.00107471e+00
1.00113616e+00
1.00119808e+00
1.00126048e+00
1.00132336e+00
1.00138672e+00
1.00145059e+00
1.00151498e+00
1.00157990e+00
1.00164537e+00
1.00171141e+00
1.00177802e+00
1.00184521e+00
1.00191299e+00
1.00198134e+00
1.00205024e+00
1.00211966e+00
1.00218955e+00
1.00225986e+00
1.00233054e+00
1.00240151e+00
1.00247272e+00
1.00254413e+00
1.00261572e+00
1.00268748e+00
1.00275947e+00
1.00283176e+00
1.00290449e+00
1.00297782e+00
1.00305193e+00
1.00312701e+00
1.00320324e+00
1.00328078e+00
1.00335967e+00
1.00343985e+00
1.00352120e+00
1.00360335e+00
1.00368577e+00
1.00376792e+00
1.00384866e+00
1.00392673e+00
1.00400202e+00
1.00407258e+00
1.00413548e+00
1.00419212e+00
1.00424075e+00
1.00427978e+00
1.00430961e+00
9.95560258e-01
9.95596178e-01
9.95652253e-01
9.95727068e-01
9.95818769e-01
9.95926196e-01
9.96047126e-01
9.96178250e-01
9.96317313e-01
9.96461790e-01
9.96609068e-01
9.96756922e-01
9.96903261e-01
9.97046339e-01
9.97184754e-01
9.97317313e-01
9.97443134e-01
9.97561675e-01
9.97672625e-01
9.97775880e-01
9.97871546e-01
9.97959895e-01
9.98041313e-01
9.98116280e-01
9.98185344e-01
9.98249090e-01
9.98308121e-01
9.98363043e-01
9.98414452e-01
9.98462921e-01
9.98508998e-01
9.98553194e-01
9.98595983e-01
9.98637797e-01
9.98679023e-01
9.98720004e-01
9.98761036e-01
9.98802370e-01
9.98844211e-01
9.98886724e-01
9.98930028e-01
9.98974207e-01
9.99019307e-01
9.99065343e-01
9.99112302e-01
9.99160145e-01
9.99208817e-01
9.99258247e-01
9.99308357e-01
9.99359065e-01
9.99410289e-01
9.99461951e-01
9.99513982e-01
9.99566324e-01
9.99618928e-01
9.99671757e-01
9.99724789e-01
9.99778008e-01
9.99831409e-01
9.99884994e-01
9.99938770e-01
9.99992750e-01
1.00004695e+00
1.00010138e+00
1.00015605e+00
1.00021099e+00
1.00026620e+00
1.00032170e+00
1.00037750e+00
1.00043361e+00
1.00049003e+00
1.00054679e+00
1.00060388e+00
1.00066131e+00
1.00071909e+00
1.00077721e+00
1.00083567e+00
1.00089447e+00
1.00095362e+00
1.00101309e+00
1.00107289e+00
1.00113301e+00
1.00119346e+00
1.00125422e+00
1.00131530e+00
1.00137671e+00
1.00143845e+00
1.00150053e+00
1.00156297e+00
1.00162578e+00
1.00168896e+00
1.00175254e+00
1.00181650e+00
1.00188086e+00
1.00194561e+00
1.00201072e+00
1.00207617e+00
1.00214193e+00
1.00220795e+00
1.00227419e+00
1.00234061e+00
1.00240718e+00
1.00247389e+00
1.00254075e+00
1.00260780e+00
1.00267512e+00
1.00274283e+00
1.00281105e+00
1.00287996e+00
1.00294972e+00
1.00302049e+00
1.00309238e+00
1.00316545e+00
1.00323970e+00
1.00331498e+00
1.00339102e+00
1.00346744e+00
1.00354366e+00
1.00361904e+00
1.00369285e+00
1.00376371e+00
1.00383069e+00
1.00389358e+00
1.00394998e+00
1.00399883e+00
1.00404071e+00
1.00407432e+00
1.00409923e+00
9.95823626e-01
9.95853795e-01
9.95903238e-01
9.95970723e-01
9.96054617e-01
9.96153381e-01
9.96264693e-01
9.96386349e-01
9.96515853e-01
9.96650561e-01
9.96788240e-01
9.96926666e-01
9.97063787e-01
9.97197923e-01
9.97327589e-01
9.97451583e-01
9.97569071e-01
9.97679486e-01
9.97782498e-01
9.97878045e-01
9.97966281e-01
9.98047512e-01
9.98122174e-01
9.98190799e-01
9.98253972e-01
9.98312303e-01
9.98366403e-01
9.98416870e-01
9.98464272e-01
9.98509140e-01
9.98551967e-01
9.98593206e-01
9.98633267e-01
9.98672524e-01
9.98711313e-01
9.98749934e-01
9.98788653e-01
9.98827705e-01
9.98867290e-01
9.98907577e-01
9.98948701e-01
9.98990767e-01
9.99033846e-01
9.99077977e-01
9.99123170e-01
9.99169407e-01
9.99216648e-01
9.99264830e-01
9.99313877e-01
9.99363704e-01
9.99414219e-01
9.99465332e-01
9.99516958e-01
9.99569017e-01
9.99621443e-01
9.99674180e-01
9.99727183e-01
9.99780421e-01
9.99833872e-01
9.99887524e-01
9.99941372e-01
9.99995415e-01
1.00004966e+00
1.00010411e+00
1.00015877e+00
1.00021365e+00
1.00026876e+00
1.00032410e+00
1.00037967e+00
1.00043548e+00
1.00049153e+00
1.00054782e+00
1.00060435e+00
1.00066111e+00
1.00071810e+00
1.00077532e+00
1.00083276e+00
1.00089040e+00
1.00094825e+00
1.00100628e+00
1.00106449e+00
1.00112288e+00
1.00118142e+00
1.00124013e+00
1.00129898e+00
1.00135800e+00
1.00141718e+00
1.00147653e+00
1.00153606e+00
1.00159578e+00
1.00165571e+00
1.00171584e+00
1.00177620e+00
1.00183676e+00
1.00189754e+00
1.00195852e+00
1.00201968e+00
1.00208100e+00
1.00214244e+00
1.00220400e+00
1.00226564e+00
1.00232737e+00
1.00238921e+00
1.00245122e+00
1.00251346e+00
1.00257605e+00
1.00263913e+00
1.00270286e+00
1.00276739e+00
1.00283286e+00
1.00289940e+00
1.00296705e+00
1.00303579e+00
1.00310549e+00
1.00317596e+00
1.00324680e+00
1.00331758e+00
1.00338774e+00
1.00345643e+00
1.00352300e+00
1.00358679e+00
1.00364636e+00
1.00370090e+00
1.00375004e+00
1.00379234e+00
1.00382738e+00
1.00385481e+00
1.00387452e+00
9.96094159e-01
9.96118676e-01
9.96162162e-01
9.96222579e-01
9.96298542e-01
9.96388803e-01
9.96491091e-01
9.96603368e-01
9.96723306e-01
9.96848558e-01
9.96976851e-01
9.97106040e-01
9.97234223e-01
9.97359633e-01
9.97480765e-01
9.97596485e-01
9.97705919e-01
9.97808452e-01
9.97903788e-01
9.97991896e-01
9.98072945e-01
9.98147279e-01
9.98215388e-01
9.98277843e-01
9.98335263e-01
9.98388279e-01
9.98437510e-01
9.98483541e-01
9.98526912e-01
9.98568113e-01
9.98607584e-01
9.98645718e-01
9.98682866e-01
9.98719345e-01
9.98755441e-01
9.98791413e-01
9.98827500e-01
9.98863922e-01
9.98900874e-01
9.98938535e-01
9.98977055e-01
9.99016562e-01
9.99057153e-01
9.99098896e-01
9.99141825e-01
9.99185948e-01
9.99231239e-01
9.99277649e-01
9.99325109e-01
9.99373531e-01
9.99422819e-01
9.99472873e-01
9.99523592e-01
9.99574881e-01
9.99626653e-01
9.99678835e-01
9.99731362e-01
9.99784185e-01
9.99837264e-01
9.99890573e-01
9.99944091e-01
9.99997806e-01
1.00005171e+00
1.00010580e+00
1.00016007e+00
1.00021451e+00
1.00026914e+00
1.00032393e+00
1.00037889e+00
1.00043401e+00
1.00048928e+00
1.00054470e+00
1.00060025e+00
1.00065593e+00
1.00071171e+00
1.00076760e+00
1.00082357e+00
1.00087961e+00
1.00093571e+00
1.00099184e+00
1.00104801e+00
1.00110419e+00
1.00116038e+00
1.00121656e+00
1.00127275e+00
1.00132893e+00
1.00138511e+00
1.00144130e+00
1.00149751e+00
1.00155375e+00
1.00161003e+00
1.00166637e+00
1.00172276e+00
1.00177922e+00
1.00183575e+00
1.00189233e+00
1.00194897e+00
1.00200565e+00
1.00206235e+00
1.00211908e+00
1.00217586e+00
1.00223270e+00
1.00228967e+00
1.00234685e+00
1.00240436e+00
1.00246234e+00
1.00252096e+00
1.00258037e+00
1.00264074e+00
1.00270218e+00
1.00276474e+00
1.00282842e+00
1.00289311e+00
1.00295857e+00
1.00302448e+00
1.00309043e+00
1.00315583e+00
1.00322009e+00
1.00328250e+00
1.00334224e+00
1.00339867e+00
1.00345101e+00
1.00349821e+00
1.00353992e+00
1.00357540e+00
1.00360423e+00
1.00362601e+00
1.00364030e+00
9.96367558e-01
9.96386770e-01
9.96424255e-01
9.96478099e-01
9.96546558e-01
9.96628561e-01
9.96722158e-01
9.96825437e-01
9.96936225e-01
9.97052352e-01
9.97171636e-01
9.97292055e-01
9.97411680e-01
9.97528756e-01
9.97641848e-01
9.97749772e-01
9.97851595e-01
9.97946728e-01
9.98034890e-01
9.98116035e-01
9.98190355e-01
9.98258238e-01
9.98320208e-01
9.98376867e-01
9.98428863e-01
9.98476844e-01
9.98521432e-01
9.98563198e-01
9.98602653e-01
9.98640247e-01
9.98676368e-01
9.98711354e-01
9.98745497e-01
9.98779060e-01
9.98812281e-01
9.98845384e-01
9.98878582e-01
9.98912078e-01
9.98946069e-01
9.98980740e-01
9.99016262e-01
9.99052784e-01
9.99090434e-01
9.99129307e-01
9.99169468e-01
9.99210948e-01
9.99253744e-01
9.99297823e-01
9.99343124e-01
9.99389565e-01
9.99437048e-01
9.99485465e-01
9.99534705e-01
9.99584659e-01
9.99635224e-01
9.99686308e-01
9.99737829e-01
9.99789719e-01
9.99841921e-01
9.99894392e-01
9.99947096e-01
1.00000001e+00
1.00005310e+00
1.00010636e+00
1.00015977e+00
1.00021333e+00
1.00026700e+00
1.00032079e+00
1.00037467e+00
1.00042863e+00
1.00048265e+00
1.00053672e+00
1.00059081e+00
1.00064491e+00
1.00069900e+00
1.00075306e+00
1.00080707e+00
1.00086101e+00
1.00091486e+00
1.00096861e+00
1.00102223e+00
1.00107572e+00
1.00112907e+00
1.00118227e+00
1.00123532e+00
1.00128822e+00
1.00134098e+00
1.00139360e+00
1.00144611e+00
1.00149850e+00
1.00155081e+00
1.00160304e+00
1.00165521e+00
1.00170732e+00
1.00175939e+00
1.00181141e+00
1.00186340e+00
1.00191535e+00
1.00196727e+00
1.00201919e+00
1.00207114e+00
1.00212318e+00
1.00217542e+00
1.00222797e+00
1.00228099e+00
1.00233464e+00
1.00238911e+00
1.00244456e+00
1.00250115e+00
1.00255896e+00
1.00261798e+00
1.00267812e+00
1.00273919e+00
1.00280086e+00
1.00286267e+00
1.00292411e+00
1.00298457e+00
1.00304335e+00
1.00309979e+00
1.00315318e+00
1.00320274e+00
1.00324799e+00
1.00328826e+00
1.00332301e+00
1.00335188e+00
1.00337483e+00
1.00339097e+00
1.00340019e+00
9.96639214e-01
9.96653594e-01
9.96685468e-01
9.96733267e-01
9.96794720e-01
9.96868870e-01
9.96954233e-01
9.97049041e-01
9.97151158e-01
9.97258632e-01
9.97369459e-01
9.97481619e-01
9.97593203e-01
9.97702557e-01
9.97808212e-01
9.97908919e-01
9.98003769e-01
9.98092174e-01
9.98173811e-01
9.98248639e-01
9.98316880e-01
9.98378941e-01
9.98435361e-01
9.98486773e-01
9.98533845e-01
9.98577235e-01
9.98617560e-01
9.98655377e-01
9.98691168e-01
9.98725342e-01
9.98758238e-01
9.98790141e-01
9.98821289e-01
9.98851895e-01
9.98882153e-01
9.98912251e-01
9.98942379e-01
9.98972730e-01
9.99003498e-01
9.99034880e-01
9.99067063e-01
9.99100224e-01
9.99134517e-01
9.99170070e-01
9.99206978e-01
9.99245300e-01
9.99285058e-01
9.99326238e-01
9.99368794e-01
9.99412653e-01
9.99457718e-01
9.99503882e-01
9.99551025e-01
9.99599028e-01
9.99647775e-01
9.99697159e-01
9.99747081e-01
9.99797455e-01
9.99848209e-01
9.99899279e-01
9.99950615e-01
1.00000217e+00
1.00005392e+00
1.00010582e+00
1.00015784e+00
1.00020997e+00
1.00026217e+00
1.00031442e+00
1.00036669e+00
1.00041896e+00
1.00047120e+00
1.00052338e+00
1.00057548e+00
1.00062747e+00
1.00067933e+00
1.00073102e+00
1.00078254e+00
1.00083385e+00
1.00088493e+00
1.00093577e+00
1.00098635e+00
1.00103666e+00
1.00108670e+00
1.00113645e+00
1.00118592e+00
1.00123513e+00
1.00128406e+00
1.00133276e+00
1.00138122e+00
1.00142947e+00
1.00147753e+00
1.00152542e+00
1.00157317e+00
1.00162078e+00
1.00166828e+00
1.00171568e+00
1.00176299e+00
1.00181024e+00
1.00185746e+00
1.00190469e+00
1.00195199e+00
1.00199948e+00
1.00204727e+00
1.00209552e+00
1.00214441e+00
1.00219416e+00
1.00224494e+00
1.00229694e+00
1.00235027e+00
1.00240497e+00
1.00246100e+00
1.00251817e+00
1.00257617e+00
1.00263458e+00
1.00269285e+00
1.00275034e+00
1.00280637e+00
1.00286023e+00
1.00291120e+00
1.00295865e+00
1.00300196e+00
1.00304068e+00
1.00307433e+00
1.00310260e+00
1.00312543e+00
1.00314294e+00
1.00315382e+00
1.00315831e+00
9.96905300e-01
9.96915617e-01
9.96942539e-01
9.96984596e-01
9.97039469e-01
9.97106444e-01
9.97184125e-01
9.97270893e-01
9.97364899e-01
9.97464350e-01
9.97567262e-01
9.97671717e-01
9.97775923e-01
9.97878213e-01
9.97977068e-01
9.98071272e-01
9.98159911e-01
9.98242337e-01
9.98318217e-01
9.98387524e-01
9.98450473e-01
9.98507472e-01
9.98559078e-01
9.98605939e-01
9.98648730e-01
9.98688110e-01
9.98724690e-01
9.98759007e-01
9.98791512e-01
9.98822575e-01
9.98852489e-01
9.98881489e-01
9.98909764e-01
9.98937478e-01
9.98964786e-01
9.98991844e-01
9.99018822e-01
9.99045901e-01
9.99073276e-01
9.99101153e-01
9.99129739e-01
9.99159235e-01
9.99189823e-01
9.99221663e-01
9.99254883e-01
9.99289572e-01
9.99325779e-01
9.99363515e-01
9.99402752e-01
9.99443431e-01
9.99485463e-01
9.99528743e-01
9.99573151e-01
9.99618562e-01
9.99664850e-01
9.99711895e-01
9.99759585e-01
9.99807817e-01
9.99856502e-01
9.99905560e-01
9.99954924e-01
1.00000453e+00
1.00005434e+00
1.00010429e+00
1.00015434e+00
1.00020446e+00
1.00025461e+00
1.00030474e+00
1.00035483e+00
1.00040483e+00
1.00045471e+00
1.00050443e+00
1.00055397e+00
1.00060328e+00
1.00065234e+00
1.00070112e+00
1.00074959e+00
1.00079773e+00
1.00084552e+00
1.00089294e+00
1.00093999e+00
1.00098664e+00
1.00103291e+00
1.00107879e+00
1.00112429e+00
1.00116942e+00
1.00121420e+00
1.00125866e+00
1.00130281e+00
1.00134668e+00
1.00139031e+00
1.00143372e+00
1.00147694e+00
1.00152000e+00
1.00156293e+00
1.00160574e+00
1.00164847e+00
1.00169116e+00
1.00173386e+00
1.00177665e+00
1.00181961e+00
1.00186289e+00
1.00190663e+00
1.00195104e+00
1.00199632e+00
1.00204270e+00
1.00209037e+00
1.00213951e+00
1.00219021e+00
1.00224245e+00
1.00229612e+00
1.00235095e+00
1.00240653e+00
1.00246230e+00
1.00251763e+00
1.00257180e+00
1.00262400e+00
1.00267351e+00
1.00271962e+00
1.00276174e+00
1.00279934e+00
1.00283209e+00
1.00285971e+00
1.00288213e+00
1.00289938e+00
1.00291180e+00
1.00291804e+00
1.00291841e+00
9.97162969e-01
9.97169820e-01
9.97192379e-01
9.97229191e-01
9.97278052e-01
9.97338395e-01
9.97408882e-01
9.97488176e-01
9.97574671e-01
9.97666627e-01
9.97762177e-01
9.97859570e-01
9.97957038e-01
9.98052890e-01
9.98145658e-01
9.98234131e-01
9.98317329e-01
9.98394587e-01
9.98465571e-01
9.98530228e-01
9.98588751e-01
9.98641549e-01
9.98689184e-01
9.98732298e-01
9.98771562e-01
9.98807629e-01
9.98841095e-01
9.98872473e-01
9.98902184e-01
9.98930558e-01
9.98957846e-01
9.98984233e-01
9.99009866e-01
9.99034864e-01
9.99059347e-01
9.99083442e-01
9.99107297e-01
9.99131086e-01
9.99155004e-01
9.99179265e-01
9.99204093e-01
9.99229714e-01
9.99256338e-01
9.99284157e-01
9.99313329e-01
9.99343978e-01
9.99376182e-01
9.99409978e-01
9.99445364e-01
9.99482296e-01
9.99520703e-01
9.99560486e-01
9.99601529e-01
9.99643706e-01
9.99686886e-01
9.99730942e-01
9.99775748e-01
9.99821190e-01
9.99867162e-01
9.99913568e-01
9.99960325e-01
1.00000735e+00
1.00005459e+00
1.00010197e+00
1.00014943e+00
1.00019693e+00
1.00024441e+00
1.00029182e+00
1.00033911e+00
1.00038624e+00
1.00043317e+00
1.00047984e+00
1.00052623e+00
1.00057228e+00
1.00061798e+00
1.00066329e+00
1.00070818e+00
1.00075263e+00
1.00079663e+00
1.00084016e+00
1.00088321e+00
1.00092578e+00
1.00096788e+00
1.00100951e+00
1.00105070e+00
1.00109146e+00
1.00113182e+00
1.00117181e+00
1.00121146e+00
1.00125082e+00
1.00128992e+00
1.00132880e+00
1.00136750e+00
1.00140605e+00
1.00144448e+00
1.00148285e+00
1.00152120e+00
1.00155958e+00
1.00159807e+00
1.00163677e+00
1.00167580e+00
1.00171532e+00
1.00175553e+00
1.00179664e+00
1.00183890e+00
1.00188254e+00
1.00192777e+00
1.00197472e+00
1.00202347e+00
1.00207395e+00
1.00212596e+00
1.00217912e+00
1.00223295e+00
1.00228676e+00
1.00233979e+00
1.00239124e+00
1.00244027e+00
1.00248606e+00
1.00252792e+00
1.00256533e+00
1.00259786e+00
1.00262526e+00
1.00264745e+00
1.00266463e+00
1.00267689e+00
1.00268476e+00
1.00268700e+00
1.00268378e+00
9.97410036e-01
9.97414009e-01
9.97432669e-01
9.97464800e-01
9.97508191e-01
9.97562319e-01
9.97626130e-01
9.97698527e-01
9.97777985e-01
9.97862926e-01
9.97951697e-01
9.98042599e-01
9.98133882e-01
9.98223940e-01
9.98311328e-01
9.98394784e-01
9.98473313e-01
9.98546247e-01
9.98613210e-01
9.98674108e-01
9.98729120e-01
9.98778641e-01
9.98823207e-01
9.98863445e-01
9.98900013e-01
9.98933546e-01
9.98964616e-01
9.98993708e-01
9.99021210e-01
9.99047415e-01
9.99072530e-01
9.99096700e-01
9.99120028e-01
9.99142596e-01
9.99164489e-01
9.99185810e-01
9.99206687e-01
9.99227284e-01
9.99247796e-01
9.99268446e-01
9.99289473e-01
9.99311121e-01
9.99333631e-01
9.99357222e-01
9.99382086e-01
9.99408378e-01
9.99436209e-01
9.99465647e-01
9.99496716e-01
9.99529396e-01
9.99563634e-01
9.99599347e-01
9.99636428e-01
9.99674755e-01
9.99714198e-01
9.99754623e-01
9.99795900e-01
9.99837902e-01
9.99880511e-01
9.99923616e-01
9.99967118e-01
1.00001092e+00
1.00005495e+00
1.00009912e+00
1.00014336e+00
1.00018761e+00
1.00023179e+00
1.00027585e+00
1.00031974e+00
1.00036339e+00
1.00040676e+00
1.00044980e+00
1.00049246e+00
1.00053470e+00
1.00057649e+00
1.00061780e+00
1.00065861e+00
1.00069889e+00
1.00073864e+00
1.00077784e+00
1.00081650e+00
1.00085462e+00
1.00089222e+00
1.00092931e+00
1.00096593e+00
1.00100210e+00
1.00103787e+00
1.00107326e+00
1.00110834e+00
1.00114314e+00
1.00117772e+00
1.00121211e+00
1.00124638e+00
1.00128057e+00
1.00131472e+00
1.00134889e+00
1.00138315e+00
1.00141756e+00
1.00145223e+00
1.00148728e+00
1.00152287e+00
1.00155918e+00
1.00159643e+00
1.00163488e+00
1.00167478e+00
1.00171636e+00
1.00175984e+00
1.00180533e+00
1.00185285e+00
1.00190228e+00
1.00195333e+00
1.00200552e+00
1.00205824e+00
1.00211074e+00
1.00216213e+00
1.00221149e+00
1.00225792e+00
1.00230063e+00
1.00233888e+00
1.00237218e+00
1.00240024e+00
1.00242297e+00
1.00244037e+00
1.00245284e+00
1.00246076e+00
1.00246472e+00
1.00246346e+00
1.00245723e+00
9.97644835e-01
9.97646533e-01
9.97661823e-01
9.97689707e-01
9.97728052e-01
9.97776421e-01
9.97834035e-01
9.97899934e-01
9.97972762e-01
9.98051172e-01
9.98133624e-01
9.98218479e-01
9.98304103e-01
9.98388953e-01
9.98471562e-01
9.98550666e-01
9.98625278e-01
9.98694687e-01
9.98758465e-01
9.98816494e-01
9.98868919e-01
9.98916089e-01
9.98958508e-01
9.98996777e-01
9.99031522e-01
9.99063348e-01
9.99092796e-01
9.99120318e-01
9.99146267e-01
9.99170896e-01
9.99194376e-01
9.99216812e-01
9.99238266e-01
9.99258789e-01
9.99278434e-01
9.99297279e-01
9.99315436e-01
9.99333058e-01
9.99350339e-01
9.99367504e-01
9.99384807e-01
9.99402510e-01
9.99420876e-01
9.99440152e-01
9.99460561e-01
9.99482290e-01
9.99505484e-01
9.99530242e-01
9.99556619e-01
9.99584622e-01
9.99614223e-01
9.99645358e-01
9.99677936e-01
9.99711844e-01
9.99746958e-01
9.99783146e-01
9.99820272e-01
9.99858204e-01
9.99896813e-01
9.99935978e-01
9.99975584e-01
1.00001553e+00
1.00005570e+00
1.00009603e+00
1.00013641e+00