# vtk DataFile Version 2.0
LBM Flow Field - Timestep 260
ASCII
DATASET STRUCTURED_POINTS
DIMENSIONS 128 128 1
ORIGIN 0.0 0.0 0.0
SPACING 1.0 1.0 1.0
POINT_DATA 16384
SCALARS density double 1
LOOKUP_TABLE default
9.92403583e-01
9.92400570e-01
9.92399654e-01
9.92401830e-01
9.92405757e-01
9.92411912e-01
9.92419745e-01
9.92428592e-01
9.92437883e-01
9.92447167e-01
9.92456927e-01
9.92466580e-01
9.92475666e-01
9.92484493e-01
9.92493296e-01
9.92501981e-01
9.92510753e-01
9.92519955e-01
9.92529781e-01
9.92540364e-01
9.92551860e-01
9.92564378e-01
9.92577979e-01
9.92592716e-01
9.92608658e-01
9.92625912e-01
9.92644635e-01
9.92665070e-01
9.92687558e-01
9.92712564e-01
9.92740692e-01
9.92772704e-01
9.92809530e-01
9.92852282e-01
9.92902248e-01
9.92960886e-01
9.93029798e-01
9.93110700e-01
9.93205361e-01
9.93315546e-01
9.93442932e-01
9.93589023e-01
9.93755058e-01
9.93941920e-01
9.94150058e-01
9.94379423e-01
9.94629425e-01
9.94898926e-01
9.95186257e-01
9.95489279e-01
9.95805468e-01
9.96132030e-01
9.96466040e-01
9.96804587e-01
9.97144922e-01
9.97484595e-01
9.97821569e-01
9.98154311e-01
9.98481837e-01
9.98803732e-01
9.99120120e-01
9.99431607e-01
9.99739187e-01
1.00004414e+00
1.00034787e+00
1.00065185e+00
1.00095738e+00
1.00126557e+00
1.00157719e+00
1.00189260e+00
1.00221171e+00
1.00253394e+00
1.00285826e+00
1.00318319e+00
1.00350688e+00
1.00382722e+00
1.00414186e+00
1.00444841e+00
1.00474448e+00
1.00502782e+00
1.00529641e+00
1.00554855e+00
1.00578292e+00
1.00599859e+00
1.00619511e+00
1.00637242e+00
1.00653090e+00
1.00667128e+00
1.00679459e+00
1.00690211e+00
1.00699526e+00
1.00707557e+00
1.00714460e+00
1.00720386e+00
1.00725481e+00
1.00729877e+00
1.00733692e+00
1.00737031e+00
1.00739981e+00
1.00742614e+00
1.00744989e+00
1.00747151e+00
1.00749132e+00
1.00750955e+00
1.00752636e+00
1.00754185e+00
1.00755607e+00
1.00756909e+00
1.00758097e+00
1.00759186e+00
1.00760196e+00
1.00761145e+00
1.00762059e+00
1.00762978e+00
1.00763926e+00
1.00764894e+00
1.00765900e+00
1.00766957e+00
1.00768013e+00
1.00769012e+00
1.00769966e+00
1.00770820e+00
1.00771554e+00
1.00772091e+00
1.00772412e+00
1.00772592e+00
1.00772318e+00
1.00771943e+00
9.92395911e-01
9.92396898e-01
9.92400782e-01
9.92403962e-01
9.92408770e-01
9.92415143e-01
9.92423147e-01
9.92431738e-01
9.92441438e-01
9.92450942e-01
9.92460707e-01
9.92470456e-01
9.92479974e-01
9.92489136e-01
9.92498185e-01
9.92507208e-01
9.92516372e-01
9.92525896e-01
9.92536000e-01
9.92546868e-01
9.92558643e-01
9.92571441e-01
9.92585352e-01
9.92600463e-01
9.92616872e-01
9.92634722e-01
9.92654216e-01
9.92675646e-01
9.92699409e-01
9.92726030e-01
9.92756176e-01
9.92790671e-01
9.92830499e-01
9.92876813e-01
9.92930921e-01
9.92994270e-01
9.93068418e-01
9.93154987e-01
9.93255614e-01
9.93371876e-01
9.93505225e-01
9.93656900e-01
9.93827855e-01
9.94018684e-01
9.94229563e-01
9.94460210e-01
9.94709863e-01
9.94977295e-01
9.95260845e-01
9.95558486e-01
9.95867906e-01
9.96186615e-01
9.96512064e-01
9.96841760e-01
9.97173383e-01
9.97504887e-01
9.97834584e-01
9.98161206e-01
9.98483927e-01
9.98802376e-01
9.99116606e-01
9.99427047e-01
9.99734429e-01
1.00003970e+00
1.00034393e+00
1.00064821e+00
1.00095353e+00
1.00126072e+00
1.00157036e+00
1.00188270e+00
1.00219762e+00
1.00251465e+00
1.00283289e+00
1.00315112e+00
1.00346777e+00
1.00378104e+00
1.00408891e+00
1.00438930e+00
1.00468010e+00
1.00495928e+00
1.00522499e+00
1.00547560e+00
1.00570980e+00
1.00592663e+00
1.00612550e+00
1.00630620e+00
1.00646890e+00
1.00661410e+00
1.00674261e+00
1.00685548e+00
1.00695394e+00
1.00703936e+00
1.00711317e+00
1.00717679e+00
1.00723160e+00
1.00727893e+00
1.00731994e+00
1.00735572e+00
1.00738719e+00
1.00741510e+00
1.00744011e+00
1.00746270e+00
1.00748327e+00
1.00750208e+00
1.00751934e+00
1.00753518e+00
1.00754968e+00
1.00756296e+00
1.00757510e+00
1.00758626e+00
1.00759661e+00
1.00760641e+00
1.00761592e+00
1.00762542e+00
1.00763510e+00
1.00764501e+00
1.00765535e+00
1.00766589e+00
1.00767633e+00
1.00768628e+00
1.00769593e+00
1.00770420e+00
1.00771168e+00
1.00771716e+00
1.00772086e+00
1.00772355e+00
1.00772545e+00
1.00772619e+00
9.92386472e-01
9.92392353e-01
9.92401015e-01
9.92406569e-01
9.92411749e-01
9.92418948e-01
9.92427738e-01
9.92436823e-01
9.92446644e-01
9.92457050e-01
9.92467290e-01
9.92477231e-01
9.92487264e-01
9.92497065e-01
9.92506543e-01
9.92516018e-01
9.92525722e-01
9.92535753e-01
9.92546338e-01
9.92557710e-01
9.92570020e-01
9.92583393e-01
9.92597958e-01
9.92613844e-01
9.92631199e-01
9.92650225e-01
9.92671201e-01
9.92694502e-01
9.92720621e-01
9.92750184e-01
9.92783961e-01
9.92822875e-01
9.92867994e-01
9.92920527e-01
9.92981801e-01
9.93053233e-01
9.93136284e-01
9.93232412e-01
9.93343011e-01
9.93469344e-01
9.93612480e-01
9.93773225e-01
9.93952072e-01
9.94149155e-01
9.94364227e-01
9.94596652e-01
9.94845422e-01
9.95109196e-01
9.95386354e-01
9.95675069e-01
9.95973385e-01
9.96279307e-01
9.96590877e-01
9.96906255e-01
9.97223782e-01
9.97542032e-01
9.97859845e-01
9.98176347e-01
9.98490951e-01
9.98803349e-01
9.99113483e-01
9.99421515e-01
9.99727779e-01
1.00003273e+00
1.00033691e+00
1.00064085e+00
1.00094507e+00
1.00124997e+00
1.00155583e+00
1.00186273e+00
1.00217053e+00
1.00247887e+00
1.00278711e+00
1.00309439e+00
1.00339958e+00
1.00370136e+00
1.00399824e+00
1.00428861e+00
1.00457081e+00
1.00484317e+00
1.00510408e+00
1.00535209e+00
1.00558592e+00
1.00580452e+00
1.00600713e+00
1.00619329e+00
1.00636284e+00
1.00651593e+00
1.00665301e+00
1.00677478e+00
1.00688214e+00
1.00697618e+00
1.00705810e+00
1.00712917e+00
1.00719067e+00
1.00724385e+00
1.00728991e+00
1.00732994e+00
1.00736492e+00
1.00739571e+00
1.00742303e+00
1.00744747e+00
1.00746950e+00
1.00748947e+00
1.00750766e+00
1.00752424e+00
1.00753936e+00
1.00755317e+00
1.00756580e+00
1.00757741e+00
1.00758818e+00
1.00759842e+00
1.00760839e+00
1.00761825e+00
1.00762824e+00
1.00763864e+00
1.00764932e+00
1.00765991e+00
1.00767060e+00
1.00768107e+00
1.00769072e+00
1.00769941e+00
1.00770717e+00
1.00771319e+00
1.00771714e+00
1.00772130e+00
1.00772872e+00
1.00773362e+00
9.92382530e-01
9.92391414e-01
9.92401000e-01
9.92409091e-01
9.92416306e-01
9.92424744e-01
9.92434422e-01
9.92444772e-01
9.92455178e-01
9.92466068e-01
9.92477067e-01
9.92487816e-01
9.92498350e-01
9.92508689e-01
9.92518894e-01
9.92529076e-01
9.92539417e-01
9.92550139e-01
9.92561477e-01
9.92573616e-01
9.92586739e-01
9.92601025e-01
9.92616642e-01
9.92633772e-01
9.92652641e-01
9.92673545e-01
9.92696870e-01
9.92723112e-01
9.92752900e-01
9.92786997e-01
9.92826311e-01
9.92871883e-01
9.92924878e-01
9.92986553e-01
9.93058226e-01
9.93141227e-01
9.93236846e-01
9.93346272e-01
9.93470531e-01
9.93610429e-01
9.93766500e-01
9.93938966e-01
9.94127721e-01
9.94332322e-01
9.94552013e-01
9.94785761e-01
9.95032310e-01
9.95290252e-01
9.95558094e-01
9.95834333e-01
9.96117521e-01
9.96406315e-01
9.96699519e-01
9.96996104e-01
9.97295212e-01
9.97596148e-01
9.97898365e-01
9.98201437e-01
9.98505036e-01
9.98808905e-01
9.99112843e-01
9.99416682e-01
9.99720285e-01
1.00002353e+00
1.00032633e+00
1.00062858e+00
1.00093020e+00
1.00123112e+00
1.00153123e+00
1.00183042e+00
1.00212850e+00
1.00242523e+00
1.00272026e+00
1.00301314e+00
1.00330328e+00
1.00358995e+00
1.00387230e+00
1.00414931e+00
1.00441989e+00
1.00468284e+00
1.00493694e+00
1.00518094e+00
1.00541365e+00
1.00563398e+00
1.00584099e+00
1.00603391e+00
1.00621221e+00
1.00637560e+00
1.00652406e+00
1.00665781e+00
1.00677732e+00
1.00688329e+00
1.00697660e+00
1.00705826e+00
1.00712937e+00
1.00719110e+00
1.00724460e+00
1.00729098e+00
1.00733130e+00
1.00736649e+00
1.00739740e+00
1.00742473e+00
1.00744908e+00
1.00747091e+00
1.00749058e+00
1.00750837e+00
1.00752452e+00
1.00753920e+00
1.00755260e+00
1.00756491e+00
1.00757637e+00
1.00758722e+00
1.00759772e+00
1.00760815e+00
1.00761872e+00
1.00762951e+00
1.00764049e+00
1.00765163e+00
1.00766285e+00
1.00767369e+00
1.00768372e+00
1.00769331e+00
1.00770166e+00
1.00770874e+00
1.00771460e+00
1.00772079e+00
1.00772855e+00
1.00773497e+00
9.92383181e-01
9.92393606e-01
9.92404766e-01
9.92414934e-01
9.92424641e-01
9.92434493e-01
9.92444955e-01
9.92456581e-01
9.92468287e-01
9.92479782e-01
9.92491489e-01
9.92503197e-01
9.92514477e-01
9.92525522e-01
9.92536572e-01
9.92547599e-01
9.92558776e-01
9.92570408e-01
9.92582708e-01
9.92595865e-01
9.92610117e-01
9.92625689e-01
9.92642805e-01
9.92661733e-01
9.92682807e-01
9.92706444e-01
9.92733171e-01
9.92763641e-01
9.92798647e-01
9.92839117e-01
9.92886108e-01
9.92940785e-01
9.93004389e-01
9.93078189e-01
9.93163434e-01
9.93261288e-01
9.93372765e-01
9.93498669e-01
9.93639534e-01
9.93795584e-01
9.93966703e-01
9.94152438e-01
9.94352013e-01
9.94564381e-01
9.94788283e-01
9.95022332e-01
9.95265102e-01
9.95515212e-01
9.95771408e-01
9.96032618e-01
9.96297998e-01
9.96566936e-01
9.96839044e-01
9.97114126e-01
9.97392118e-01
9.97673039e-01
9.97956919e-01
9.98243748e-01
9.98533426e-01
9.98825738e-01
9.99120337e-01
9.99416749e-01
9.99714398e-01
1.00001263e+00
1.00031077e+00
1.00060812e+00
1.00090407e+00
1.00119806e+00
1.00148964e+00
1.00177847e+00
1.00206431e+00
1.00234703e+00
1.00262652e+00
1.00290275e+00
1.00317563e+00
1.00344504e+00
1.00371074e+00
1.00397239e+00
1.00422947e+00
1.00448134e+00
1.00472718e+00
1.00496605e+00
1.00519690e+00
1.00541865e+00
1.00563020e+00
1.00583052e+00
1.00601870e+00
1.00619397e+00
1.00635580e+00
1.00650388e+00
1.00663817e+00
1.00675888e+00
1.00686647e+00
1.00696161e+00
1.00704517e+00
1.00711812e+00
1.00718153e+00
1.00723651e+00
1.00728414e+00
1.00732546e+00
1.00736143e+00
1.00739289e+00
1.00742057e+00
1.00744509e+00
1.00746694e+00
1.00748651e+00
1.00750413e+00
1.00752007e+00
1.00753456e+00
1.00754785e+00
1.00756022e+00
1.00757190e+00
1.00758316e+00
1.00759434e+00
1.00760561e+00
1.00761695e+00
1.00762855e+00
1.00764047e+00
1.00765221e+00
1.00766357e+00
1.00767469e+00
1.00768531e+00
1.00769455e+00
1.00770286e+00
1.00771054e+00
1.00771892e+00
1.00772800e+00
1.00773505e+00
9.92389832e-01
9.92402653e-01
9.92416303e-01
9.92427268e-01
9.92438618e-01
9.92450603e-01
9.92462656e-01
9.92474991e-01
9.92487796e-01
9.92500532e-01
9.92513059e-01
9.92525424e-01
9.92537633e-01
9.92549656e-01
9.92561536e-01
9.92573465e-01
9.92585700e-01
9.92598434e-01
9.92611888e-01
9.92626352e-01
9.92642099e-01
9.92659395e-01
9.92678561e-01
9.92699987e-01
9.92724134e-01
9.92751573e-01
9.92783007e-01
9.92819272e-01
9.92861344e-01
9.92910320e-01
9.92967400e-01
9.93033839e-01
9.93110903e-01
9.93199798e-01
9.93301607e-01
9.93417213e-01
9.93547232e-01
9.93691958e-01
9.93851317e-01
9.94024857e-01
9.94211755e-01
9.94410855e-01
9.94620743e-01
9.94839832e-01
9.95066469e-01
9.95299049e-01
9.95536122e-01
9.95776479e-01
9.96019223e-01
9.96263802e-01
9.96510007e-01
9.96757943e-01
9.97007963e-01
9.97260595e-01
9.97516441e-01
9.97776081e-01
9.98039993e-01
9.98308470e-01
9.98581574e-01
9.98859108e-01
9.99140613e-01
9.99425389e-01
9.99712541e-01
1.00000104e+00
1.00028977e+00
1.00057763e+00
1.00086359e+00
1.00114675e+00
1.00142638e+00
1.00170196e+00
1.00197320e+00
1.00224002e+00
1.00250251e+00
1.00276093e+00
1.00301562e+00
1.00326695e+00
1.00351524e+00
1.00376072e+00
1.00400345e+00
1.00424330e+00
1.00447989e+00
1.00471264e+00
1.00494072e+00
1.00516312e+00
1.00537869e+00
1.00558618e+00
1.00578437e+00
1.00597207e+00
1.00614825e+00
1.00631207e+00
1.00646292e+00
1.00660049e+00
1.00672474e+00
1.00683592e+00
1.00693454e+00
1.00702133e+00
1.00709719e+00
1.00716315e+00
1.00722029e+00
1.00726970e+00
1.00731244e+00
1.00734951e+00
1.00738178e+00
1.00741003e+00
1.00743491e+00
1.00745696e+00
1.00747662e+00
1.00749427e+00
1.00751025e+00
1.00752484e+00
1.00753834e+00
1.00755110e+00
1.00756337e+00
1.00757540e+00
1.00758744e+00
1.00759966e+00
1.00761212e+00
1.00762468e+00
1.00763721e+00
1.00764972e+00
1.00766200e+00
1.00767346e+00
1.00768435e+00
1.00769474e+00
1.00770400e+00
1.00771347e+00
1.00772490e+00
1.00773400e+00
9.92407026e-01
9.92423083e-01
9.92438550e-01
9.92450592e-01
9.92463234e-01
9.92476629e-01
9.92490332e-01
9.92503633e-01
9.92517227e-01
9.92530968e-01
9.92544398e-01
9.92557530e-01
9.92570607e-01
9.92583517e-01
9.92596313e-01
9.92609298e-01
9.92622676e-01
9.92636638e-01
9.92651503e-01
9.92667600e-01
9.92685236e-01
9.92704784e-01
9.92726693e-01
9.92751485e-01
9.92779784e-01
9.92812351e-01
9.92850085e-01
9.92894018e-01
9.92945306e-01
9.93005199e-01
9.93074993e-01
9.93155970e-01
9.93249327e-01
9.93356094e-01
9.93477060e-01
9.93612690e-01
9.93763071e-01
9.93927870e-01
9.94106325e-01
9.94297264e-01
9.94499165e-01
9.94710241e-01
9.94928552e-01
9.95152132e-01
9.95379126e-01
9.95607910e-01
9.95837194e-01
9.96066095e-01
9.96294174e-01
9.96521427e-01
9.96748248e-01
9.96975352e-01
9.97203678e-01
9.97434275e-01
9.97668189e-01
9.97906355e-01
9.98149504e-01
9.98398096e-01
9.98652272e-01
9.98911839e-01
9.99176282e-01
9.99444792e-01
9.99716328e-01
9.99989680e-01
1.00026355e+00
1.00053663e+00
1.00080768e+00
1.00107564e+00
1.00133961e+00
1.00159899e+00
1.00185341e+00
1.00210282e+00
1.00234742e+00
1.00258764e+00
1.00282408e+00
1.00305747e+00
1.00328851e+00
1.00351789e+00
1.00374614e+00
1.00397359e+00
1.00420030e+00
1.00442604e+00
1.00465026e+00
1.00487212e+00
1.00509051e+00
1.00530413e+00
1.00551151e+00
1.00571117e+00
1.00590163e+00
1.00608158e+00
1.00624986e+00
1.00640561e+00
1.00654824e+00
1.00667751e+00
1.00679350e+00
1.00689659e+00
1.00698741e+00
1.00706682e+00
1.00713582e+00
1.00719551e+00
1.00724702e+00
1.00729143e+00
1.00732980e+00
1.00736305e+00
1.00739200e+00
1.00741739e+00
1.00743978e+00
1.00745970e+00
1.00747759e+00
1.00749384e+00
1.00750879e+00
1.00752281e+00
1.00753626e+00
1.00754935e+00
1.00756235e+00
1.00757552e+00
1.00758886e+00
1.00760226e+00
1.00761587e+00
1.00762954e+00
1.00764286e+00
1.00765563e+00
1.00766840e+00
1.00768060e+00
1.00769170e+00
1.00770259e+00
1.00771633e+00
1.00772900e+00
9.92441645e-01
9.92460213e-01
9.92475892e-01
9.92489308e-01
9.92503409e-01
9.92517278e-01
9.92531768e-01
9.92546256e-01
9.92560595e-01
9.92574747e-01
9.92588895e-01
9.92602866e-01
9.92616599e-01
9.92630242e-01
9.92644030e-01
9.92658097e-01
9.92672639e-01
9.92688012e-01
9.92704566e-01
9.92722637e-01
9.92742651e-01
9.92765125e-01
9.92790637e-01
9.92819875e-01
9.92853667e-01
9.92892979e-01
9.92938912e-01
9.92992688e-01
9.93055617e-01
9.93129046e-01
9.93214287e-01
9.93312539e-01
9.93424804e-01
9.93551791e-01
9.93693841e-01
9.93850863e-01
9.94022294e-01
9.94207094e-01
9.94403781e-01
9.94610498e-01
9.94825116e-01
9.95045366e-01
9.95268986e-01
9.95493866e-01
9.95718184e-01
9.95940522e-01
9.96159934e-01
9.96375985e-01
9.96588741e-01
9.96798721e-01
9.97006815e-01
9.97214178e-01
9.97422111e-01
9.97631944e-01
9.97844918e-01
9.98062092e-01
9.98284266e-01
9.98511928e-01
9.98745230e-01
9.98983982e-01
9.99227679e-01
9.99475532e-01
9.99726529e-01
9.99979495e-01
1.00023317e+00
1.00048628e+00
1.00073760e+00
1.00098607e+00
1.00123079e+00
1.00147112e+00
1.00170669e+00
1.00193744e+00
1.00216357e+00
1.00238558e+00
1.00260418e+00
1.00282023e+00
1.00303469e+00
1.00324851e+00
1.00346257e+00
1.00367754e+00
1.00389387e+00
1.00411168e+00
1.00433074e+00
1.00455046e+00
1.00476990e+00
1.00498780e+00
1.00520265e+00
1.00541276e+00
1.00561639e+00
1.00581179e+00
1.00599735e+00
1.00617167e+00
1.00633362e+00
1.00648241e+00
1.00661761e+00
1.00673914e+00
1.00684729e+00
1.00694262e+00
1.00702597e+00
1.00709833e+00
1.00716082e+00
1.00721461e+00
1.00726086e+00
1.00730065e+00
1.00733498e+00
1.00736476e+00
1.00739075e+00
1.00741362e+00
1.00743395e+00
1.00745225e+00
1.00746897e+00
1.00748450e+00
1.00749922e+00
1.00751351e+00
1.00752760e+00
1.00754167e+00
1.00755587e+00
1.00757031e+00
1.00758494e+00
1.00759946e+00
1.00761399e+00
1.00762842e+00
1.00764265e+00
1.00765618e+00
1.00766945e+00
1.00768218e+00
1.00769759e+00
1.00771411e+00
9.92499404e-01
9.92519404e-01
9.92534888e-01
9.92548528e-01
9.92563227e-01
9.92577524e-01
9.92592155e-01
9.92606925e-01
9.92621629e-01
9.92636074e-01
9.92650545e-01
9.92664903e-01
9.92679142e-01
9.92693492e-01
9.92708117e-01
9.92723173e-01
9.92739004e-01
9.92755991e-01
9.92774489e-01
9.92794966e-01
9.92818001e-01
9.92844231e-01
9.92874405e-01
9.92909426e-01
9.92950334e-01
9.92998299e-01
9.93054615e-01
9.93120657e-01
9.93197824e-01
9.93287465e-01
9.93390788e-01
9.93508768e-01
9.93642049e-01
9.93790856e-01
9.93954935e-01
9.94133515e-01
9.94325303e-01
9.94528536e-01
9.94741057e-01
9.94960436e-01
9.95184119e-01
9.95409585e-01
9.95634507e-01
9.95856895e-01
9.96075211e-01
9.96288437e-01
9.96496111e-01
9.96698305e-01
9.96895573e-01
9.97088857e-01
9.97279385e-01
9.97468545e-01
9.97657769e-01
9.97848427e-01
9.98041735e-01
9.98238681e-01
9.98439985e-01
9.98646069e-01
9.98857053e-01
9.99072770e-01
9.99292785e-01
9.99516444e-01
9.99742907e-01
9.99971210e-01
1.00020031e+00
1.00042915e+00
1.00065672e+00
1.00088209e+00
1.00110450e+00
1.00132336e+00
1.00153833e+00
1.00174934e+00
1.00195654e+00
1.00216040e+00
1.00236159e+00
1.00256098e+00
1.00275958e+00
1.00295846e+00
1.00315865e+00
1.00336110e+00
1.00356652e+00
1.00377536e+00
1.00398772e+00
1.00420333e+00
1.00442150e+00
1.00464116e+00
1.00486091e+00
1.00507904e+00
1.00529365e+00
1.00550275e+00
1.00570436e+00
1.00589662e+00
1.00607787e+00
1.00624678e+00
1.00640236e+00
1.00654400e+00
1.00667151e+00
1.00678507e+00
1.00688521e+00
1.00697272e+00
1.00704863e+00
1.00711408e+00
1.00717028e+00
1.00721844e+00
1.00725973e+00
1.00729522e+00
1.00732588e+00
1.00735255e+00
1.00737598e+00
1.00739680e+00
1.00741560e+00
1.00743288e+00
1.00744906e+00
1.00746454e+00
1.00747968e+00
1.00749466e+00
1.00750969e+00
1.00752491e+00
1.00754025e+00
1.00755559e+00
1.00757117e+00
1.00758664e+00
1.00760188e+00
1.00761679e+00
1.00763182e+00
1.00764575e+00
1.00766249e+00
1.00768240e+00
9.92586053e-01
9.92606229e-01
9.92620979e-01
9.92633485e-01
9.92647463e-01
9.92661689e-01
9.92675928e-01
9.92690041e-01
9.92704427e-01
9.92718825e-01
9.92733122e-01
9.92747429e-01
9.92761964e-01
9.92776787e-01
9.92792046e-01
9.92808107e-01
9.92825344e-01
9.92844112e-01
9.92864918e-01
9.92888396e-01
9.92915234e-01
9.92946239e-01
9.92982388e-01
9.93024797e-01
9.93074708e-01
9.93133486e-01
9.93202573e-01
9.93283423e-01
9.93377417e-01
9.93485772e-01
9.93609438e-01
9.93748991e-01
9.93904547e-01
9.94075694e-01
9.94261457e-01
9.94460310e-01
9.94670225e-01
9.94888775e-01
9.95113264e-01
9.95340891e-01
9.95568925e-01
9.95794869e-01
9.96016612e-01
9.96232537e-01
9.96441587e-01
9.96643288e-01
9.96837717e-01
9.97025435e-01
9.97207392e-01
9.97384811e-01
9.97559070e-01
9.97731584e-01
9.97903714e-01
9.98076682e-01
9.98251514e-01
9.98429009e-01
9.98609722e-01
9.98793965e-01
9.98981820e-01
9.99173163e-01
9.99367690e-01
9.99564947e-01
9.99764362e-01
9.99965278e-01
1.00016699e+00
1.00036876e+00
1.00056989e+00
1.00076972e+00
1.00096769e+00
1.00116335e+00
1.00135643e+00
1.00154684e+00
1.00173471e+00
1.00192038e+00
1.00210442e+00
1.00228759e+00
1.00247081e+00
1.00265512e+00
1.00284160e+00
1.00303129e+00
1.00322510e+00
1.00342373e+00
1.00362761e+00
1.00383678e+00
1.00405091e+00
1.00426924e+00
1.00449059e+00
1.00471341e+00
1.00493584e+00
1.00515579e+00
1.00537106e+00
1.00557946e+00
1.00577890e+00
1.00596750e+00
1.00614372e+00
1.00630637e+00
1.00645471e+00
1.00658842e+00
1.00670758e+00
1.00681268e+00
1.00690449e+00
1.00698404e+00
1.00705251e+00
1.00711117e+00
1.00716128e+00
1.00720408e+00
1.00724072e+00
1.00727225e+00
1.00729959e+00
1.00732356e+00
1.00734485e+00
1.00736412e+00
1.00738190e+00
1.00739862e+00
1.00741467e+00
1.00743043e+00
1.00744607e+00
1.00746166e+00
1.00747737e+00
1.00749323e+00
1.00750919e+00
1.00752490e+00
1.00754074e+00
1.00755651e+00
1.00757218e+00
1.00758627e+00
1.00760368e+00
1.00762604e+00
9.92707084e-01
9.92725418e-01
9.92737412e-01
9.92748256e-01
9.92760776e-01
9.92773428e-01
9.92786335e-01
9.92799389e-01
9.92812737e-01
9.92826245e-01
9.92839914e-01
9.92853902e-01
9.92868319e-01
9.92883289e-01
9.92899135e-01
9.92916233e-01
9.92934941e-01
9.92955787e-01
9.92979442e-01
9.93006639e-01
9.93038235e-01
9.93075281e-01
9.93118965e-01
9.93170595e-01
9.93231608e-01
9.93303514e-01
9.93387816e-01
9.93485926e-01
9.93599067e-01
9.93728160e-01
9.93873712e-01
9.94035723e-01
9.94213624e-01
9.94406241e-01
9.94611816e-01
9.94828074e-01
9.95052332e-01
9.95281654e-01
9.95513027e-01
9.95743546e-01
9.95970593e-01
9.96191981e-01
9.96406064e-01
9.96611791e-01
9.96808715e-01
9.96996946e-01
9.97177071e-01
9.97350047e-01
9.97517078e-01
9.97679494e-01
9.97838644e-01
9.97995807e-01
9.98152120e-01
9.98308546e-01
9.98465844e-01
9.98624577e-01
9.98785115e-01
9.98947666e-01
9.99112294e-01
9.99278943e-01
9.99447469e-01
9.99617649e-01
9.99789207e-01
9.99961823e-01
1.00013515e+00
1.00030882e+00
1.00048246e+00
1.00065573e+00
1.00082831e+00
1.00099994e+00
1.00117045e+00
1.00133978e+00
1.00150802e+00
1.00167540e+00
1.00184234e+00
1.00200942e+00
1.00217741e+00
1.00234721e+00
1.00251982e+00
1.00269627e+00
1.00287756e+00
1.00306458e+00
1.00325799e+00
1.00345819e+00
1.00366521e+00
1.00387866e+00
1.00409775e+00
1.00432121e+00
1.00454739e+00
1.00477431e+00
1.00499972e+00
1.00522125e+00
1.00543648e+00
1.00564312e+00
1.00583909e+00
1.00602263e+00
1.00619239e+00
1.00634745e+00
1.00648737e+00
1.00661215e+00
1.00672221e+00
1.00681831e+00
1.00690148e+00
1.00697293e+00
1.00703398e+00
1.00708597e+00
1.00713020e+00
1.00716789e+00
1.00720017e+00
1.00722806e+00
1.00725242e+00
1.00727401e+00
1.00729352e+00
1.00731152e+00
1.00732842e+00
1.00734465e+00
1.00736050e+00
1.00737614e+00
1.00739170e+00
1.00740727e+00
1.00742280e+00
1.00743819e+00
1.00745365e+00
1.00746883e+00
1.00748418e+00
1.00749768e+00
1.00751366e+00
1.00753655e+00
9.92864598e-01
9.92879096e-01
9.92886791e-01
9.92895183e-01
9.92905235e-01
9.92915204e-01
9.92925913e-01
9.92937199e-01
9.92948774e-01
9.92960779e-01
9.92973385e-01
9.92986613e-01
9.93000546e-01
9.93015535e-01
9.93031924e-01
9.93050062e-01
9.93070483e-01
9.93093892e-01
9.93121045e-01
9.93152848e-01
9.93190411e-01
9.93234989e-01
9.93287954e-01
9.93350811e-01
9.93425132e-01
9.93512467e-01
9.93614257e-01
9.93731727e-01
9.93865762e-01
9.94016796e-01
9.94184711e-01
9.94368777e-01
9.94567620e-01
9.94779256e-01
9.95001164e-01
9.95230421e-01
9.95463867e-01
9.95698301e-01
9.95930677e-01
9.96158289e-01
9.96378916e-01
9.96590925e-01
9.96793315e-01
9.96985707e-01
9.97168284e-01
9.97341690e-01
9.97506915e-01
9.97665160e-01
9.97817718e-01
9.97965864e-01
9.98110780e-01
9.98253492e-01
9.98394850e-01
9.98535516e-01
9.98675982e-01
9.98816591e-01
9.98957567e-01
9.99099044e-01
9.99241098e-01
9.99383766e-01
9.99527060e-01
9.99670981e-01
9.99815520e-01
9.99960660e-01
1.00010638e+00
1.00025263e+00
1.00039936e+00
1.00054651e+00
1.00069401e+00
1.00084180e+00
1.00098983e+00
1.00113810e+00
1.00128668e+00
1.00143573e+00
1.00158551e+00
1.00173645e+00
1.00188910e+00
1.00204417e+00
1.00220252e+00
1.00236507e+00
1.00253283e+00
1.00270674e+00
1.00288768e+00
1.00307632e+00
1.00327306e+00
1.00347793e+00
1.00369056e+00
1.00391012e+00
1.00413532e+00
1.00436445e+00
1.00459542e+00
1.00482585e+00
1.00505319e+00
1.00527485e+00
1.00548833e+00
1.00569134e+00
1.00588191e+00
1.00605851e+00
1.00622006e+00
1.00636598e+00
1.00649619e+00
1.00661102e+00
1.00671122e+00
1.00679783e+00
1.00687207e+00
1.00693531e+00
1.00698896e+00
1.00703440e+00
1.00707291e+00
1.00710569e+00
1.00713384e+00
1.00715826e+00
1.00717976e+00
1.00719908e+00
1.00721677e+00
1.00723326e+00
1.00724892e+00
1.00726410e+00
1.00727890e+00
1.00729336e+00
1.00730763e+00
1.00732176e+00
1.00733561e+00
1.00734886e+00
1.00736257e+00
1.00737432e+00
1.00738683e+00
1.00740770e+00
9.93057507e-01
9.93066685e-01
9.93069568e-01
9.93074223e-01
9.93080590e-01
9.93087492e-01
9.93095298e-01
9.93103851e-01
9.93113135e-01
9.93123316e-01
9.93134370e-01
9.93146430e-01
9.93159764e-01
9.93174717e-01
9.93191617e-01
9.93211007e-01
9.93233593e-01
9.93260157e-01
9.93291634e-01
9.93329188e-01
9.93374128e-01
9.93427886e-01
9.93492025e-01
9.93568179e-01
9.93657940e-01
9.93762773e-01
9.93883899e-01
9.94022171e-01
9.94177942e-01
9.94350974e-01
9.94540374e-01
9.94744569e-01
9.94961348e-01
9.95187952e-01
9.95421224e-01
9.95657795e-01
9.95894294e-01
9.96127556e-01
9.96354815e-01
9.96573846e-01
9.96783063e-01
9.96981549e-01
9.97169029e-01
9.97345791e-01
9.97512571e-01
9.97670422e-01
9.97820571e-01
9.97964297e-01
9.98102827e-01
9.98237257e-01
9.98368513e-01
9.98497332e-01
9.98624268e-01
9.98749719e-01
9.98873956e-01
9.98997163e-01
9.99119473e-01
9.99240998e-01
9.99361851e-01
9.99482160e-01
9.99602079e-01
9.99721787e-01
9.99841484e-01
9.99961384e-01
1.00008170e+00
1.00020265e+00
1.00032442e+00
1.00044717e+00
1.00057106e+00
1.00069617e+00
1.00082262e+00
1.00095046e+00
1.00107978e+00
1.00121070e+00
1.00134339e+00
1.00147811e+00
1.00161525e+00
1.00175530e+00
1.00189893e+00
1.00204692e+00
1.00220017e+00
1.00235965e+00
1.00252631e+00
1.00270103e+00
1.00288452e+00
1.00307722e+00
1.00327923e+00
1.00349021e+00
1.00370935e+00
1.00393537e+00
1.00416651e+00
1.00440059e+00
1.00463514e+00
1.00486745e+00
1.00509476e+00
1.00531434e+00
1.00552372e+00
1.00572072e+00
1.00590360e+00
1.00607112e+00
1.00622256e+00
1.00635774e+00
1.00647692e+00
1.00658082e+00
1.00667046e+00
1.00674711e+00
1.00681216e+00
1.00686709e+00
1.00691334e+00
1.00695225e+00
1.00698510e+00
1.00701304e+00
1.00703701e+00
1.00705785e+00
1.00707630e+00
1.00709293e+00
1.00710815e+00
1.00712233e+00
1.00713572e+00
1.00714848e+00
1.00716064e+00
1.00717228e+00
1.00718342e+00
1.00719384e+00
1.00720419e+00
1.00721253e+00
1.00722027e+00
1.00723661e+00
9.93282363e-01
9.93284908e-01
9.93282459e-01
9.93282715e-01
9.93284820e-01
9.93288126e-01
9.93292417e-01
9.93297850e-01
9.93304552e-01
9.93312524e-01
9.93321749e-01
9.93332580e-01
9.93345293e-01
9.93360213e-01
9.93377858e-01
9.93398949e-01
9.93424268e-01
9.93454776e-01
9.93491673e-01
9.93536317e-01
9.93590185e-01
9.93654897e-01
9.93732142e-01
9.93823550e-01
9.93930605e-01
9.94054530e-01
9.94196135e-01
9.94355697e-01
9.94532858e-01
9.94726561e-01
9.94935037e-01
9.95155850e-01
9.95386010e-01
9.95622134e-01
9.95860656e-01
9.96098047e-01
9.96331043e-01
9.96556837e-01
9.96773223e-01
9.96978687e-01
9.97172419e-01
9.97354274e-01
9.97524670e-01
9.97684461e-01
9.97834787e-01
9.97976929e-01
9.98112180e-01
9.98241743e-01
9.98366660e-01
9.98487782e-01
9.98605755e-01
9.98721042e-01
9.98833955e-01
9.98944694e-01
9.99053388e-01
9.99160136e-01
9.99265039e-01
9.99368220e-01
9.99469843e-01
9.99570118e-01
9.99669303e-01
9.99767698e-01
9.99865634e-01
9.99963471e-01
1.00006158e+00
1.00016031e+00
1.00026003e+00
1.00036106e+00
1.00046368e+00
1.00056813e+00
1.00067462e+00
1.00078330e+00
1.00089429e+00
1.00100770e+00
1.00112367e+00
1.00124233e+00
1.00136393e+00
1.00148881e+00
1.00161741e+00
1.00175037e+00
1.00188843e+00
1.00203247e+00
1.00218346e+00
1.00234240e+00
1.00251021e+00
1.00268768e+00
1.00287533e+00
1.00307334e+00
1.00328144e+00
1.00349889e+00
1.00372443e+00
1.00395628e+00
1.00419223e+00
1.00442967e+00
1.00466578e+00
1.00489760e+00
1.00512224e+00
1.00533699e+00
1.00553948e+00
1.00572777e+00
1.00590044e+00
1.00605664e+00
1.00619606e+00
1.00631890e+00
1.00642584e+00
1.00651790e+00
1.00659634e+00
1.00666262e+00
1.00671825e+00
1.00676473e+00
1.00680346e+00
1.00683576e+00
1.00686284e+00
1.00688566e+00
1.00690507e+00
1.00692182e+00
1.00693647e+00
1.00694940e+00
1.00696093e+00
1.00697138e+00
1.00698078e+00
1.00698914e+00
1.00699657e+00
1.00700316e+00
1.00700894e+00
1.00701266e+00
1.00701439e+00
1.00702377e+00
9.93532503e-01
9.93527642e-01
9.93519571e-01
9.93515453e-01
9.93513192e-01
9.93512437e-01
9.93513065e-01
9.93515428e-01
9.93519358e-01
9.93524974e-01
9.93532480e-01
9.93542193e-01
9.93554378e-01
9.93569570e-01
9.93588460e-01
9.93611841e-01
9.93640680e-01
9.93676209e-01
9.93719817e-01
9.93773023e-01
9.93837498e-01
9.93914976e-01
9.94007124e-01
9.94115447e-01
9.94241165e-01
9.94385054e-01
9.94547312e-01
9.94727465e-01
9.94924301e-01
9.95135855e-01
9.95359476e-01
9.95591948e-01
9.95829673e-01
9.96068896e-01
9.96305946e-01
9.96537472e-01
9.96760641e-01
9.96973286e-01
9.97173977e-01
9.97362031e-01
9.97537447e-01
9.97700790e-01
9.97853049e-01
9.97995467e-01
9.98129399e-01
9.98256170e-01
9.98376986e-01
9.98492860e-01
9.98604594e-01
9.98712775e-01
9.98817802e-01
9.98919924e-01
9.99019286e-01
9.99115973e-01
9.99210051e-01
9.99301593e-01
9.99390711e-01
9.99477560e-01
9.99562352e-01
9.99645353e-01
9.99726879e-01
9.99807293e-01
9.99886990e-01
9.99966390e-01
1.00004593e+00
1.00012604e+00
1.00020715e+00
1.00028966e+00
1.00037395e+00
1.00046033e+00
1.00054908e+00
1.00064042e+00
1.00073454e+00
1.00083155e+00
1.00093157e+00
1.00103470e+00
1.00114110e+00
1.00125095e+00
1.00136457e+00
1.00148240e+00
1.00160501e+00
1.00173316e+00
1.00186775e+00
1.00200976e+00
1.00216027e+00
1.00232027e+00
1.00249064e+00
1.00267204e+00
1.00286473e+00
1.00306858e+00
1.00328290e+00
1.00350649e+00
1.00373758e+00
1.00397391e+00
1.00421280e+00
1.00445129e+00
1.00468627e+00
1.00491465e+00
1.00513351e+00
1.00534028e+00
1.00553282e+00
1.00570955e+00
1.00586945e+00
1.00601213e+00
1.00613769e+00
1.00624678e+00
1.00634039e+00
1.00641982e+00
1.00648654e+00
1.00654211e+00
1.00658808e+00
1.00662589e+00
1.00665691e+00
1.00668235e+00
1.00670322e+00
1.00672035e+00
1.00673447e+00
1.00674616e+00
1.00675572e+00
1.00676352e+00
1.00676973e+00
1.00677451e+00
1.00677769e+00
1.00677958e+00
1.00678017e+00
1.00677881e+00
1.00677365e+00
1.00677429e+00
9.93798430e-01
9.93786364e-01
9.93773207e-01
9.93764904e-01
9.93758410e-01
9.93753832e-01
9.93751097e-01
9.93750491e-01
9.93751804e-01
9.93755395e-01
9.93761466e-01
9.93770315e-01
9.93782415e-01
9.93798477e-01
9.93819268e-01
9.93845770e-01
9.93879225e-01
9.93921054e-01
9.93972806e-01
9.94036196e-01
9.94113003e-01
9.94204928e-01
9.94313496e-01
9.94439929e-01
9.94584972e-01
9.94748755e-01
9.94930694e-01
9.95129427e-01
9.95342808e-01
9.95567976e-01
9.95801500e-01
9.96039579e-01
9.96278278e-01
9.96513796e-01
9.96742706e-01
9.96962163e-01
9.97170048e-01
9.97365029e-01
9.97546559e-01
9.97714790e-01
9.97870445e-01
9.98014650e-01
9.98148766e-01
9.98274229e-01
9.98392412e-01
9.98504535e-01
9.98611606e-01
9.98714397e-01
9.98813462e-01
9.98909159e-01
9.99001701e-01
9.99091203e-01
9.99177722e-01
9.99261303e-01
9.99342001e-01
9.99419909e-01
9.99495164e-01
9.99567957e-01
9.99638530e-01
9.99707174e-01
9.99774226e-01
9.99840056e-01
9.99905067e-01
9.99969682e-01
1.00003434e+00