# vtk DataFile Version 2.0
LBM Flow Field - Timestep 1980
ASCII
DATASET STRUCTURED_POINTS
DIMENSIONS 128 128 1
ORIGIN 0.0 0.0 0.0
SPACING 1.0 1.0 1.0
POINT_DATA 16384
SCALARS density double 1
LOOKUP_TABLE default
9.98825294e-01
9.98832075e-01
9.98840357e-01
9.98842882e-01
9.98847156e-01
9.98854216e-01
9.98862200e-01
9.98871383e-01
9.98882722e-01
9.98896173e-01
9.98911567e-01
9.98929131e-01
9.98949036e-01
9.98971280e-01
9.98995881e-01
9.99022893e-01
9.99052301e-01
9.99084045e-01
9.99118047e-01
9.99154203e-01
9.99192364e-01
9.99232357e-01
9.99273981e-01
9.99317013e-01
9.99361208e-01
9.99406307e-01
9.99452041e-01
9.99498135e-01
9.99544312e-01
9.99590303e-01
9.99635844e-01
9.99680685e-01
9.99724594e-01
9.99767354e-01
9.99808773e-01
9.99848678e-01
9.99886922e-01
9.99923379e-01
9.99957949e-01
9.99990552e-01
1.00002113e+00
1.00004964e+00
1.00007608e+00
1.00010042e+00
1.00012270e+00
1.00014292e+00
1.00016113e+00
1.00017737e+00
1.00019170e+00
1.00020418e+00
1.00021488e+00
1.00022387e+00
1.00023123e+00
1.00023705e+00
1.00024140e+00
1.00024438e+00
1.00024609e+00
1.00024662e+00
1.00024607e+00
1.00024455e+00
1.00024218e+00
1.00023908e+00
1.00023537e+00
1.00023120e+00
1.00022670e+00
1.00022205e+00
1.00021740e+00
1.00021293e+00
1.00020884e+00
1.00020533e+00
1.00020261e+00
1.00020090e+00
1.00020043e+00
1.00020142e+00
1.00020411e+00
1.00020872e+00
1.00021548e+00
1.00022461e+00
1.00023630e+00
1.00025074e+00
1.00026810e+00
1.00028850e+00
1.00031207e+00
1.00033888e+00
1.00036898e+00
1.00040239e+00
1.00043907e+00
1.00047898e+00
1.00052201e+00
1.00056804e+00
1.00061692e+00
1.00066845e+00
1.00072242e+00
1.00077860e+00
1.00083673e+00
1.00089653e+00
1.00095774e+00
1.00102005e+00
1.00108319e+00
1.00114685e+00
1.00121076e+00
1.00127462e+00
1.00133817e+00
1.00140113e+00
1.00146326e+00
1.00152431e+00
1.00158406e+00
1.00164228e+00
1.00169877e+00
1.00175335e+00
1.00180583e+00
1.00185606e+00
1.00190387e+00
1.00194913e+00
1.00199170e+00
1.00203151e+00
1.00206842e+00
1.00210229e+00
1.00213311e+00
1.00216090e+00
1.00218539e+00
1.00220647e+00
1.00222459e+00
1.00223988e+00
1.00225123e+00
1.00225924e+00
1.00226762e+00
1.00227303e+00
9.98832989e-01
9.98835169e-01
9.98840794e-01
9.98844545e-01
9.98849470e-01
9.98856114e-01
9.98864234e-01
9.98873865e-01
9.98885330e-01
9.98898814e-01
9.98914362e-01
9.98932075e-01
9.98952052e-01
9.98974364e-01
9.98999039e-01
9.99026094e-01
9.99055514e-01
9.99087252e-01
9.99121225e-01
9.99157324e-01
9.99195403e-01
9.99235290e-01
9.99276785e-01
9.99319667e-01
9.99363692e-01
9.99408605e-01
9.99454138e-01
9.99500021e-01
9.99545979e-01
9.99591747e-01
9.99637064e-01
9.99681684e-01
9.99725376e-01
9.99767927e-01
9.99809147e-01
9.99848866e-01
9.99886936e-01
9.99923235e-01
9.99957661e-01
9.99990136e-01
1.00002060e+00
1.00004902e+00
1.00007537e+00
1.00009965e+00
1.00012187e+00
1.00014205e+00
1.00016023e+00
1.00017645e+00
1.00019077e+00
1.00020325e+00
1.00021396e+00
1.00022297e+00
1.00023036e+00
1.00023621e+00
1.00024061e+00
1.00024364e+00
1.00024540e+00
1.00024600e+00
1.00024552e+00
1.00024409e+00
1.00024181e+00
1.00023880e+00
1.00023520e+00
1.00023114e+00
1.00022677e+00
1.00022225e+00
1.00021775e+00
1.00021344e+00
1.00020951e+00
1.00020618e+00
1.00020363e+00
1.00020211e+00
1.00020182e+00
1.00020299e+00
1.00020586e+00
1.00021065e+00
1.00021758e+00
1.00022686e+00
1.00023870e+00
1.00025326e+00
1.00027071e+00
1.00029119e+00
1.00031480e+00
1.00034163e+00
1.00037170e+00
1.00040505e+00
1.00044163e+00
1.00048140e+00
1.00052426e+00
1.00057009e+00
1.00061872e+00
1.00066997e+00
1.00072364e+00
1.00077949e+00
1.00083726e+00
1.00089670e+00
1.00095752e+00
1.00101945e+00
1.00108220e+00
1.00114548e+00
1.00120902e+00
1.00127252e+00
1.00133573e+00
1.00139838e+00
1.00146023e+00
1.00152102e+00
1.00158055e+00
1.00163859e+00
1.00169494e+00
1.00174941e+00
1.00180182e+00
1.00185201e+00
1.00189983e+00
1.00194514e+00
1.00198780e+00
1.00202770e+00
1.00206473e+00
1.00209879e+00
1.00212981e+00
1.00215773e+00
1.00218241e+00
1.00220391e+00
1.00222226e+00
1.00223748e+00
1.00224921e+00
1.00225805e+00
1.00226502e+00
1.00226792e+00
9.98841144e-01
9.98840386e-01
9.98839927e-01
9.98845186e-01
9.98851407e-01
9.98857357e-01
9.98865258e-01
9.98875328e-01
9.98886950e-01
9.98900381e-01
9.98916018e-01
9.98933857e-01
9.98953889e-01
9.98976239e-01
9.99000969e-01
9.99028061e-01
9.99057492e-01
9.99089228e-01
9.99123186e-01
9.99159247e-01
9.99197270e-01
9.99237084e-01
9.99278488e-01
9.99321261e-01
9.99365161e-01
9.99409934e-01
9.99455314e-01
9.99501033e-01
9.99546820e-01
9.99592409e-01
9.99637545e-01
9.99681983e-01
9.99725495e-01
9.99767870e-01
9.99808919e-01
9.99848475e-01
9.99886393e-01
9.99922549e-01
9.99956844e-01
9.99989201e-01
1.00001956e+00
1.00004789e+00
1.00007416e+00
1.00009837e+00
1.00012053e+00
1.00014067e+00
1.00015881e+00
1.00017502e+00
1.00018933e+00
1.00020181e+00
1.00021253e+00
1.00022156e+00
1.00022898e+00
1.00023487e+00
1.00023931e+00
1.00024241e+00
1.00024424e+00
1.00024491e+00
1.00024453e+00
1.00024320e+00
1.00024104e+00
1.00023816e+00
1.00023470e+00
1.00023080e+00
1.00022660e+00
1.00022226e+00
1.00021795e+00
1.00021385e+00
1.00021014e+00
1.00020703e+00
1.00020473e+00
1.00020345e+00
1.00020341e+00
1.00020484e+00
1.00020796e+00
1.00021300e+00
1.00022017e+00
1.00022969e+00
1.00024174e+00
1.00025650e+00
1.00027413e+00
1.00029476e+00
1.00031849e+00
1.00034539e+00
1.00037552e+00
1.00040887e+00
1.00044543e+00
1.00048513e+00
1.00052787e+00
1.00057354e+00
1.00062198e+00
1.00067300e+00
1.00072640e+00
1.00078194e+00
1.00083939e+00
1.00089848e+00
1.00095893e+00
1.00102049e+00
1.00108285e+00
1.00114575e+00
1.00120891e+00
1.00127205e+00
1.00133491e+00
1.00139724e+00
1.00145879e+00
1.00151932e+00
1.00157862e+00
1.00163647e+00
1.00169266e+00
1.00174702e+00
1.00179937e+00
1.00184954e+00
1.00189736e+00
1.00194272e+00
1.00198547e+00
1.00202548e+00
1.00206264e+00
1.00209691e+00
1.00212812e+00
1.00215614e+00
1.00218109e+00
1.00220302e+00
1.00222141e+00
1.00223641e+00
1.00224906e+00
1.00225862e+00
1.00226230e+00
1.00226333e+00
9.98841021e-01
9.98840866e-01
9.98842235e-01
9.98846282e-01
9.98851151e-01
9.98857698e-01
9.98865992e-01
9.98875806e-01
9.98887407e-01
9.98901032e-01
9.98916720e-01
9.98934546e-01
9.98954630e-01
9.98977030e-01
9.99001770e-01
9.99028864e-01
9.99058298e-01
9.99090020e-01
9.99123946e-01
9.99159965e-01
9.99197932e-01
9.99237675e-01
9.99278994e-01
9.99321670e-01
9.99365462e-01
9.99410116e-01
9.99455368e-01
9.99500952e-01
9.99546599e-01
9.99592044e-01
9.99637034e-01
9.99681327e-01
9.99724695e-01
9.99766930e-01
9.99807845e-01
9.99847273e-01
9.99885070e-01
9.99921114e-01
9.99955306e-01
9.99987569e-01
1.00001784e+00
1.00004610e+00
1.00007230e+00
1.00009646e+00
1.00011858e+00
1.00013868e+00
1.00015680e+00
1.00017299e+00
1.00018729e+00
1.00019978e+00
1.00021051e+00
1.00021956e+00
1.00022701e+00
1.00023295e+00
1.00023745e+00
1.00024061e+00
1.00024252e+00
1.00024329e+00
1.00024301e+00
1.00024181e+00
1.00023978e+00
1.00023706e+00
1.00023378e+00
1.00023007e+00
1.00022608e+00
1.00022197e+00
1.00021791e+00
1.00021407e+00
1.00021065e+00
1.00020784e+00
1.00020585e+00
1.00020490e+00
1.00020520e+00
1.00020697e+00
1.00021043e+00
1.00021582e+00
1.00022333e+00
1.00023317e+00
1.00024553e+00
1.00026059e+00
1.00027848e+00
1.00029935e+00
1.00032329e+00
1.00035036e+00
1.00038062e+00
1.00041405e+00
1.00045065e+00
1.00049034e+00
1.00053303e+00
1.00057860e+00
1.00062689e+00
1.00067773e+00
1.00073090e+00
1.00078618e+00
1.00084333e+00
1.00090210e+00
1.00096221e+00
1.00102341e+00
1.00108541e+00
1.00114793e+00
1.00121072e+00
1.00127350e+00
1.00133602e+00
1.00139802e+00
1.00145927e+00
1.00151953e+00
1.00157858e+00
1.00163621e+00
1.00169224e+00
1.00174646e+00
1.00179870e+00
1.00184881e+00
1.00189661e+00
1.00194197e+00
1.00198476e+00
1.00202485e+00
1.00206212e+00
1.00209647e+00
1.00212782e+00
1.00215609e+00
1.00218118e+00
1.00220307e+00
1.00222182e+00
1.00223726e+00
1.00224932e+00
1.00225825e+00
1.00226304e+00
1.00226423e+00
9.98840087e-01
9.98840738e-01
9.98843238e-01
9.98845808e-01
9.98850362e-01
9.98857500e-01
9.98865705e-01
9.98875289e-01
9.98886992e-01
9.98900731e-01
9.98916398e-01
9.98934219e-01
9.98954343e-01
9.98976759e-01
9.99001491e-01
9.99028578e-01
9.99058000e-01
9.99089694e-01
9.99123580e-01
9.99159549e-01
9.99197456e-01
9.99237126e-01
9.99278363e-01
9.99320946e-01
9.99364636e-01
9.99409180e-01
9.99454318e-01
9.99499781e-01
9.99545303e-01
9.99590624e-01
9.99635488e-01
9.99679657e-01
9.99722904e-01
9.99765024e-01
9.99805828e-01
9.99845151e-01
9.99882851e-01
9.99918806e-01
9.99952917e-01
9.99985107e-01
1.00001532e+00
1.00004351e+00
1.00006967e+00
1.00009379e+00
1.00011588e+00
1.00013596e+00
1.00015407e+00
1.00017025e+00
1.00018455e+00
1.00019705e+00
1.00020780e+00
1.00021689e+00
1.00022438e+00
1.00023037e+00
1.00023493e+00
1.00023817e+00
1.00024018e+00
1.00024106e+00
1.00024091e+00
1.00023985e+00
1.00023800e+00
1.00023547e+00
1.00023239e+00
1.00022892e+00
1.00022519e+00
1.00022137e+00
1.00021762e+00
1.00021412e+00
1.00021105e+00
1.00020863e+00
1.00020704e+00
1.00020650e+00
1.00020723e+00
1.00020944e+00
1.00021335e+00
1.00021918e+00
1.00022714e+00
1.00023741e+00
1.00025019e+00
1.00026564e+00
1.00028391e+00
1.00030512e+00
1.00032935e+00
1.00035669e+00
1.00038716e+00
1.00042076e+00
1.00045747e+00
1.00049722e+00
1.00053991e+00
1.00058543e+00
1.00063363e+00
1.00068431e+00
1.00073728e+00
1.00079232e+00
1.00084920e+00
1.00090765e+00
1.00096743e+00
1.00102826e+00
1.00108989e+00
1.00115204e+00
1.00121444e+00
1.00127685e+00
1.00133900e+00
1.00140065e+00
1.00146156e+00
1.00152152e+00
1.00158030e+00
1.00163769e+00
1.00169350e+00
1.00174756e+00
1.00179966e+00
1.00184967e+00
1.00189742e+00
1.00194275e+00
1.00198553e+00
1.00202566e+00
1.00206301e+00
1.00209742e+00
1.00212885e+00
1.00215730e+00
1.00218254e+00
1.00220442e+00
1.00222328e+00
1.00223914e+00
1.00225106e+00
1.00225925e+00
1.00226471e+00
1.00226649e+00
9.98839507e-01
9.98839687e-01
9.98841420e-01
9.98844616e-01
9.98849726e-01
9.98856133e-01
9.98864076e-01
9.98874023e-01
9.98885765e-01
9.98899336e-01
9.98915020e-01
9.98932916e-01
9.98953018e-01
9.98975402e-01
9.99000134e-01
9.99027210e-01
9.99056597e-01
9.99088252e-01
9.99122098e-01
9.99158014e-01
9.99195857e-01
9.99235457e-01
9.99276616e-01
9.99319113e-01
9.99362710e-01
9.99407157e-01
9.99452193e-01
9.99497551e-01
9.99542966e-01
9.99588180e-01
9.99632938e-01
9.99677003e-01
9.99720150e-01
9.99762174e-01
9.99802887e-01
9.99842126e-01
9.99879748e-01
9.99915632e-01
9.99949680e-01
9.99981813e-01
1.00001198e+00
1.00004013e+00
1.00006625e+00
1.00009035e+00
1.00011241e+00
1.00013248e+00
1.00015058e+00
1.00016677e+00
1.00018109e+00
1.00019360e+00
1.00020439e+00
1.00021351e+00
1.00022105e+00
1.00022710e+00
1.00023175e+00
1.00023508e+00
1.00023721e+00
1.00023822e+00
1.00023822e+00
1.00023734e+00
1.00023568e+00
1.00023338e+00
1.00023056e+00
1.00022737e+00
1.00022396e+00
1.00022048e+00
1.00021710e+00
1.00021400e+00
1.00021138e+00
1.00020941e+00
1.00020830e+00
1.00020827e+00
1.00020952e+00
1.00021228e+00
1.00021674e+00
1.00022312e+00
1.00023162e+00
1.00024243e+00
1.00025573e+00
1.00027168e+00
1.00029042e+00
1.00031206e+00
1.00033669e+00
1.00036438e+00
1.00039514e+00
1.00042898e+00
1.00046587e+00
1.00050574e+00
1.00054850e+00
1.00059402e+00
1.00064215e+00
1.00069271e+00
1.00074551e+00
1.00080033e+00
1.00085693e+00
1.00091508e+00
1.00097452e+00
1.00103499e+00
1.00109623e+00
1.00115798e+00
1.00121999e+00
1.00128199e+00
1.00134375e+00
1.00140502e+00
1.00146558e+00
1.00152520e+00
1.00158368e+00
1.00164080e+00
1.00169637e+00
1.00175022e+00
1.00180216e+00
1.00185203e+00
1.00189968e+00
1.00194496e+00
1.00198773e+00
1.00202784e+00
1.00206521e+00
1.00209973e+00
1.00213124e+00
1.00215967e+00
1.00218503e+00
1.00220723e+00
1.00222605e+00
1.00224159e+00
1.00225390e+00
1.00226255e+00
1.00226766e+00
1.00226931e+00
9.98837593e-01
9.98837735e-01
9.98839094e-01
9.98842632e-01
9.98847597e-01
9.98853730e-01
9.98861848e-01
9.98871813e-01
9.98883403e-01
9.98896969e-01
9.98912705e-01
9.98930569e-01
9.98950628e-01
9.98973003e-01
9.98997719e-01
9.99024757e-01
9.99054105e-01
9.99085723e-01
9.99119520e-01
9.99155380e-01
9.99193163e-01
9.99232697e-01
9.99273783e-01
9.99316203e-01
9.99359720e-01
9.99404082e-01
9.99449031e-01
9.99494301e-01
9.99539628e-01
9.99584754e-01
9.99629427e-01
9.99673408e-01
9.99716476e-01
9.99758424e-01
9.99799068e-01
9.99838242e-01
9.99875805e-01
9.99911636e-01
9.99945637e-01
9.99977731e-01
1.00000786e+00
1.00003598e+00
1.00006209e+00
1.00008616e+00
1.00010822e+00
1.00012828e+00
1.00014639e+00
1.00016258e+00
1.00017692e+00
1.00018946e+00
1.00020028e+00
1.00020945e+00
1.00021706e+00
1.00022318e+00
1.00022792e+00
1.00023136e+00
1.00023361e+00
1.00023477e+00
1.00023496e+00
1.00023427e+00
1.00023285e+00
1.00023081e+00
1.00022829e+00
1.00022543e+00
1.00022238e+00
1.00021930e+00
1.00021636e+00
1.00021374e+00
1.00021161e+00
1.00021018e+00
1.00020965e+00
1.00021021e+00
1.00021208e+00
1.00021546e+00
1.00022057e+00
1.00022760e+00
1.00023675e+00
1.00024820e+00
1.00026212e+00
1.00027867e+00
1.00029797e+00
1.00032014e+00
1.00034525e+00
1.00037336e+00
1.00040450e+00
1.00043865e+00
1.00047578e+00
1.00051583e+00
1.00055870e+00
1.00060426e+00
1.00065236e+00
1.00070284e+00
1.00075549e+00
1.00081010e+00
1.00086644e+00
1.00092429e+00
1.00098338e+00
1.00104348e+00
1.00110433e+00
1.00116567e+00
1.00122725e+00
1.00128884e+00
1.00135018e+00
1.00141105e+00
1.00147122e+00
1.00153048e+00
1.00158862e+00
1.00164544e+00
1.00170074e+00
1.00175435e+00
1.00180610e+00
1.00185581e+00
1.00190334e+00
1.00194852e+00
1.00199125e+00
1.00203135e+00
1.00206870e+00
1.00210324e+00
1.00213484e+00
1.00216334e+00
1.00218871e+00
1.00221102e+00
1.00223001e+00
1.00224549e+00
1.00225783e+00
1.00226676e+00
1.00227174e+00
1.00227343e+00
9.98834232e-01
9.98834560e-01
9.98836297e-01
9.98839509e-01
9.98844184e-01
9.98850647e-01
9.98858767e-01
9.98868436e-01
9.98880042e-01
9.98893709e-01
9.98909367e-01
9.98927150e-01
9.98947214e-01
9.98969576e-01
9.98994237e-01
9.99021232e-01
9.99050548e-01
9.99082120e-01
9.99115863e-01
9.99151670e-01
9.99189398e-01
9.99228870e-01
9.99269893e-01
9.99312247e-01
9.99355697e-01
9.99399990e-01
9.99444869e-01
9.99490070e-01
9.99535330e-01
9.99580390e-01
9.99624999e-01
9.99668920e-01
9.99711931e-01
9.99753827e-01
9.99794423e-01
9.99833554e-01
9.99871079e-01
9.99906876e-01
9.99940848e-01
9.99972917e-01
1.00000303e+00
1.00003114e+00
1.00005723e+00
1.00008130e+00
1.00010335e+00
1.00012342e+00
1.00014154e+00
1.00015775e+00
1.00017211e+00
1.00018468e+00
1.00019554e+00
1.00020477e+00
1.00021244e+00
1.00021864e+00
1.00022348e+00
1.00022704e+00
1.00022943e+00
1.00023076e+00
1.00023114e+00
1.00023069e+00
1.00022952e+00
1.00022777e+00
1.00022558e+00
1.00022309e+00
1.00022046e+00
1.00021783e+00
1.00021539e+00
1.00021330e+00
1.00021175e+00
1.00021093e+00
1.00021105e+00
1.00021229e+00
1.00021486e+00
1.00021896e+00
1.00022481e+00
1.00023258e+00
1.00024247e+00
1.00025465e+00
1.00026929e+00
1.00028652e+00
1.00030648e+00
1.00032926e+00
1.00035493e+00
1.00038355e+00
1.00041513e+00
1.00044966e+00
1.00048710e+00
1.00052738e+00
1.00057041e+00
1.00061605e+00
1.00066416e+00
1.00071458e+00
1.00076710e+00
1.00082151e+00
1.00087761e+00
1.00093516e+00
1.00099391e+00
1.00105363e+00
1.00111407e+00
1.00117499e+00
1.00123614e+00
1.00129729e+00
1.00135819e+00
1.00141864e+00
1.00147840e+00
1.00153728e+00
1.00159505e+00
1.00165154e+00
1.00170655e+00
1.00175990e+00
1.00181142e+00
1.00186094e+00
1.00190832e+00
1.00195339e+00
1.00199602e+00
1.00203608e+00
1.00207344e+00
1.00210795e+00
1.00213955e+00
1.00216817e+00
1.00219362e+00
1.00221584e+00
1.00223491e+00
1.00225069e+00
1.00226295e+00
1.00227176e+00
1.00227704e+00
1.00227891e+00
9.98830237e-01
9.98830537e-01
9.98832277e-01
9.98835346e-01
9.98840074e-01
9.98846539e-01
9.98854480e-01
9.98864156e-01
9.98875809e-01
9.98889378e-01
9.98904965e-01
9.98922754e-01
9.98942789e-01
9.98965087e-01
9.98989708e-01
9.99016671e-01
9.99045941e-01
9.99077461e-01
9.99111158e-01
9.99146917e-01
9.99184593e-01
9.99224013e-01
9.99264984e-01
9.99307286e-01
9.99350683e-01
9.99394925e-01
9.99439754e-01
9.99484907e-01
9.99530120e-01
9.99575136e-01
9.99619706e-01
9.99663591e-01
9.99706569e-01
9.99748435e-01
9.99789006e-01
9.99828115e-01
9.99865622e-01
9.99901405e-01
9.99935366e-01
9.99967427e-01
9.99997531e-01
1.00002564e+00
1.00005173e+00
1.00007580e+00
1.00009787e+00
1.00011794e+00
1.00013608e+00
1.00015231e+00
1.00016669e+00
1.00017930e+00
1.00019021e+00
1.00019949e+00
1.00020723e+00
1.00021352e+00
1.00021847e+00
1.00022216e+00
1.00022470e+00
1.00022621e+00
1.00022680e+00
1.00022659e+00
1.00022571e+00
1.00022428e+00
1.00022246e+00
1.00022038e+00
1.00021819e+00
1.00021607e+00
1.00021417e+00
1.00021268e+00
1.00021177e+00
1.00021163e+00
1.00021246e+00
1.00021446e+00
1.00021781e+00
1.00022273e+00
1.00022939e+00
1.00023799e+00
1.00024871e+00
1.00026172e+00
1.00027716e+00
1.00029517e+00
1.00031587e+00
1.00033934e+00
1.00036566e+00
1.00039486e+00
1.00042695e+00
1.00046192e+00
1.00049973e+00
1.00054029e+00
1.00058352e+00
1.00062929e+00
1.00067744e+00
1.00072782e+00
1.00078023e+00
1.00083447e+00
1.00089033e+00
1.00094758e+00
1.00100600e+00
1.00106533e+00
1.00112536e+00
1.00118584e+00
1.00124654e+00
1.00130723e+00
1.00136769e+00
1.00142769e+00
1.00148702e+00
1.00154549e+00
1.00160288e+00
1.00165901e+00
1.00171370e+00
1.00176676e+00
1.00181803e+00
1.00186734e+00
1.00191454e+00
1.00195947e+00
1.00200199e+00
1.00204197e+00
1.00207929e+00
1.00211380e+00
1.00214539e+00
1.00217400e+00
1.00219954e+00
1.00222182e+00
1.00224089e+00
1.00225674e+00
1.00226911e+00
1.00227791e+00
1.00228327e+00
1.00228518e+00
9.98825377e-01
9.98825519e-01
9.98827082e-01
9.98830273e-01
9.98835052e-01
9.98841294e-01
9.98849203e-01
9.98858967e-01
9.98870517e-01
9.98883985e-01
9.98899585e-01
9.98917350e-01
9.98937308e-01
9.98959562e-01
9.98984157e-01
9.99011074e-01
9.99040291e-01
9.99071771e-01
9.99105428e-01
9.99141143e-01
9.99178775e-01
9.99218157e-01
9.99259089e-01
9.99301354e-01
9.99344716e-01
9.99388926e-01
9.99433726e-01
9.99478853e-01
9.99524044e-01
9.99569041e-01
9.99613595e-01
9.99657468e-01
9.99700438e-01
9.99742299e-01
9.99782867e-01
9.99821978e-01
9.99859488e-01
9.99895276e-01
9.99929244e-01
9.99961314e-01
9.99991427e-01
1.00001954e+00
1.00004565e+00
1.00006973e+00
1.00009181e+00
1.00011190e+00
1.00013005e+00
1.00014631e+00
1.00016072e+00
1.00017337e+00
1.00018432e+00
1.00019366e+00
1.00020147e+00
1.00020786e+00
1.00021291e+00
1.00021673e+00
1.00021944e+00
1.00022114e+00
1.00022195e+00
1.00022200e+00
1.00022142e+00
1.00022035e+00
1.00021892e+00
1.00021728e+00
1.00021559e+00
1.00021401e+00
1.00021271e+00
1.00021186e+00
1.00021165e+00
1.00021226e+00
1.00021388e+00
1.00021670e+00
1.00022092e+00
1.00022671e+00
1.00023428e+00
1.00024380e+00
1.00025543e+00
1.00026934e+00
1.00028567e+00
1.00030454e+00
1.00032606e+00
1.00035030e+00
1.00037734e+00
1.00040718e+00
1.00043986e+00
1.00047533e+00
1.00051355e+00
1.00055445e+00
1.00059793e+00
1.00064385e+00
1.00069208e+00
1.00074245e+00
1.00079477e+00
1.00084885e+00
1.00090448e+00
1.00096144e+00
1.00101951e+00
1.00107847e+00
1.00113808e+00
1.00119812e+00
1.00125836e+00
1.00131858e+00
1.00137856e+00
1.00143810e+00
1.00149698e+00
1.00155502e+00
1.00161200e+00
1.00166776e+00
1.00172210e+00
1.00177485e+00
1.00182584e+00
1.00187492e+00
1.00192191e+00
1.00196668e+00
1.00200908e+00
1.00204895e+00
1.00208618e+00
1.00212067e+00
1.00215228e+00
1.00218085e+00
1.00220638e+00
1.00222879e+00
1.00224790e+00
1.00226368e+00
1.00227616e+00
1.00228513e+00
1.00229044e+00
1.00229231e+00
9.98819341e-01
9.98819466e-01
9.98820996e-01
9.98824163e-01
9.98828849e-01
9.98835066e-01
9.98843003e-01
9.98852672e-01
9.98864145e-01
9.98877626e-01
9.98893188e-01
9.98910873e-01
9.98930795e-01
9.98953026e-01
9.98977571e-01
9.99004439e-01
9.99033623e-01
9.99065069e-01
9.99098688e-01
9.99134370e-01
9.99171975e-01
9.99211331e-01
9.99252240e-01
9.99294486e-01
9.99337834e-01
9.99382034e-01
9.99426827e-01
9.99471952e-01
9.99517145e-01
9.99562148e-01
9.99606712e-01
9.99650599e-01
9.99693585e-01
9.99735467e-01
9.99776057e-01
9.99815190e-01
9.99852725e-01
9.99888538e-01
9.99922530e-01
9.99954624e-01
9.99984760e-01
1.00001290e+00
1.00003903e+00
1.00006313e+00
1.00008523e+00
1.00010534e+00
1.00012352e+00
1.00013980e+00
1.00015424e+00
1.00016693e+00
1.00017792e+00
1.00018732e+00
1.00019521e+00
1.00020168e+00
1.00020685e+00
1.00021081e+00
1.00021368e+00
1.00021558e+00
1.00021663e+00
1.00021696e+00
1.00021670e+00
1.00021599e+00
1.00021498e+00
1.00021381e+00
1.00021265e+00
1.00021166e+00
1.00021100e+00
1.00021085e+00
1.00021139e+00
1.00021280e+00
1.00021527e+00
1.00021898e+00
1.00022413e+00
1.00023088e+00
1.00023943e+00
1.00024994e+00
1.00026256e+00
1.00027746e+00
1.00029475e+00
1.00031455e+00
1.00033697e+00
1.00036206e+00
1.00038987e+00
1.00042043e+00
1.00045374e+00
1.00048977e+00
1.00052847e+00
1.00056974e+00
1.00061350e+00
1.00065962e+00
1.00070796e+00
1.00075834e+00
1.00081059e+00
1.00086452e+00
1.00091993e+00
1.00097661e+00
1.00103435e+00
1.00109292e+00
1.00115210e+00
1.00121169e+00
1.00127146e+00
1.00133120e+00
1.00139070e+00
1.00144976e+00
1.00150818e+00
1.00156576e+00
1.00162232e+00
1.00167768e+00
1.00173166e+00
1.00178408e+00
1.00183477e+00
1.00188359e+00
1.00193036e+00
1.00197494e+00
1.00201718e+00
1.00205695e+00
1.00209410e+00
1.00212850e+00
1.00216008e+00
1.00218868e+00
1.00221419e+00
1.00223659e+00
1.00225577e+00
1.00227161e+00
1.00228411e+00
1.00229313e+00
1.00229849e+00
1.00230044e+00
9.98812170e-01
9.98812290e-01
9.98813861e-01
9.98816944e-01
9.98821571e-01
9.98827829e-01
9.98835709e-01
9.98845286e-01
9.98856763e-01
9.98870223e-01
9.98885707e-01
9.98903355e-01
9.98923261e-01
9.98945446e-01
9.98969945e-01
9.98996786e-01
9.99025945e-01
9.99057359e-01
9.99090954e-01
9.99126620e-01
9.99164212e-01
9.99203558e-01
9.99244464e-01
9.99286713e-01
9.99330068e-01
9.99374280e-01
9.99419093e-01
9.99464241e-01
9.99509463e-01
9.99554499e-01
9.99599100e-01
9.99643027e-01
9.99686056e-01
9.99727982e-01
9.99768618e-01
9.99807798e-01
9.99845378e-01
9.99881236e-01
9.99915271e-01
9.99947404e-01
9.99977578e-01
1.00000575e+00
1.00003191e+00
1.00005604e+00
1.00007817e+00
1.00009831e+00
1.00011651e+00
1.00013281e+00
1.00014729e+00
1.00016001e+00
1.00017105e+00
1.00018051e+00
1.00018847e+00
1.00019503e+00
1.00020031e+00
1.00020441e+00
1.00020745e+00
1.00020956e+00
1.00021085e+00
1.00021147e+00
1.00021155e+00
1.00021123e+00
1.00021066e+00
1.00020999e+00
1.00020939e+00
1.00020901e+00
1.00020904e+00
1.00020963e+00
1.00021097e+00
1.00021324e+00
1.00021662e+00
1.00022129e+00
1.00022742e+00
1.00023520e+00
1.00024480e+00
1.00025637e+00
1.00027006e+00
1.00028600e+00
1.00030433e+00
1.00032514e+00
1.00034851e+00
1.00037451e+00
1.00040317e+00
1.00043451e+00
1.00046851e+00
1.00050515e+00
1.00054436e+00
1.00058606e+00
1.00063014e+00
1.00067649e+00
1.00072495e+00
1.00077536e+00
1.00082757e+00
1.00088137e+00
1.00093657e+00
1.00099297e+00
1.00105037e+00
1.00110855e+00
1.00116732e+00
1.00122645e+00
1.00128574e+00
1.00134499e+00
1.00140400e+00
1.00146256e+00
1.00152050e+00
1.00157763e+00
1.00163375e+00
1.00168869e+00
1.00174229e+00
1.00179436e+00
1.00184474e+00
1.00189327e+00
1.00193981e+00
1.00198418e+00
1.00202625e+00
1.00206587e+00
1.00210293e+00
1.00213726e+00
1.00216876e+00
1.00219734e+00
1.00222288e+00
1.00224525e+00
1.00226444e+00
1.00228038e+00
1.00229290e+00
1.00230193e+00
1.00230742e+00
1.00230945e+00
9.98803914e-01
9.98803992e-01
9.98805535e-01
9.98808612e-01
9.98813243e-01
9.98819454e-01
9.98827275e-01
9.98836857e-01
9.98848311e-01
9.98861702e-01
9.98877161e-01
9.98894799e-01
9.98914662e-01
9.98936808e-01
9.98961293e-01
9.98988116e-01
9.99017251e-01
9.99048652e-01
9.99082244e-01
9.99117909e-01
9.99155504e-01
9.99194862e-01
9.99235788e-01
9.99278061e-01
9.99321448e-01
9.99365700e-01
9.99410557e-01
9.99455756e-01
9.99501034e-01
9.99546131e-01
9.99590797e-01
9.99634791e-01
9.99677890e-01
9.99719887e-01
9.99760593e-01
9.99799843e-01
9.99837490e-01
9.99873412e-01
9.99907508e-01
9.99939697e-01
9.99969922e-01
9.99998143e-01
1.00002434e+00
1.00004851e+00
1.00007067e+00
1.00009084e+00
1.00010906e+00
1.00012540e+00
1.00013991e+00
1.00015267e+00
1.00016375e+00
1.00017326e+00
1.00018129e+00
1.00018795e+00
1.00019334e+00
1.00019758e+00
1.00020079e+00
1.00020311e+00
1.00020466e+00
1.00020557e+00
1.00020600e+00
1.00020608e+00
1.00020598e+00
1.00020583e+00
1.00020582e+00
1.00020610e+00
1.00020684e+00
1.00020821e+00
1.00021040e+00
1.00021357e+00
1.00021791e+00
1.00022359e+00
1.00023078e+00
1.00023964e+00
1.00025035e+00
1.00026304e+00
1.00027785e+00
1.00029492e+00
1.00031435e+00
1.00033622e+00
1.00036062e+00
1.00038759e+00
1.00041715e+00
1.00044931e+00
1.00048406e+00
1.00052135e+00
1.00056112e+00
1.00060327e+00
1.00064771e+00
1.00069431e+00
1.00074293e+00
1.00079340e+00
1.00084557e+00
1.00089925e+00
1.00095425e+00
1.00101039e+00
1.00106745e+00
1.00112526e+00
1.00118359e+00
1.00124227e+00
1.00130108e+00
1.00135983e+00
1.00141834e+00
1.00147641e+00
1.00153386e+00
1.00159051e+00
1.00164618e+00
1.00170070e+00
1.00175389e+00
1.00180560e+00
1.00185566e+00
1.00190390e+00
1.00195017e+00
1.00199432e+00
1.00203621e+00
1.00207567e+00
1.00211260e+00
1.00214685e+00
1.00217829e+00
1.00220681e+00
1.00223233e+00
1.00225473e+00
1.00227392e+00
1.00228987e+00
1.00230245e+00
1.00231156e+00
1.00231711e+00
1.00231920e+00
9.98794448e-01
9.98794498e-01
9.98796027e-01
9.98799124e-01
9.98803748e-01
9.98809911e-01
9.98817726e-01
9.98827305e-01
9.98838713e-01
9.98852080e-01
9.98867538e-01
9.98885148e-01
9.98904982e-01
9.98927124e-01
9.98951601e-01
9.98978412e-01
9.99007547e-01
9.99038959e-01
9.99072562e-01
9.99108245e-01
9.99145869e-01
9.99185263e-01
9.99226231e-01
9.99268556e-01
9.99312002e-01
9.99356320e-01
9.99401251e-01
9.99446529e-01
9.99491892e-01
9.99537079e-01
9.99581837e-01
9.99625928e-01
9.99669124e-01
9.99711217e-01
9.99752019e-01
9.99791362e-01
9.99829098e-01
9.99865105e-01
9.99899279e-01
9.99931540e-01
9.99961830e-01
9.99990109e-01
1.00001636e+00
1.00004057e+00
1.00006277e+00
1.00008297e+00
1.00010123e+00
1.00011759e+00
1.00013214e+00
1.00014493e+00
1.00015606e+00
1.00016562e+00
1.00017372e+00
1.00018047e+00
1.00018597e+00
1.00019035e+00
1.00019375e+00
1.00019627e+00
1.00019808e+00
1.00019930e+00
1.00020009e+00
1.00020059e+00
1.00020096e+00
1.00020137e+00
1.00020197e+00
1.00020292e+00
1.00020441e+00
1.00020661e+00
1.00020968e+00
1.00021380e+00
1.00021914e+00
1.00022588e+00
1.00023417e+00
1.00024417e+00
1.00025604e+00
1.00026991e+00
1.00028591e+00
1.00030416e+00
1.00032474e+00
1.00034774e+00
1.00037321e+00
1.00040119e+00
1.00043171e+00
1.00046475e+00
1.00050028e+00
1.00053827e+00
1.00057863e+00
1.00062127e+00
1.00066610e+00
1.00071298e+00
1.00076177e+00
1.00081233e+00
1.00086448e+00
1.00091805e+00
1.00097287e+00
1.00102874e+00
1.00108548e+00
1.00114290e+00
1.00120082e+00
1.00125903e+00
1.00131736e+00
1.00137562e+00
1.00143362e+00
1.00149119e+00
1.00154815e+00
1.00160432e+00
1.00165953e+00
1.00171361e+00
1.00176641e+00
1.00181774e+00
1.00186745e+00
1.00191539e+00
1.00196139e+00
1.00200530e+00
1.00204699e+00
1.00208629e+00
1.00212307e+00
1.00215721e+00
1.00218858e+00
1.00221705e+00
1.00224252e+00
1.00226492e+00
1.00228414e+00
1.00230009e+00
1.00231272e+00
1.00232191e+00
1.00232754e+00
1.00232971e+00
9.98783700e-01
9.98783760e-01
9.98785315e-01
9.98788408e-01
9.98793019e-01
9.98799189e-01
9.98807007e-01
9.98816558e-01
9.98827956e-01
9.98841336e-01
9.98856779e-01
9.98874374e-01
9.98894220e-01
9.98916369e-01
9.98940847e-01
9.98967674e-01
9.98996834e-01
9.99028274e-01
9.99061911e-01
9.99097640e-01
9.99135319e-01
9.99174774e-01
9.99215812e-01
9.99258217e-01
9.99301752e-01
9.99346165e-01
9.99391198e-01
9.99436586e-01
9.99482064e-01
9.99527370e-01
9.99572251e-01
9.99616466e-01
9.99659786e-01
9.99702003e-01
9.99742926e-01
9.99782385e-01
9.99820233e-01
9.99856345e-01
9.99890616e-01
9.99922966e-01
9.99953335e-01
9.99981685e-01
1.00000799e+00
1.00003226e+00
1.00005450e+00
1.00007475e+00
1.00009304e+00
1.00010944e+00
1.00012401e+00
1.00013684e+00
1.00014801e+00
1.00015763e+00
1.00016580e+00
1.00017263e+00
1.00017825e+00
1.00018277e+00
1.00018634e+00
1.00018909e+00
1.00019116e+00
1.00019270e+00
1.00019386e+00
1.00019479e+00
1.00019566e+00
1.00019662e+00
1.00019786e+00
1.00019952e+00
1.00020179e+00
1.00020483e+00
1.00020882e+00
1.00021393e+00
1.00022032e+00
1.00022815e+00
1.00023759e+00
1.00024878e+00
1.00026186e+00
1.00027696e+00
1.00029419e+00
1.00031366e+00
1.00033545e+00
1.00035961e+00
1.00038621e+00
1.00041526e+00
1.00044677e+00
1.00048072e+00
1.00051708e+00
1.00055579e+00
1.00059678e+00
1.00063994e+00
1.00068518e+00
1.00073237e+00
1.00078136e+00
1.00083201e+00
1.00088416e+00
1.00093764e+00
1.00099228e+00
1.00104790e+00
1.00110433e+00
1.00116138e+00
1.00121887e+00
1.00127663e+00
1.00133448e+00
1.00139224e+00
1.00144974e+00
1.00150681e+00
1.00156327e+00
1.00161896e+00
1.00167371e+00
1.00172736e+00
1.00177974e+00
1.00183069e+00
1.00188006e+00
1.00192768e+00
1.00197340e+00
1.00201707e+00
1.00205853e+00
1.00209766e+00
1.00213430e+00
1.00216831e+00
1.00219958e+00
1.00222800e+00
1.00225343e+00
1.00227580e+00
1.00229503e+00
1.00231101e+00
1.00232368e+00
1.00233293e+00
1.00233865e+00
1.00234094e+00
9.98771647e-01
9.98771716e-01
9.98773305e-01
9.98776410e-01
9.98781033e-01
9.98787221e-01
9.98795038e-01
9.98804592e-01
9.98816013e-01
9.98829400e-01
9.98844848e-01
9.98862469e-01
9.98882340e-01
9.98904509e-01
9.98929021e-01
9.98955892e-01
9.98985098e-01
9.99016590e-01
9.99050294e-01
9.99086097e-01
9.99123856e-01
9.99163403e-01
9.99204543e-01
9.99247058e-01
9.99290711e-01
9.99335251e-01
9.99380419e-01
9.99425947e-01
9.99471571e-01
9.99517027e-01
9.99562060e-01
9.99606428e-01
9.99649901e-01
9.99692269e-01
9.99733338e-01
9.99772938e-01
9.99810919e-01
9.99847156e-01
9.99881543e-01
9.99913998e-01
9.99944462e-01
9.99972895e-01
9.99999277e-01
1.00002361e+00
1.00004590e+00
1.00006619e+00
1.00008452e+00
1.00010095e+00
1.00011556e+00
1.00012843e+00
1.00013965e+00
1.00014932e+00
1.00015756e+00
1.00016448e+00
1.00017021e+00
1.00017488e+00
1.00017863e+00
1.00018160e+00
1.00018394e+00
1.00018580e+00
1.00018734e+00
1.00018872e+00
1.00019009e+00
1.00019164e+00
1.00019353e+00