# vtk DataFile Version 2.0
LBM Flow Field - Timestep 2430
ASCII
DATASET STRUCTURED_POINTS
DIMENSIONS 128 128 1
ORIGIN 0.0 0.0 0.0
SPACING 1.0 1.0 1.0
POINT_DATA 16384
SCALARS density double 1
LOOKUP_TABLE default
9.97521141e-01
9.97514833e-01
9.97509370e-01
9.97516559e-01
9.97526766e-01
9.97538153e-01
9.97553336e-01
9.97572392e-01
9.97594041e-01
9.97618538e-01
9.97646255e-01
9.97676997e-01
9.97710568e-01
9.97747011e-01
9.97786277e-01
9.97828224e-01
9.97872736e-01
9.97919709e-01
9.97969000e-01
9.98020447e-01
9.98073886e-01
9.98129145e-01
9.98186039e-01
9.98244374e-01
9.98303960e-01
9.98364600e-01
9.98426102e-01
9.98488273e-01
9.98550932e-01
9.98613901e-01
9.98677015e-01
9.98740119e-01
9.98803070e-01
9.98865740e-01
9.98928013e-01
9.98989790e-01
9.99050983e-01
9.99111518e-01
9.99171334e-01
9.99230383e-01
9.99288626e-01
9.99346034e-01
9.99402586e-01
9.99458270e-01
9.99513079e-01
9.99567008e-01
9.99620062e-01
9.99672244e-01
9.99723562e-01
9.99774027e-01
9.99823652e-01
9.99872450e-01
9.99920439e-01
9.99967640e-01
1.00001407e+00
1.00005977e+00
1.00010476e+00
1.00014908e+00
1.00019277e+00
1.00023588e+00
1.00027846e+00
1.00032057e+00
1.00036228e+00
1.00040366e+00
1.00044479e+00
1.00048575e+00
1.00052663e+00
1.00056751e+00
1.00060849e+00
1.00064966e+00
1.00069112e+00
1.00073295e+00
1.00077525e+00
1.00081809e+00
1.00086157e+00
1.00090577e+00
1.00095074e+00
1.00099656e+00
1.00104329e+00
1.00109098e+00
1.00113968e+00
1.00118943e+00
1.00124025e+00
1.00129219e+00
1.00134526e+00
1.00139948e+00
1.00145485e+00
1.00151139e+00
1.00156907e+00
1.00162789e+00
1.00168784e+00
1.00174888e+00
1.00181097e+00
1.00187407e+00
1.00193812e+00
1.00200305e+00
1.00206876e+00
1.00213518e+00
1.00220219e+00
1.00226966e+00
1.00233746e+00
1.00240544e+00
1.00247342e+00
1.00254124e+00
1.00260869e+00
1.00267559e+00
1.00274171e+00
1.00280683e+00
1.00287073e+00
1.00293317e+00
1.00299393e+00
1.00305274e+00
1.00310939e+00
1.00316365e+00
1.00321529e+00
1.00326404e+00
1.00330973e+00
1.00335226e+00
1.00339130e+00
1.00342655e+00
1.00345821e+00
1.00348639e+00
1.00350982e+00
1.00352850e+00
1.00354454e+00
1.00355605e+00
1.00355581e+00
1.00355341e+00
9.97516258e-01
9.97516100e-01
9.97514647e-01
9.97520946e-01
9.97530260e-01
9.97542460e-01
9.97557739e-01
9.97576494e-01
9.97598168e-01
9.97622847e-01
9.97650521e-01
9.97681199e-01
9.97714762e-01
9.97751173e-01
9.97790345e-01
9.97832193e-01
9.97876594e-01
9.97923431e-01
9.97972560e-01
9.98023833e-01
9.98077082e-01
9.98132134e-01
9.98188807e-01
9.98246914e-01
9.98306261e-01
9.98366656e-01
9.98427909e-01
9.98489831e-01
9.98552241e-01
9.98614964e-01
9.98677837e-01
9.98740706e-01
9.98803431e-01
9.98865885e-01
9.98927955e-01
9.98989539e-01
9.99050552e-01
9.99110922e-01
9.99170587e-01
9.99229499e-01
9.99287620e-01
9.99344922e-01
9.99401385e-01
9.99456994e-01
9.99511743e-01
9.99565631e-01
9.99618659e-01
9.99670832e-01
9.99722159e-01
9.99772650e-01
9.99822318e-01
9.99871178e-01
9.99919247e-01
9.99966546e-01
1.00001310e+00
1.00005893e+00
1.00010407e+00
1.00014856e+00
1.00019243e+00
1.00023574e+00
1.00027853e+00
1.00032086e+00
1.00036280e+00
1.00040442e+00
1.00044579e+00
1.00048699e+00
1.00052811e+00
1.00056922e+00
1.00061043e+00
1.00065181e+00
1.00069347e+00
1.00073548e+00
1.00077793e+00
1.00082092e+00
1.00086451e+00
1.00090879e+00
1.00095383e+00
1.00099968e+00
1.00104641e+00
1.00109407e+00
1.00114272e+00
1.00119238e+00
1.00124310e+00
1.00129490e+00
1.00134781e+00
1.00140184e+00
1.00145701e+00
1.00151331e+00
1.00157075e+00
1.00162932e+00
1.00168899e+00
1.00174974e+00
1.00181154e+00
1.00187433e+00
1.00193806e+00
1.00200267e+00
1.00206806e+00
1.00213415e+00
1.00220082e+00
1.00226796e+00
1.00233543e+00
1.00240308e+00
1.00247074e+00
1.00253823e+00
1.00260538e+00
1.00267197e+00
1.00273780e+00
1.00280264e+00
1.00286628e+00
1.00292847e+00
1.00298898e+00
1.00304758e+00
1.00310404e+00
1.00315812e+00
1.00320958e+00
1.00325822e+00
1.00330383e+00
1.00334622e+00
1.00338516e+00
1.00342050e+00
1.00345213e+00
1.00347998e+00
1.00350345e+00
1.00352276e+00
1.00353805e+00
1.00354896e+00
1.00355207e+00
1.00355439e+00
9.97511826e-01
9.97515361e-01
9.97522178e-01
9.97526216e-01
9.97533866e-01
9.97547267e-01
9.97563131e-01
9.97581318e-01
9.97602927e-01
9.97627808e-01
9.97655452e-01
9.97685992e-01
9.97719512e-01
9.97755859e-01
9.97794909e-01
9.97836618e-01
9.97880879e-01
9.97927548e-01
9.97976490e-01
9.98027559e-01
9.98080592e-01
9.98135413e-01
9.98191843e-01
9.98249696e-01
9.98308782e-01
9.98368911e-01
9.98429893e-01
9.98491543e-01
9.98553681e-01
9.98616135e-01
9.98678742e-01
9.98741353e-01
9.98803827e-01
9.98866040e-01
9.98927878e-01
9.98989243e-01
9.99050051e-01
9.99110229e-01
9.99169718e-01
9.99228470e-01
9.99286448e-01
9.99343624e-01
9.99399978e-01
9.99455499e-01
9.99510179e-01
9.99564017e-01
9.99617017e-01
9.99669183e-01
9.99720525e-01
9.99771054e-01
9.99820782e-01
9.99869726e-01
9.99917902e-01
9.99965332e-01
1.00001204e+00
1.00005804e+00
1.00010338e+00
1.00014809e+00
1.00019220e+00
1.00023576e+00
1.00027882e+00
1.00032144e+00
1.00036368e+00
1.00040559e+00
1.00044727e+00
1.00048877e+00
1.00053018e+00
1.00057159e+00
1.00061308e+00
1.00065473e+00
1.00069662e+00
1.00073886e+00
1.00078151e+00
1.00082467e+00
1.00086840e+00
1.00091278e+00
1.00095788e+00
1.00100377e+00
1.00105050e+00
1.00109812e+00
1.00114668e+00
1.00119623e+00
1.00124680e+00
1.00129842e+00
1.00135111e+00
1.00140489e+00
1.00145979e+00
1.00151579e+00
1.00157291e+00
1.00163113e+00
1.00169044e+00
1.00175081e+00
1.00181221e+00
1.00187460e+00
1.00193792e+00
1.00200211e+00
1.00206709e+00
1.00213275e+00
1.00219901e+00
1.00226573e+00
1.00233279e+00
1.00240003e+00
1.00246729e+00
1.00253440e+00
1.00260117e+00
1.00266741e+00
1.00273289e+00
1.00279740e+00
1.00286073e+00
1.00292263e+00
1.00298287e+00
1.00304123e+00
1.00309747e+00
1.00315134e+00
1.00320262e+00
1.00325113e+00
1.00329664e+00
1.00333884e+00
1.00337770e+00
1.00341319e+00
1.00344471e+00
1.00347201e+00
1.00349596e+00
1.00351627e+00
1.00353012e+00
1.00353928e+00
1.00354884e+00
1.00355412e+00
9.97518357e-01
9.97520256e-01
9.97524970e-01
9.97530857e-01
9.97540571e-01
9.97553081e-01
9.97568432e-01
9.97587060e-01
9.97608797e-01
9.97633395e-01
9.97660957e-01
9.97691490e-01
9.97724882e-01
9.97761057e-01
9.97799968e-01
9.97841513e-01
9.97885573e-01
9.97932030e-01
9.97980750e-01
9.98031580e-01
9.98084359e-01
9.98138916e-01
9.98195074e-01
9.98252647e-01
9.98311448e-01
9.98371288e-01
9.98431980e-01
9.98493340e-01
9.98555191e-01
9.98617362e-01
9.98679694e-01
9.98742036e-01
9.98804251e-01
9.98866215e-01
9.98927816e-01
9.98988958e-01
9.99049556e-01
9.99109539e-01
9.99168850e-01
9.99227440e-01
9.99285274e-01
9.99342323e-01
9.99398571e-01
9.99454005e-01
9.99508618e-01
9.99562412e-01
9.99615389e-01
9.99667555e-01
9.99718920e-01
9.99769497e-01
9.99819297e-01
9.99868338e-01
9.99916637e-01
9.99964213e-01
1.00001109e+00
1.00005729e+00
1.00010285e+00
1.00014780e+00
1.00019217e+00
1.00023602e+00
1.00027938e+00
1.00032231e+00
1.00036486e+00
1.00040711e+00
1.00044911e+00
1.00049095e+00
1.00053269e+00
1.00057441e+00
1.00061621e+00
1.00065814e+00
1.00070031e+00
1.00074279e+00
1.00078565e+00
1.00082899e+00
1.00087287e+00
1.00091736e+00
1.00096254e+00
1.00100845e+00
1.00105517e+00
1.00110274e+00
1.00115121e+00
1.00120063e+00
1.00125102e+00
1.00130243e+00
1.00135488e+00
1.00140838e+00
1.00146296e+00
1.00151862e+00
1.00157536e+00
1.00163319e+00
1.00169208e+00
1.00175202e+00
1.00181297e+00
1.00187490e+00
1.00193774e+00
1.00200145e+00
1.00206594e+00
1.00213112e+00
1.00219689e+00
1.00226313e+00
1.00232970e+00
1.00239647e+00
1.00246328e+00
1.00252994e+00
1.00259627e+00
1.00266208e+00
1.00272716e+00
1.00279130e+00
1.00285426e+00
1.00291582e+00
1.00297575e+00
1.00303381e+00
1.00308977e+00
1.00314341e+00
1.00319449e+00
1.00324278e+00
1.00328810e+00
1.00333026e+00
1.00336900e+00
1.00340419e+00
1.00343578e+00
1.00346345e+00
1.00348694e+00
1.00350646e+00
1.00352195e+00
1.00353274e+00
1.00354080e+00
1.00354463e+00
9.97525737e-01
9.97526784e-01
9.97529661e-01
9.97537472e-01
9.97547702e-01
9.97559384e-01
9.97574864e-01
9.97593834e-01
9.97615373e-01
9.97639743e-01
9.97667272e-01
9.97697709e-01
9.97730901e-01
9.97766889e-01
9.97805617e-01
9.97846943e-01
9.97890759e-01
9.97936965e-01
9.97985420e-01
9.98035968e-01
9.98088453e-01
9.98142710e-01
9.98198558e-01
9.98255817e-01
9.98314300e-01
9.98373821e-01
9.98434196e-01
9.98495241e-01
9.98556782e-01
9.98618650e-01
9.98680686e-01
9.98742742e-01
9.98804683e-01
9.98866385e-01
9.98927738e-01
9.98988646e-01
9.99049026e-01
9.99108808e-01
9.99167934e-01
9.99226358e-01
9.99284044e-01
9.99340966e-01
9.99397106e-01
9.99452452e-01
9.99507001e-01
9.99560752e-01
9.99613709e-01
9.99665881e-01
9.99717277e-01
9.99767909e-01
9.99817791e-01
9.99866941e-01
9.99915376e-01
9.99963115e-01
1.00001018e+00
1.00005660e+00
1.00010240e+00
1.00014762e+00
1.00019228e+00
1.00023643e+00
1.00028012e+00
1.00032339e+00
1.00036630e+00
1.00040891e+00
1.00045128e+00
1.00049348e+00
1.00053559e+00
1.00057766e+00
1.00061979e+00
1.00066205e+00
1.00070451e+00
1.00074726e+00
1.00079036e+00
1.00083390e+00
1.00087794e+00
1.00092256e+00
1.00096781e+00
1.00101377e+00
1.00106047e+00
1.00110799e+00
1.00115636e+00
1.00120562e+00
1.00125582e+00
1.00130699e+00
1.00135916e+00
1.00141234e+00
1.00146657e+00
1.00152184e+00
1.00157817e+00
1.00163554e+00
1.00169396e+00
1.00175341e+00
1.00181385e+00
1.00187525e+00
1.00193756e+00
1.00200072e+00
1.00206465e+00
1.00212928e+00
1.00219449e+00
1.00226017e+00
1.00232620e+00
1.00239243e+00
1.00245870e+00
1.00252485e+00
1.00259068e+00
1.00265600e+00
1.00272062e+00
1.00278430e+00
1.00284684e+00
1.00290800e+00
1.00296756e+00
1.00302528e+00
1.00308091e+00
1.00313426e+00
1.00318509e+00
1.00323314e+00
1.00327823e+00
1.00332025e+00
1.00335891e+00
1.00339386e+00
1.00342525e+00
1.00345320e+00
1.00347674e+00
1.00349556e+00
1.00351156e+00
1.00352384e+00
1.00353026e+00
1.00353347e+00
9.97532235e-01
9.97534043e-01
9.97538091e-01
9.97544995e-01
9.97554348e-01
9.97567045e-01
9.97582836e-01
9.97601185e-01
9.97622555e-01
9.97647068e-01
9.97674424e-01
9.97704568e-01
9.97737588e-01
9.97773396e-01
9.97811861e-01
9.97852911e-01
9.97896460e-01
9.97942374e-01
9.97990514e-01
9.98040741e-01
9.98092897e-01
9.98146814e-01
9.98202317e-01
9.98259226e-01
9.98317359e-01
9.98376530e-01
9.98436557e-01
9.98497260e-01
9.98558464e-01
9.98620004e-01
9.98681722e-01
9.98743472e-01
9.98805119e-01
9.98866541e-01
9.98927629e-01
9.98988288e-01
9.99048436e-01
9.99108004e-01
9.99166935e-01
9.99225182e-01
9.99282712e-01
9.99339499e-01
9.99395526e-01
9.99450782e-01
9.99505263e-01
9.99558971e-01
9.99611911e-01
9.99664092e-01
9.99715523e-01
9.99766219e-01
9.99816194e-01
9.99865466e-01
9.99914052e-01
9.99961972e-01
1.00000925e+00
1.00005591e+00
1.00010198e+00
1.00014749e+00
1.00019247e+00
1.00023696e+00
1.00028101e+00
1.00032466e+00
1.00036796e+00
1.00041097e+00
1.00045375e+00
1.00049636e+00
1.00053886e+00
1.00058133e+00
1.00062383e+00
1.00066644e+00
1.00070924e+00
1.00075228e+00
1.00079565e+00
1.00083942e+00
1.00088364e+00
1.00092840e+00
1.00097374e+00
1.00101974e+00
1.00106643e+00
1.00111388e+00
1.00116214e+00
1.00121124e+00
1.00126123e+00
1.00131213e+00
1.00136399e+00
1.00141682e+00
1.00147065e+00
1.00152549e+00
1.00158135e+00
1.00163823e+00
1.00169612e+00
1.00175501e+00
1.00181487e+00
1.00187568e+00
1.00193739e+00
1.00199993e+00
1.00206324e+00
1.00212723e+00
1.00219181e+00
1.00225687e+00
1.00232228e+00
1.00238790e+00
1.00245357e+00
1.00251912e+00
1.00258438e+00
1.00264916e+00
1.00271324e+00
1.00277642e+00
1.00283847e+00
1.00289918e+00
1.00295830e+00
1.00301562e+00
1.00307090e+00
1.00312389e+00
1.00317440e+00
1.00322222e+00
1.00326709e+00
1.00330879e+00
1.00334725e+00
1.00338229e+00
1.00341351e+00
1.00344088e+00
1.00346467e+00
1.00348434e+00
1.00349961e+00
1.00351111e+00
1.00351852e+00
1.00352234e+00
9.97540788e-01
9.97542563e-01
9.97547028e-01
9.97553353e-01
9.97562792e-01
9.97575783e-01
9.97591191e-01
9.97609371e-01
9.97630811e-01
9.97655142e-01
9.97682198e-01
9.97712155e-01
9.97744978e-01
9.97780501e-01
9.97818667e-01
9.97859427e-01
9.97902660e-01
9.97948233e-01
9.97996024e-01
9.98045893e-01
9.98097680e-01
9.98151220e-01
9.98206342e-01
9.98262869e-01
9.98320618e-01
9.98379408e-01
9.98439058e-01
9.98499390e-01
9.98560231e-01
9.98621418e-01
9.98682794e-01
9.98744215e-01
9.98805548e-01
9.98866670e-01
9.98927476e-01
9.98987870e-01
9.99047771e-01
9.99107111e-01
9.99165834e-01
9.99223894e-01
9.99281259e-01
9.99337903e-01
9.99393809e-01
9.99448970e-01
9.99503381e-01
9.99557045e-01
9.99609969e-01
9.99662161e-01
9.99713633e-01
9.99764401e-01
9.99814479e-01
9.99863884e-01
9.99912637e-01
9.99960756e-01
1.00000827e+00
1.00005519e+00
1.00010155e+00
1.00014738e+00
1.00019271e+00
1.00023758e+00
1.00028203e+00
1.00032609e+00
1.00036982e+00
1.00041327e+00
1.00045650e+00
1.00049955e+00
1.00054249e+00
1.00058539e+00
1.00062831e+00
1.00067131e+00
1.00071446e+00
1.00075784e+00
1.00080150e+00
1.00084552e+00
1.00088995e+00
1.00093486e+00
1.00098030e+00
1.00102634e+00
1.00107303e+00
1.00112042e+00
1.00116855e+00
1.00121748e+00
1.00126723e+00
1.00131785e+00
1.00136937e+00
1.00142181e+00
1.00147521e+00
1.00152957e+00
1.00158491e+00
1.00164123e+00
1.00169854e+00
1.00175682e+00
1.00181605e+00
1.00187620e+00
1.00193723e+00
1.00199908e+00
1.00206170e+00
1.00212499e+00
1.00218887e+00
1.00225323e+00
1.00231795e+00
1.00238288e+00
1.00244788e+00
1.00251278e+00
1.00257740e+00
1.00264155e+00
1.00270504e+00
1.00276765e+00
1.00282916e+00
1.00288936e+00
1.00294800e+00
1.00300486e+00
1.00305973e+00
1.00311235e+00
1.00316249e+00
1.00320998e+00
1.00325461e+00
1.00329608e+00
1.00333424e+00
1.00336909e+00
1.00340033e+00
1.00342753e+00
1.00345099e+00
1.00347091e+00
1.00348619e+00
1.00349718e+00
1.00350494e+00
1.00350871e+00
9.97551180e-01
9.97552402e-01
9.97556226e-01
9.97562936e-01
9.97572661e-01
9.97584992e-01
9.97600217e-01
9.97618640e-01
9.97639838e-01
9.97663770e-01
9.97690675e-01
9.97720458e-01
9.97752947e-01
9.97788141e-01
9.97826015e-01
9.97866441e-01
9.97909301e-01
9.97954501e-01
9.98001913e-01
9.98051385e-01
9.98102766e-01
9.98155896e-01
9.98210606e-01
9.98266718e-01
9.98324054e-01
9.98382434e-01
9.98441680e-01
9.98501615e-01
9.98562070e-01
9.98622880e-01
9.98683894e-01
9.98744966e-01
9.98805965e-01
9.98866771e-01
9.98927277e-01
9.98987391e-01
9.99047031e-01
9.99106131e-01
9.99164634e-01
9.99222498e-01
9.99279688e-01
9.99336181e-01
9.99391962e-01
9.99447023e-01
9.99501361e-01
9.99554981e-01
9.99607888e-01
9.99660094e-01
9.99711613e-01
9.99762458e-01
9.99812648e-01
9.99862199e-01
9.99911132e-01
9.99959466e-01
1.00000722e+00
1.00005443e+00
1.00010111e+00
1.00014729e+00
1.00019300e+00
1.00023827e+00
1.00028315e+00
1.00032766e+00
1.00037186e+00
1.00041578e+00
1.00045948e+00
1.00050302e+00
1.00054644e+00
1.00058980e+00
1.00063316e+00
1.00067659e+00
1.00072014e+00
1.00076387e+00
1.00080785e+00
1.00085214e+00
1.00089680e+00
1.00094188e+00
1.00098744e+00
1.00103353e+00
1.00108022e+00
1.00112754e+00
1.00117554e+00
1.00122428e+00
1.00127378e+00
1.00132409e+00
1.00137524e+00
1.00142727e+00
1.00148019e+00
1.00153404e+00
1.00158882e+00
1.00164454e+00
1.00170121e+00
1.00175882e+00
1.00181736e+00
1.00187679e+00
1.00193708e+00
1.00199819e+00
1.00206004e+00
1.00212257e+00
1.00218568e+00
1.00224928e+00
1.00231323e+00
1.00237741e+00
1.00244167e+00
1.00250585e+00
1.00256977e+00
1.00263324e+00
1.00269608e+00
1.00275806e+00
1.00281897e+00
1.00287860e+00
1.00293672e+00
1.00299308e+00
1.00304747e+00
1.00309968e+00
1.00314946e+00
1.00319656e+00
1.00324082e+00
1.00328209e+00
1.00332007e+00
1.00335453e+00
1.00338554e+00
1.00341294e+00
1.00343623e+00
1.00345555e+00
1.00347107e+00
1.00348240e+00
1.00348958e+00
1.00349282e+00
9.97562029e-01
9.97563127e-01
9.97566735e-01
9.97573455e-01
9.97582928e-01
9.97595060e-01
9.97610334e-01
9.97628502e-01
9.97649358e-01
9.97673146e-01
9.97699843e-01
9.97729269e-01
9.97761428e-01
9.97796324e-01
9.97833842e-01
9.97873873e-01
9.97916344e-01
9.97961145e-01
9.98008135e-01
9.98057176e-01
9.98108122e-01
9.98160813e-01
9.98215079e-01
9.98270747e-01
9.98327643e-01
9.98385588e-01
9.98444405e-01
9.98503920e-01
9.98563965e-01
9.98624379e-01
9.98685010e-01
9.98745715e-01
9.98806363e-01
9.98866837e-01
9.98927030e-01
9.98986849e-01
9.99046216e-01
9.99105064e-01
9.99163338e-01
9.99220995e-01
9.99278003e-01
9.99334339e-01
9.99389989e-01
9.99444946e-01
9.99499209e-01
9.99552781e-01
9.99605673e-01
9.99657896e-01
9.99709464e-01
9.99760393e-01
9.99810702e-01
9.99860408e-01
9.99909533e-01
9.99958096e-01
1.00000612e+00
1.00005363e+00
1.00010064e+00
1.00014719e+00
1.00019331e+00
1.00023901e+00
1.00028434e+00
1.00032933e+00
1.00037402e+00
1.00041846e+00
1.00046267e+00
1.00050672e+00
1.00055065e+00
1.00059451e+00
1.00063835e+00
1.00068223e+00
1.00072620e+00
1.00077032e+00
1.00081465e+00
1.00085923e+00
1.00090413e+00
1.00094939e+00
1.00099508e+00
1.00104124e+00
1.00108792e+00
1.00113518e+00
1.00118305e+00
1.00123159e+00
1.00128082e+00
1.00133081e+00
1.00138157e+00
1.00143315e+00
1.00148558e+00
1.00153887e+00
1.00159305e+00
1.00164813e+00
1.00170412e+00
1.00176101e+00
1.00181880e+00
1.00187746e+00
1.00193696e+00
1.00199725e+00
1.00205829e+00
1.00211999e+00
1.00218227e+00
1.00224503e+00
1.00230816e+00
1.00237153e+00
1.00243499e+00
1.00249839e+00
1.00256154e+00
1.00262428e+00
1.00268640e+00
1.00274770e+00
1.00280797e+00
1.00286698e+00
1.00292451e+00
1.00298034e+00
1.00303423e+00
1.00308595e+00
1.00313531e+00
1.00318206e+00
1.00322595e+00
1.00326685e+00
1.00330460e+00
1.00333890e+00
1.00336959e+00
1.00339676e+00
1.00342006e+00
1.00343920e+00
1.00345451e+00
1.00346583e+00
1.00347279e+00
1.00347591e+00
9.97573447e-01
9.97574548e-01
9.97578237e-01
9.97584598e-01
9.97593784e-01
9.97606012e-01
9.97621076e-01
9.97638837e-01
9.97659544e-01
9.97683153e-01
9.97709470e-01
9.97738549e-01
9.97770417e-01
9.97804948e-01
9.97842049e-01
9.97881679e-01
9.97923741e-01
9.97968100e-01
9.98014637e-01
9.98063223e-01
9.98113707e-01
9.98165929e-01
9.98219725e-01
9.98274927e-01
9.98331358e-01
9.98388844e-01
9.98447210e-01
9.98506285e-01
9.98565901e-01
9.98625901e-01
9.98686131e-01
9.98746453e-01
9.98806736e-01
9.98866862e-01
9.98926728e-01
9.98986242e-01
9.99045325e-01
9.99103911e-01
9.99161946e-01
9.99219389e-01
9.99276207e-01
9.99332380e-01
9.99387894e-01
9.99442742e-01
9.99496926e-01
9.99550452e-01
9.99603328e-01
9.99655568e-01
9.99707188e-01
9.99758206e-01
9.99808640e-01
9.99858509e-01
9.99907836e-01
9.99956640e-01
1.00000494e+00
1.00005277e+00
1.00010014e+00
1.00014708e+00
1.00019361e+00
1.00023977e+00
1.00028559e+00
1.00033108e+00
1.00037629e+00
1.00042126e+00
1.00046602e+00
1.00051061e+00
1.00055508e+00
1.00059946e+00
1.00064381e+00
1.00068817e+00
1.00073259e+00
1.00077713e+00
1.00082182e+00
1.00086672e+00
1.00091187e+00
1.00095734e+00
1.00100317e+00
1.00104940e+00
1.00109609e+00
1.00114327e+00
1.00119101e+00
1.00123934e+00
1.00128831e+00
1.00133795e+00
1.00138831e+00
1.00143942e+00
1.00149132e+00
1.00154403e+00
1.00159758e+00
1.00165198e+00
1.00170724e+00
1.00176338e+00
1.00182037e+00
1.00187821e+00
1.00193686e+00
1.00199630e+00
1.00205646e+00
1.00211727e+00
1.00217867e+00
1.00224054e+00
1.00230279e+00
1.00236529e+00
1.00242789e+00
1.00249045e+00
1.00255279e+00
1.00261474e+00
1.00267610e+00
1.00273666e+00
1.00279623e+00
1.00285459e+00
1.00291149e+00
1.00296673e+00
1.00302009e+00
1.00307131e+00
1.00312017e+00
1.00316650e+00
1.00321007e+00
1.00325060e+00
1.00328797e+00
1.00332209e+00
1.00335263e+00
1.00337941e+00
1.00340253e+00
1.00342176e+00
1.00343680e+00
1.00344779e+00
1.00345483e+00
1.00345794e+00
9.97585721e-01
9.97586619e-01
9.97590152e-01
9.97596354e-01
9.97605445e-01
9.97617460e-01
9.97632205e-01
9.97649802e-01
9.97670297e-01
9.97693526e-01
9.97719513e-01
9.97748303e-01
9.97779790e-01
9.97813896e-01
9.97850596e-01
9.97889808e-01
9.97931411e-01
9.97975303e-01
9.98021372e-01
9.98069478e-01
9.98119472e-01
9.98171202e-01
9.98224508e-01
9.98279220e-01
9.98335166e-01
9.98392174e-01
9.98450070e-01
9.98508687e-01
9.98567858e-01
9.98627426e-01
9.98687242e-01
9.98747166e-01
9.98807070e-01
9.98866838e-01
9.98926365e-01
9.98985562e-01
9.99044351e-01
9.99102666e-01
9.99160454e-01
9.99217675e-01
9.99274298e-01
9.99330302e-01
9.99385674e-01
9.99440411e-01
9.99494514e-01
9.99547989e-01
9.99600849e-01
9.99653108e-01
9.99704783e-01
9.99755892e-01
9.99806456e-01
9.99856496e-01
9.99906032e-01
9.99955086e-01
1.00000368e+00
1.00005184e+00
1.00009958e+00
1.00014692e+00
1.00019390e+00
1.00024053e+00
1.00028685e+00
1.00033287e+00
1.00037863e+00
1.00042416e+00
1.00046948e+00
1.00051464e+00
1.00055967e+00
1.00060461e+00
1.00064949e+00
1.00069436e+00
1.00073925e+00
1.00078422e+00
1.00082930e+00
1.00087453e+00
1.00091997e+00
1.00096565e+00
1.00101163e+00
1.00105794e+00
1.00110464e+00
1.00115177e+00
1.00119937e+00
1.00124749e+00
1.00129618e+00
1.00134547e+00
1.00139541e+00
1.00144604e+00
1.00149739e+00
1.00154949e+00
1.00160238e+00
1.00165607e+00
1.00171058e+00
1.00176591e+00
1.00182207e+00
1.00187905e+00
1.00193682e+00
1.00199534e+00
1.00205457e+00
1.00211446e+00
1.00217491e+00
1.00223585e+00
1.00229717e+00
1.00235874e+00
1.00242044e+00
1.00248210e+00
1.00254358e+00
1.00260468e+00
1.00266523e+00
1.00272502e+00
1.00278385e+00
1.00284149e+00
1.00289774e+00
1.00295235e+00
1.00300512e+00
1.00305582e+00
1.00310420e+00
1.00315005e+00
1.00319320e+00
1.00323341e+00
1.00327045e+00
1.00330420e+00
1.00333453e+00
1.00336115e+00
1.00338399e+00
1.00340302e+00
1.00341798e+00
1.00342883e+00
1.00343573e+00
1.00343864e+00
9.97598510e-01
9.97599195e-01
9.97602502e-01
9.97608632e-01
9.97617575e-01
9.97629267e-01
9.97643806e-01
9.97661221e-01
9.97681360e-01
9.97704247e-01
9.97729949e-01
9.97758366e-01
9.97789426e-01
9.97823130e-01
9.97859411e-01
9.97898157e-01
9.97939284e-01
9.97982701e-01
9.98028278e-01
9.98075878e-01
9.98125364e-01
9.98176587e-01
9.98229382e-01
9.98283586e-01
9.98339030e-01
9.98395544e-01
9.98452955e-01
9.98511098e-01
9.98569810e-01
9.98628934e-01
9.98688322e-01
9.98747837e-01
9.98807351e-01
9.98866749e-01
9.98925929e-01
9.98984800e-01
9.99043286e-01
9.99101322e-01
9.99158857e-01
9.99215850e-01
9.99272271e-01
9.99328101e-01
9.99383328e-01
9.99437950e-01
9.99491969e-01
9.99545393e-01
9.99598236e-01
9.99650514e-01
9.99702244e-01
9.99753448e-01
9.99804146e-01
9.99854360e-01
9.99904113e-01
9.99953426e-01
1.00000232e+00
1.00005082e+00
1.00009894e+00
1.00014671e+00
1.00019414e+00
1.00024126e+00
1.00028810e+00
1.00033467e+00
1.00038099e+00
1.00042710e+00
1.00047301e+00
1.00051877e+00
1.00056438e+00
1.00060989e+00
1.00065533e+00
1.00070073e+00
1.00074612e+00
1.00079154e+00
1.00083702e+00
1.00088261e+00
1.00092834e+00
1.00097426e+00
1.00102040e+00
1.00106680e+00
1.00111352e+00
1.00116059e+00
1.00120806e+00
1.00125598e+00
1.00130438e+00
1.00135332e+00
1.00140283e+00
1.00145296e+00
1.00150375e+00
1.00155523e+00
1.00160743e+00
1.00166039e+00
1.00171411e+00
1.00176862e+00
1.00182392e+00
1.00188000e+00
1.00193684e+00
1.00199441e+00
1.00205268e+00
1.00211159e+00
1.00217106e+00
1.00223102e+00
1.00229135e+00
1.00235196e+00
1.00241270e+00
1.00247343e+00
1.00253399e+00
1.00259421e+00
1.00265391e+00
1.00271288e+00
1.00277092e+00
1.00282782e+00
1.00288337e+00
1.00293733e+00
1.00298948e+00
1.00303960e+00
1.00308747e+00
1.00313286e+00
1.00317553e+00
1.00321535e+00
1.00325209e+00
1.00328550e+00
1.00331550e+00
1.00334196e+00
1.00336460e+00
1.00338334e+00
1.00339817e+00
1.00340896e+00
1.00341566e+00
1.00341838e+00
9.97611532e-01
9.97612100e-01
9.97615281e-01
9.97621224e-01
9.97629936e-01
9.97641435e-01
9.97655766e-01
9.97672850e-01
9.97692669e-01
9.97715277e-01
9.97740610e-01
9.97768607e-01
9.97799276e-01
9.97832565e-01
9.97868378e-01
9.97906649e-01
9.97947300e-01
9.97990218e-01
9.98035280e-01
9.98082363e-01
9.98131330e-01
9.98182027e-01
9.98234297e-01
9.98287981e-01
9.98342910e-01
9.98398915e-01
9.98455830e-01
9.98513488e-01
9.98571729e-01
9.98630398e-01
9.98689349e-01
9.98748445e-01
9.98807561e-01
9.98866581e-01
9.98925405e-01
9.98983943e-01
9.99042120e-01
9.99099871e-01
9.99157147e-01
9.99213906e-01
9.99270121e-01
9.99325773e-01
9.99380852e-01
9.99435355e-01
9.99489288e-01
9.99542660e-01
9.99595485e-01
9.99647781e-01
9.99699569e-01
9.99750868e-01
9.99801703e-01
9.99852096e-01
9.99902070e-01
9.99951647e-01
1.00000085e+00
1.00004970e+00
1.00009821e+00
1.00014641e+00
1.00019431e+00
1.00024194e+00
1.00028931e+00
1.00033644e+00
1.00038334e+00
1.00043005e+00
1.00047657e+00
1.00052293e+00
1.00056915e+00
1.00061526e+00
1.00066127e+00
1.00070722e+00
1.00075312e+00
1.00079901e+00
1.00084492e+00
1.00089088e+00
1.00093693e+00
1.00098309e+00
1.00102941e+00
1.00107592e+00
1.00112267e+00
1.00116969e+00
1.00121704e+00
1.00126475e+00
1.00131287e+00
1.00136145e+00
1.00141054e+00
1.00146016e+00
1.00151038e+00
1.00156122e+00
1.00161273e+00
1.00166493e+00
1.00171785e+00
1.00177151e+00
1.00182592e+00
1.00188107e+00
1.00193695e+00
1.00199354e+00
1.00205081e+00
1.00210871e+00
1.00216716e+00
1.00222609e+00
1.00228541e+00
1.00234501e+00
1.00240475e+00
1.00246451e+00
1.00252412e+00
1.00258342e+00
1.00264222e+00
1.00270033e+00
1.00275756e+00
1.00281368e+00
1.00286849e+00
1.00292177e+00
1.00297328e+00
1.00302280e+00
1.00307011e+00
1.00311500e+00
1.00315724e+00
1.00319661e+00
1.00323297e+00
1.00326610e+00
1.00329578e+00
1.00332193e+00
1.00334439e+00
1.00336296e+00
1.00337759e+00
1.00338821e+00
1.00339480e+00
1.00339742e+00
9.97624739e-01
9.97625181e-01
9.97628244e-01
9.97633983e-01
9.97642488e-01
9.97653798e-01
9.97667849e-01
9.97684620e-01
9.97704160e-01
9.97726426e-01
9.97751358e-01
9.97778972e-01
9.97809237e-01
9.97842068e-01
9.97877412e-01
9.97915212e-01
9.97955367e-01
9.97997768e-01
9.98042311e-01
9.98088869e-01
9.98137302e-01
9.98187463e-01
9.98239200e-01
9.98292354e-01
9.98346757e-01
9.98402246e-01
9.98458655e-01
9.98515820e-01
9.98573582e-01
9.98631789e-01
9.98690296e-01
9.98748967e-01
9.98807677e-01
9.98866314e-01
9.98924776e-01
9.98982977e-01
9.99040839e-01
9.99098301e-01
9.99155313e-01
9.99211835e-01
9.99267841e-01
9.99323312e-01
9.99378239e-01
9.99432623e-01
9.99486468e-01
9.99539786e-01
9.99592593e-01
9.99644907e-01
9.99696752e-01
9.99748149e-01
9.99799122e-01
9.99849696e-01
9.99899895e-01
9.99949740e-01
9.99999254e-01
1.00004846e+00
1.00009737e+00
1.00014601e+00
1.00019439e+00
1.00024253e+00
1.00029044e+00
1.00033814e+00
1.00038565e+00
1.00043296e+00
1.00048011e+00
1.00052709e+00
1.00057394e+00
1.00062065e+00
1.00066726e+00
1.00071377e+00
1.00076020e+00
1.00080659e+00
1.00085294e+00
1.00089929e+00
1.00094566e+00
1.00099208e+00
1.00103859e+00
1.00108522e+00
1.00113201e+00
1.00117900e+00
1.00122623e+00
1.00127375e+00
1.00132160e+00
1.00136983e+00
1.00141848e+00
1.00146760e+00
1.00151725e+00
1.00156745e+00
1.00161825e+00
1.00166969e+00
1.00172180e+00
1.00177459e+00
1.00182809e+00
1.00188229e+00
1.00193720e+00
1.00199278e+00
1.00204903e+00
1.00210588e+00
1.00216328e+00
1.00222117e+00
1.00227943e+00
1.00233799e+00
1.00239671e+00
1.00245545e+00
1.00251407e+00
1.00257241e+00
1.00263029e+00
1.00268751e+00
1.00274389e+00
1.00279921e+00
1.00285325e+00
1.00290581e+00
1.00295665e+00
1.00300556e+00
1.00305229e+00
1.00309664e+00
1.00313842e+00
1.00317737e+00
1.00321331e+00
1.00324609e+00
1.00327550e+00
1.00330135e+00
1.00332355e+00
1.00334196e+00
1.00335640e+00
1.00336684e+00
1.00337334e+00
1.00337584e+00
9.97638012e-01
9.97638295e-01
9.97641200e-01
9.97646785e-01
9.97655104e-01
9.97666161e-01
9.97679934e-01
9.97696441e-01
9.97715661e-01
9.97737550e-01
9.97762117e-01
9.97789346e-01
9.97819168e-01
9.97851545e-01
9.97886432e-01
9.97923744e-01
9.97963388e-01
9.98005276e-01
9.98049296e-01
9.98095319e-01
9.98143211e-01
9.98192833e-01
9.98244032e-01
9.98296648e-01
9.98350522e-01
9.98405490e-01
9.98461388e-01
9.98518055e-01
9.98575334e-01
9.98633074e-01
9.98691132e-01
9.98749374e-01
9.98807675e-01
9.98865925e-01
9.98924023e-01
9.98981882e-01
9.99039428e-01
9.99096598e-01
9.99153344e-01
9.99209627e-01
9.99265421e-01
9.99320709e-01
9.99375484e-01
9.99429746e-01
9.99483502e-01
9.99536766e-01
9.99589553e-01
9.99641887e-01
9.99693788e-01
9.99745283e-01
9.99796396e-01
9.99847152e-01
9.99897577e-01
9.99947694e-01
9.99997523e-01
1.00004709e+00
1.00009640e+00
1.00014548e+00
1.00019435e+00
1.00024301e+00
1.00029148e+00
1.00033976e+00
1.00038787e+00
1.00043580e+00
1.00048358e+00
1.00053120e+00
1.00057868e+00
1.00062602e+00
1.00067323e+00
1.00072032e+00
1.00076730e+00
1.00081419e+00
1.00086100e+00
1.00090775e+00
1.00095447e+00
1.00100117e+00
1.00104789e+00
1.00109465e+00
1.00114150e+00
1.00118847e+00
1.00123559e+00
1.00128293e+00
1.00133051e+00
1.00137840e+00
1.00142663e+00
1.00147526e+00
1.00152433e+00
1.00157389e+00
1.00162399e+00
1.00167467e+00
1.00172595e+00
1.00177787e+00
1.00183045e+00
1.00188369e+00
1.00193761e+00
1.00199217e+00
1.00204737e+00
1.00210316e+00
1.00215949e+00
1.00221630e+00
1.00227349e+00
1.00233098e+00
1.00238864e+00
1.00244635e+00
1.00250396e+00
1.00256131e+00
1.00261823e+00
1.00267454e+00
1.00273003e+00
1.00278452e+00
1.00283778e+00
1.00288959e+00
1.00293973e+00
1.00298799e+00
1.00303414e+00
1.00307795e+00
1.00311921e+00
1.00315773e+00
1.00319327e+00
1.00322567e+00
1.00325476e+00
1.00328035e+00
1.00330229e+00
1.00332046e+00
1.00333473e+00
1.00334505e+00
1.00335140e+00
1.00335376e+00
9.97651143e-01
9.97651284e-01
9.97654040e-01
9.97659467e-01
9.97667584e-01
9.97678395e-01
9.97691916e-01
9.97708136e-01
9.97727015e-01
9.97748559e-01
9.97772762e-01
9.97799576e-01
9.97828965e-01
9.97860903e-01
9.97895319e-01
9.97932136e-01
9.97971280e-01
9.98012655e-01
9.98056145e-01
9.98101632e-01
9.98148988e-01
9.98198069e-01
9.98248726e-01
9.98300806e-01
9.98354149e-01
9.98408594e-01
9.98463980e-01
9.98520148e-01
9.98576943e-01
9.98634216e-01
9.98691824e-01
9.98749635e-01
9.98807527e-01
9.98865389e-01
9.98923121e-01
9.98980639e-01
9.99037867e-01
9.99094745e-01
9.99151224e-01
9.99207268e-01
9.99262850e-01
9.99317955e-01
9.99372577e-01
9.99426717e-01
9.99480384e-01
9.99533593e-01
9.99586361e-01
9.99638712e-01
9.99690671e-01
9.99742263e-01
9.99793516e-01
9.99844456e-01
9.99895107e-01
9.99945496e-01
9.99995642e-01
1.00004557e+00
1.00009529e+00
1.00014482e+00
1.00019417e+00
1.00024335e+00
1.00029238e+00
1.00034125e+00
1.00038996e+00
1.00043853e+00
1.00048695e+00