# vtk DataFile Version 2.0
LBM Flow Field - Timestep 840
ASCII
DATASET STRUCTURED_POINTS
DIMENSIONS 128 128 1
ORIGIN 0.0 0.0 0.0
SPACING 1.0 1.0 1.0
POINT_DATA 16384
SCALARS density double 1
LOOKUP_TABLE default
1.00162245e+00
1.00162118e+00
1.00162057e+00
1.00162888e+00
1.00163992e+00
1.00165110e+00
1.00166548e+00
1.00168317e+00
1.00170275e+00
1.00172466e+00
1.00174982e+00
1.00177803e+00
1.00180911e+00
1.00184335e+00
1.00188087e+00
1.00192155e+00
1.00196533e+00
1.00201216e+00
1.00206188e+00
1.00211423e+00
1.00216893e+00
1.00222561e+00
1.00228379e+00
1.00234294e+00
1.00240243e+00
1.00246152e+00
1.00251942e+00
1.00257523e+00
1.00262799e+00
1.00267667e+00
1.00272019e+00
1.00275745e+00
1.00278734e+00
1.00280881e+00
1.00282085e+00
1.00282256e+00
1.00281320e+00
1.00279222e+00
1.00275928e+00
1.00271432e+00
1.00265755e+00
1.00258949e+00
1.00251094e+00
1.00242299e+00
1.00232696e+00
1.00222438e+00
1.00211691e+00
1.00200626e+00
1.00189415e+00
1.00178218e+00
1.00167178e+00
1.00156413e+00
1.00146011e+00
1.00136024e+00
1.00126466e+00
1.00117316e+00
1.00108516e+00
1.00099975e+00
1.00091578e+00
1.00083189e+00
1.00074659e+00
1.00065835e+00
1.00056568e+00
1.00046717e+00
1.00036160e+00
1.00024796e+00
1.00012554e+00
9.99993924e-01
9.99853060e-01
9.99703260e-01
9.99545216e-01
9.99379997e-01
9.99209030e-01
9.99034068e-01
9.98857142e-01
9.98680499e-01
9.98506519e-01
9.98337632e-01
9.98176222e-01
9.98024537e-01
9.97884597e-01
9.97758122e-01
9.97646475e-01
9.97550618e-01
9.97471097e-01
9.97408049e-01
9.97361220e-01
9.97330004e-01
9.97313498e-01
9.97310561e-01
9.97319871e-01
9.97339992e-01
9.97369432e-01
9.97406689e-01
9.97450304e-01
9.97498888e-01
9.97551153e-01
9.97605931e-01
9.97662181e-01
9.97718996e-01
9.97775603e-01
9.97831357e-01
9.97885733e-01
9.97938318e-01
9.97988798e-01
9.98036945e-01
9.98082612e-01
9.98125710e-01
9.98166201e-01
9.98204099e-01
9.98239450e-01
9.98272293e-01
9.98302694e-01
9.98330786e-01
9.98356640e-01
9.98380231e-01
9.98401702e-01
9.98421312e-01
9.98438894e-01
9.98454231e-01
9.98468065e-01
9.98480758e-01
9.98490896e-01
9.98498409e-01
9.98506374e-01
9.98512506e-01
9.98508348e-01
9.98504083e-01
1.00162194e+00
1.00162584e+00
1.00162934e+00
1.00163649e+00
1.00164718e+00
1.00165923e+00
1.00167382e+00
1.00169116e+00
1.00171106e+00
1.00173339e+00
1.00175859e+00
1.00178676e+00
1.00181791e+00
1.00185210e+00
1.00188940e+00
1.00192981e+00
1.00197325e+00
1.00201961e+00
1.00206874e+00
1.00212042e+00
1.00217433e+00
1.00223010e+00
1.00228728e+00
1.00234532e+00
1.00240359e+00
1.00246138e+00
1.00251789e+00
1.00257223e+00
1.00262346e+00
1.00267056e+00
1.00271247e+00
1.00274812e+00
1.00277643e+00
1.00279637e+00
1.00280696e+00
1.00280736e+00
1.00279686e+00
1.00277494e+00
1.00274131e+00
1.00269593e+00
1.00263905e+00
1.00257118e+00
1.00249312e+00
1.00240594e+00
1.00231094e+00
1.00220959e+00
1.00210351e+00
1.00199434e+00
1.00188372e+00
1.00177318e+00
1.00166409e+00
1.00155757e+00
1.00145446e+00
1.00135523e+00
1.00126004e+00
1.00116868e+00
1.00108058e+00
1.00099490e+00
1.00091053e+00
1.00082618e+00
1.00074045e+00
1.00065186e+00
1.00055898e+00
1.00046048e+00
1.00035518e+00
1.00024212e+00
1.00012058e+00
9.99990191e-01
9.99850876e-01
9.99702933e-01
9.99547022e-01
9.99384163e-01
9.99215724e-01
9.99043388e-01
9.98869106e-01
9.98695039e-01
9.98523483e-01
9.98356787e-01
9.98197261e-01
9.98047091e-01
9.97908253e-01
9.97782441e-01
9.97671007e-01
9.97574924e-01
9.97494764e-01
9.97430702e-01
9.97382533e-01
9.97349708e-01
9.97331384e-01
9.97326476e-01
9.97333721e-01
9.97351735e-01
9.97379071e-01
9.97414270e-01
9.97455902e-01
9.97502607e-01
9.97553118e-01
9.97606280e-01
9.97661062e-01
9.97716564e-01
9.97772013e-01
9.97826764e-01
9.97880288e-01
9.97932164e-01
9.97982071e-01
9.98029773e-01
9.98075108e-01
9.98117978e-01
9.98158338e-01
9.98196182e-01
9.98231533e-01
9.98264440e-01
9.98294968e-01
9.98323192e-01
9.98349174e-01
9.98372979e-01
9.98394712e-01
9.98414441e-01
9.98432161e-01
9.98447939e-01
9.98462072e-01
9.98474438e-01
9.98484750e-01
9.98493167e-01
9.98500590e-01
9.98505414e-01
9.98505776e-01
9.98507814e-01
1.00162527e+00
1.00163342e+00
1.00164415e+00
1.00165023e+00
1.00165882e+00
1.00167239e+00
1.00168797e+00
1.00170489e+00
1.00172488e+00
1.00174789e+00
1.00177327e+00
1.00180136e+00
1.00183256e+00
1.00186671e+00
1.00190374e+00
1.00194374e+00
1.00198667e+00
1.00203236e+00
1.00208065e+00
1.00213133e+00
1.00218409e+00
1.00223856e+00
1.00229428e+00
1.00235073e+00
1.00240729e+00
1.00246324e+00
1.00251782e+00
1.00257014e+00
1.00261928e+00
1.00266425e+00
1.00270401e+00
1.00273752e+00
1.00276373e+00
1.00278166e+00
1.00279036e+00
1.00278902e+00
1.00277699e+00
1.00275379e+00
1.00271915e+00
1.00267308e+00
1.00261583e+00
1.00254794e+00
1.00247020e+00
1.00238367e+00
1.00228961e+00
1.00218945e+00
1.00208474e+00
1.00197708e+00
1.00186802e+00
1.00175903e+00
1.00165141e+00
1.00154622e+00
1.00144425e+00
1.00134595e+00
1.00125145e+00
1.00116056e+00
1.00107275e+00
1.00098720e+00
1.00090286e+00
1.00081852e+00
1.00073283e+00
1.00064439e+00
1.00055184e+00
1.00045390e+00
1.00034943e+00
1.00023751e+00
1.00011745e+00
9.99988870e-01
9.99851682e-01
9.99706157e-01
9.99552909e-01
9.99392901e-01
9.99227428e-01
9.99058094e-01
9.98886764e-01
9.98715510e-01
9.98546539e-01
9.98382120e-01
9.98224492e-01
9.98075784e-01
9.97937932e-01
9.97812606e-01
9.97701156e-01
9.97604566e-01
9.97523439e-01
9.97457989e-01
9.97408063e-01
9.97373171e-01
9.97352529e-01
9.97345117e-01
9.97349731e-01
9.97365044e-01
9.97389663e-01
9.97422174e-01
9.97461192e-01
9.97505390e-01
9.97553530e-01
9.97604483e-01
9.97657234e-01
9.97710898e-01
9.97764710e-01
9.97818029e-01
9.97870324e-01
9.97921172e-01
9.97970245e-01
9.98017297e-01
9.98062150e-01
9.98104694e-01
9.98144871e-01
9.98182650e-01
9.98218033e-01
9.98251070e-01
9.98281811e-01
9.98310264e-01
9.98336503e-01
9.98360685e-01
9.98382790e-01
9.98402708e-01
9.98420767e-01
9.98437238e-01
9.98451531e-01
9.98463517e-01
9.98474724e-01
9.98484602e-01
9.98489922e-01
9.98493189e-01
9.98502095e-01
9.98508707e-01
1.00164312e+00
1.00165013e+00
1.00165876e+00
1.00166732e+00
1.00167791e+00
1.00169086e+00
1.00170627e+00
1.00172427e+00
1.00174480e+00
1.00176781e+00
1.00179350e+00
1.00182194e+00
1.00185314e+00
1.00188712e+00
1.00192391e+00
1.00196348e+00
1.00200573e+00
1.00205054e+00
1.00209777e+00
1.00214715e+00
1.00219841e+00
1.00225117e+00
1.00230500e+00
1.00235936e+00
1.00241366e+00
1.00246721e+00
1.00251924e+00
1.00256893e+00
1.00261535e+00
1.00265756e+00
1.00269456e+00
1.00272533e+00
1.00274889e+00
1.00276427e+00
1.00277059e+00
1.00276710e+00
1.00275318e+00
1.00272839e+00
1.00269252e+00
1.00264559e+00
1.00258789e+00
1.00251995e+00
1.00244257e+00
1.00235677e+00
1.00226378e+00
1.00216498e+00
1.00206186e+00
1.00195593e+00
1.00184867e+00
1.00174148e+00
1.00163557e+00
1.00153195e+00
1.00143134e+00
1.00133419e+00
1.00124060e+00
1.00115039e+00
1.00106306e+00
1.00097784e+00
1.00089375e+00
1.00080962e+00
1.00072419e+00
1.00063613e+00
1.00054416e+00
1.00044705e+00
1.00034371e+00
1.00023324e+00
1.00011499e+00
9.99988566e-01
9.99853872e-01
9.99711145e-01
9.99560951e-01
9.99404192e-01
9.99242088e-01
9.99076157e-01
9.98908171e-01
9.98740105e-01
9.98574072e-01
9.98412250e-01
9.98256796e-01
9.98109773e-01
9.97973066e-01
9.97848313e-01
9.97736852e-01
9.97639674e-01
9.97557407e-01
9.97490308e-01
9.97438276e-01
9.97400883e-01
9.97377417e-01
9.97366928e-01
9.97368285e-01
9.97380231e-01
9.97401439e-01
9.97430557e-01
9.97466254e-01
9.97507251e-01
9.97552353e-01
9.97600462e-01
9.97650593e-01
9.97701880e-01
9.97753571e-01
9.97805034e-01
9.97855739e-01
9.97905261e-01
9.97953261e-01
9.97999480e-01
9.98043730e-01
9.98085875e-01
9.98125832e-01
9.98163559e-01
9.98199039e-01
9.98232271e-01
9.98263286e-01
9.98292126e-01
9.98318818e-01
9.98343391e-01
9.98365927e-01
9.98386472e-01
9.98405017e-01
9.98421632e-01
9.98436482e-01
9.98449460e-01
9.98460412e-01
9.98469588e-01
9.98477107e-01
9.98482751e-01
9.98489128e-01
9.98494423e-01
1.00166744e+00
1.00167311e+00
1.00167954e+00
1.00169007e+00
1.00170199e+00
1.00171455e+00
1.00173033e+00
1.00174935e+00
1.00177030e+00
1.00179350e+00
1.00181960e+00
1.00184835e+00
1.00187953e+00
1.00191334e+00
1.00194983e+00
1.00198882e+00
1.00203024e+00
1.00207398e+00
1.00211988e+00
1.00216767e+00
1.00221707e+00
1.00226772e+00
1.00231920e+00
1.00237099e+00
1.00242251e+00
1.00247310e+00
1.00252203e+00
1.00256848e+00
1.00261159e+00
1.00265043e+00
1.00268406e+00
1.00271151e+00
1.00273184e+00
1.00274415e+00
1.00274761e+00
1.00274152e+00
1.00272532e+00
1.00269864e+00
1.00266129e+00
1.00261334e+00
1.00255508e+00
1.00248708e+00
1.00241011e+00
1.00232517e+00
1.00223344e+00
1.00213624e+00
1.00203497e+00
1.00193107e+00
1.00182593e+00
1.00172085e+00
1.00161695e+00
1.00151517e+00
1.00141619e+00
1.00132039e+00
1.00122790e+00
1.00113851e+00
1.00105177e+00
1.00096697e+00
1.00088319e+00
1.00079934e+00
1.00071425e+00
1.00062668e+00
1.00053540e+00
1.00043928e+00
1.00033726e+00
1.00022851e+00
1.00011237e+00
9.99988462e-01
9.99856669e-01
9.99717192e-01
9.99570544e-01
9.99417554e-01
9.99259357e-01
9.99097372e-01
9.98933264e-01
9.98768898e-01
9.98606273e-01
9.98447463e-01
9.98294530e-01
9.98149459e-01
9.98014073e-01
9.97889973e-01
9.97778479e-01
9.97680592e-01
9.97596966e-01
9.97527904e-01
9.97473366e-01
9.97432999e-01
9.97406167e-01
9.97392007e-01
9.97389471e-01
9.97397386e-01
9.97414502e-01
9.97439542e-01
9.97471239e-01
9.97508374e-01
9.97549801e-01
9.97594464e-01
9.97641413e-01
9.97689805e-01
9.97738909e-01
9.97788100e-01
9.97836855e-01
9.97884742e-01
9.97931415e-01
9.97976600e-01
9.98020091e-01
9.98061732e-01
9.98101408e-01
9.98139053e-01
9.98174631e-01
9.98208105e-01
9.98239460e-01
9.98268748e-01
9.98295982e-01
9.98321088e-01
9.98344151e-01
9.98365368e-01
9.98384575e-01
9.98401541e-01
9.98416838e-01
9.98430774e-01
9.98442121e-01
9.98450751e-01
9.98459340e-01
9.98467166e-01
9.98471333e-01
9.98475128e-01
1.00169519e+00
1.00170128e+00
1.00170908e+00
1.00171856e+00
1.00172997e+00
1.00174424e+00
1.00176094e+00
1.00177973e+00
1.00180110e+00
1.00182513e+00
1.00185151e+00
1.00188022e+00
1.00191145e+00
1.00194512e+00
1.00198109e+00
1.00201933e+00
1.00205976e+00
1.00210222e+00
1.00214650e+00
1.00219239e+00
1.00223960e+00
1.00228777e+00
1.00233648e+00
1.00238526e+00
1.00243353e+00
1.00248067e+00
1.00252597e+00
1.00256866e+00
1.00260791e+00
1.00264285e+00
1.00267258e+00
1.00269620e+00
1.00271281e+00
1.00272157e+00
1.00272174e+00
1.00271267e+00
1.00269386e+00
1.00266498e+00
1.00262593e+00
1.00257678e+00
1.00251787e+00
1.00244976e+00
1.00237321e+00
1.00228918e+00
1.00219882e+00
1.00210336e+00
1.00200413e+00
1.00190247e+00
1.00179966e+00
1.00169690e+00
1.00159524e+00
1.00149552e+00
1.00139836e+00
1.00130412e+00
1.00121288e+00
1.00112448e+00
1.00103849e+00
1.00095425e+00
1.00087091e+00
1.00078750e+00
1.00070290e+00
1.00061599e+00
1.00052561e+00
1.00043071e+00
1.00033029e+00
1.00022355e+00
1.00010987e+00
9.99988846e-01
9.99860364e-01
9.99724575e-01
9.99581932e-01
9.99433183e-01
9.99279368e-01
9.99121796e-01
9.98962015e-01
9.98801765e-01
9.98642927e-01
9.98487454e-01
9.98337308e-01
9.98194384e-01
9.98060440e-01
9.97937033e-01
9.97825467e-01
9.97726747e-01
9.97641558e-01
9.97570253e-01
9.97512860e-01
9.97469104e-01
9.97438441e-01
9.97420098e-01
9.97413125e-01
9.97416441e-01
9.97428884e-01
9.97449259e-01
9.97476374e-01
9.97509077e-01
9.97546277e-01
9.97586968e-01
9.97630237e-01
9.97675272e-01
9.97721362e-01
9.97767894e-01
9.97814349e-01
9.97860294e-01
9.97905375e-01
9.97949301e-01
9.97991843e-01
9.98032825e-01
9.98072112e-01
9.98109594e-01
9.98145200e-01
9.98178891e-01
9.98210623e-01
9.98240348e-01
9.98268087e-01
9.98293873e-01
9.98317629e-01
9.98339321e-01
9.98359138e-01
9.98377105e-01
9.98392914e-01
9.98406678e-01
9.98418921e-01
9.98429197e-01
9.98437133e-01
9.98443880e-01
9.98449384e-01
9.98453655e-01
1.00172948e+00
1.00173552e+00
1.00174390e+00
1.00175290e+00
1.00176457e+00
1.00177964e+00
1.00179664e+00
1.00181579e+00
1.00183776e+00
1.00186216e+00
1.00188864e+00
1.00191745e+00
1.00194861e+00
1.00198189e+00
1.00201722e+00
1.00205457e+00
1.00209380e+00
1.00213470e+00
1.00217712e+00
1.00222083e+00
1.00226552e+00
1.00231085e+00
1.00235643e+00
1.00240179e+00
1.00244640e+00
1.00248965e+00
1.00253088e+00
1.00256936e+00
1.00260429e+00
1.00263487e+00
1.00266025e+00
1.00267957e+00
1.00269203e+00
1.00269685e+00
1.00269334e+00
1.00268093e+00
1.00265920e+00
1.00262787e+00
1.00258688e+00
1.00253637e+00
1.00247669e+00
1.00240839e+00
1.00233224e+00
1.00224915e+00
1.00216022e+00
1.00206661e+00
1.00196955e+00
1.00187027e+00
1.00176997e+00
1.00166972e+00
1.00157048e+00
1.00147300e+00
1.00137784e+00
1.00128532e+00
1.00119551e+00
1.00110824e+00
1.00102315e+00
1.00093962e+00
1.00085689e+00
1.00077406e+00
1.00069014e+00
1.00060408e+00
1.00051483e+00
1.00042138e+00
1.00032284e+00
1.00021841e+00
1.00010751e+00
9.99989749e-01
9.99864964e-01
9.99733271e-01
9.99595053e-01
9.99450973e-01
9.99301965e-01
9.99149221e-01
9.98994160e-01
9.98838390e-01
9.98683659e-01
9.98531798e-01
9.98384655e-01
9.98244032e-01
9.98111614e-01
9.97988915e-01
9.97877218e-01
9.97777537e-01
9.97690589e-01
9.97616784e-01
9.97556222e-01
9.97508716e-01
9.97473820e-01
9.97450862e-01
9.97438994e-01
9.97437238e-01
9.97444527e-01
9.97459756e-01
9.97481812e-01
9.97509615e-01
9.97542135e-01
9.97578418e-01
9.97617591e-01
9.97658874e-01
9.97701579e-01
9.97745107e-01
9.97788944e-01
9.97832655e-01
9.97875876e-01
9.97918304e-01
9.97959689e-01
9.97999827e-01
9.98038559e-01
9.98075751e-01
9.98111288e-01
9.98145093e-01
9.98177121e-01
9.98207285e-01
9.98235521e-01
9.98261875e-01
9.98286329e-01
9.98308711e-01
9.98329079e-01
9.98347701e-01
9.98364316e-01
9.98378539e-01
9.98391046e-01
9.98402128e-01
9.98410392e-01
9.98416611e-01
9.98422699e-01
9.98426944e-01
1.00177075e+00
1.00177611e+00
1.00178353e+00
1.00179333e+00
1.00180574e+00
1.00182034e+00
1.00183759e+00
1.00185764e+00
1.00187985e+00
1.00190416e+00
1.00193083e+00
1.00195969e+00
1.00199047e+00
1.00202314e+00
1.00205770e+00
1.00209395e+00
1.00213170e+00
1.00217082e+00
1.00221113e+00
1.00225236e+00
1.00229423e+00
1.00233643e+00
1.00237855e+00
1.00242016e+00
1.00246075e+00
1.00249976e+00
1.00253654e+00
1.00257042e+00
1.00260067e+00
1.00262650e+00
1.00264715e+00
1.00266182e+00
1.00266977e+00
1.00267031e+00
1.00266281e+00
1.00264678e+00
1.00262186e+00
1.00258785e+00
1.00254474e+00
1.00249271e+00
1.00243214e+00
1.00236358e+00
1.00228778e+00
1.00220563e+00
1.00211816e+00
1.00202644e+00
1.00193163e+00
1.00183484e+00
1.00173715e+00
1.00163954e+00
1.00154284e+00
1.00144775e+00
1.00135473e+00
1.00126406e+00
1.00117581e+00
1.00108983e+00
1.00100578e+00
1.00092311e+00
1.00084115e+00
1.00075909e+00
1.00067603e+00
1.00059102e+00
1.00050311e+00
1.00041137e+00
1.00031497e+00
1.00021315e+00
1.00010535e+00
9.99991166e-01
9.99870423e-01
9.99743180e-01
9.99609748e-01
9.99470696e-01
9.99326848e-01
9.99179270e-01
9.99029246e-01
9.98878244e-01
9.98727874e-01
9.98579835e-01
9.98435858e-01
9.98297647e-01
9.98166813e-01
9.98044821e-01
9.97932937e-01
9.97832184e-01
9.97743316e-01
9.97666801e-01
9.97602820e-01
9.97551279e-01
9.97511834e-01
9.97483925e-01
9.97466812e-01
9.97459622e-01
9.97461392e-01
9.97471107e-01
9.97487741e-01
9.97510286e-01
9.97537777e-01
9.97569310e-01
9.97604056e-01
9.97641267e-01
9.97680277e-01
9.97720502e-01
9.97761434e-01
9.97802636e-01
9.97843735e-01
9.97884415e-01
9.97924410e-01
9.97963490e-01
9.98001462e-01
9.98038174e-01
9.98073491e-01
9.98107277e-01
9.98139438e-01
9.98169929e-01
9.98198651e-01
9.98225476e-01
9.98250433e-01
9.98273568e-01
9.98294675e-01
9.98313639e-01
9.98330777e-01
9.98346071e-01
9.98358962e-01
9.98369695e-01
9.98378725e-01
9.98385720e-01
9.98391003e-01
9.98394688e-01
1.00181748e+00
1.00182268e+00
1.00182978e+00
1.00183972e+00
1.00185213e+00
1.00186684e+00
1.00188446e+00
1.00190460e+00
1.00192679e+00
1.00195121e+00
1.00197783e+00
1.00200629e+00
1.00203651e+00
1.00206847e+00
1.00210197e+00
1.00213681e+00
1.00217287e+00
1.00220997e+00
1.00224789e+00
1.00228638e+00
1.00232517e+00
1.00236395e+00
1.00240234e+00
1.00243992e+00
1.00247621e+00
1.00251067e+00
1.00254273e+00
1.00257172e+00
1.00259698e+00
1.00261778e+00
1.00263341e+00
1.00264315e+00
1.00264633e+00
1.00264231e+00
1.00263057e+00
1.00261069e+00
1.00258238e+00
1.00254551e+00
1.00250012e+00
1.00244643e+00
1.00238485e+00
1.00231595e+00
1.00224045e+00
1.00215921e+00
1.00207318e+00
1.00198338e+00
1.00189085e+00
1.00179659e+00
1.00170158e+00
1.00160668e+00
1.00151262e+00
1.00141999e+00
1.00132921e+00
1.00124050e+00
1.00115393e+00
1.00106935e+00
1.00098646e+00
1.00090479e+00
1.00082375e+00
1.00074261e+00
1.00066059e+00
1.00057684e+00
1.00049048e+00
1.00040069e+00
1.00030667e+00
1.00020772e+00
1.00010330e+00
9.99992991e-01
9.99876593e-01
9.99754107e-01
9.99625769e-01
9.99492048e-01
9.99353653e-01
9.99211518e-01
9.99066786e-01
9.98920780e-01
9.98774966e-01
9.98630908e-01
9.98490215e-01
9.98354491e-01
9.98225272e-01
9.98103976e-01
9.97991849e-01
9.97889929e-01
9.97799008e-01
9.97719619e-01
9.97652028e-01
9.97596239e-01
9.97552017e-01
9.97518916e-01
9.97496309e-01
9.97483435e-01
9.97479433e-01
9.97483384e-01
9.97494347e-01
9.97511387e-01
9.97533602e-01
9.97560141e-01
9.97590215e-01
9.97623108e-01
9.97658175e-01
9.97694846e-01
9.97732620e-01
9.97771059e-01
9.97809783e-01
9.97848461e-01
9.97886811e-01
9.97924587e-01
9.97961570e-01
9.97997569e-01
9.98032430e-01
9.98066009e-01
9.98098151e-01
9.98128753e-01
9.98157754e-01
9.98185022e-01
9.98210425e-01
9.98233994e-01
9.98255713e-01
9.98275335e-01
9.98292870e-01
9.98308573e-01
9.98322100e-01
9.98333124e-01
9.98342286e-01
9.98349554e-01
9.98354688e-01
9.98358318e-01
1.00187009e+00
1.00187527e+00
1.00188253e+00
1.00189193e+00
1.00190404e+00
1.00191915e+00
1.00193674e+00
1.00195648e+00
1.00197864e+00
1.00200297e+00
1.00202905e+00
1.00205686e+00
1.00208636e+00
1.00211727e+00
1.00214938e+00
1.00218258e+00
1.00221670e+00
1.00225149e+00
1.00228676e+00
1.00232227e+00
1.00235774e+00
1.00239286e+00
1.00242728e+00
1.00246061e+00
1.00249238e+00
1.00252210e+00
1.00254921e+00
1.00257311e+00
1.00259317e+00
1.00260874e+00
1.00261916e+00
1.00262377e+00
1.00262198e+00
1.00261324e+00
1.00259709e+00
1.00257320e+00
1.00254134e+00
1.00250146e+00
1.00245366e+00
1.00239820e+00
1.00233552e+00
1.00226619e+00
1.00219092e+00
1.00211054e+00
1.00202592e+00
1.00193800e+00
1.00184773e+00
1.00175600e+00
1.00166368e+00
1.00157149e+00
1.00148009e+00
1.00138997e+00
1.00130148e+00
1.00121480e+00
1.00112998e+00
1.00104690e+00
1.00096529e+00
1.00088474e+00
1.00080476e+00
1.00072471e+00
1.00064390e+00
1.00056159e+00
1.00047700e+00
1.00038936e+00
1.00029795e+00
1.00020212e+00
1.00010132e+00
9.99995136e-01
9.99883333e-01
9.99765853e-01
9.99642851e-01
9.99514694e-01
9.99381971e-01
9.99245481e-01
9.99106223e-01
9.98965372e-01
9.98824246e-01
9.98684273e-01
9.98546939e-01
9.98413746e-01
9.98286156e-01
9.98165539e-01
9.98053126e-01
9.97949970e-01
9.97856908e-01
9.97774538e-01
9.97703215e-01
9.97643047e-01
9.97593912e-01
9.97555478e-01
9.97527237e-01
9.97508538e-01
9.97498625e-01
9.97496674e-01
9.97501826e-01
9.97513221e-01
9.97530015e-01
9.97551406e-01
9.97576646e-01
9.97605046e-01
9.97635984e-01
9.97668900e-01
9.97703300e-01
9.97738743e-01
9.97774848e-01
9.97811272e-01
9.97847714e-01
9.97883911e-01
9.97919633e-01
9.97954660e-01
9.97988795e-01
9.98021884e-01
9.98053779e-01
9.98084296e-01
9.98113311e-01
9.98140775e-01
9.98166543e-01
9.98190413e-01
9.98212418e-01
9.98232602e-01
9.98250663e-01
9.98266468e-01
9.98280331e-01
9.98292032e-01
9.98301178e-01
9.98308157e-01
9.98313606e-01
9.98317376e-01
1.00192945e+00
1.00193418e+00
1.00194101e+00
1.00195009e+00
1.00196205e+00
1.00197682e+00
1.00199396e+00
1.00201345e+00
1.00203522e+00
1.00205884e+00
1.00208417e+00
1.00211115e+00
1.00213949e+00
1.00216896e+00
1.00219943e+00
1.00223071e+00
1.00226256e+00
1.00229477e+00
1.00232716e+00
1.00235945e+00
1.00239138e+00
1.00242265e+00
1.00245293e+00
1.00248183e+00
1.00250893e+00
1.00253375e+00
1.00255578e+00
1.00257447e+00
1.00258922e+00
1.00259944e+00
1.00260453e+00
1.00260391e+00
1.00259705e+00
1.00258348e+00
1.00256282e+00
1.00253480e+00
1.00249930e+00
1.00245632e+00
1.00240602e+00
1.00234871e+00
1.00228484e+00
1.00221500e+00
1.00213988e+00
1.00206027e+00
1.00197699e+00
1.00189089e+00
1.00180281e+00
1.00171357e+00
1.00162387e+00
1.00153438e+00
1.00144562e+00
1.00135799e+00
1.00127180e+00
1.00118717e+00
1.00110415e+00
1.00102262e+00
1.00094237e+00
1.00086306e+00
1.00078426e+00
1.00070544e+00
1.00062601e+00
1.00054531e+00
1.00046266e+00
1.00037738e+00
1.00028879e+00
1.00019628e+00
1.00009930e+00
9.99997451e-01
9.99890441e-01
9.99778160e-01
9.99660675e-01
9.99538251e-01
9.99411353e-01
9.99280645e-01
9.99146980e-01
9.99011382e-01
9.98875025e-01
9.98739195e-01
9.98605259e-01
9.98474618e-01
9.98348658e-01
9.98228706e-01
9.98115981e-01
9.98011552e-01
9.97916301e-01
9.97830900e-01
9.97755793e-01
9.97691194e-01
9.97637096e-01
9.97593284e-01
9.97559368e-01
9.97534807e-01
9.97518948e-01
9.97511060e-01
9.97510365e-01
9.97516070e-01
9.97527388e-01
9.97543565e-01
9.97563885e-01
9.97587687e-01
9.97614365e-01
9.97643373e-01
9.97674219e-01
9.97706464e-01
9.97739719e-01
9.97773636e-01
9.97807904e-01
9.97842239e-01
9.97876392e-01
9.97910140e-01
9.97943263e-01
9.97975557e-01
9.98006862e-01
9.98037021e-01
9.98065839e-01
9.98093176e-01
9.98118965e-01
9.98143043e-01
9.98165227e-01
9.98185524e-01
9.98203891e-01
9.98220043e-01
9.98233989e-01
9.98245804e-01
9.98255158e-01
9.98262124e-01
9.98267416e-01
9.98270987e-01
1.00199526e+00
1.00199938e+00
1.00200544e+00
1.00201419e+00
1.00202572e+00
1.00203971e+00
1.00205625e+00
1.00207517e+00
1.00209601e+00
1.00211862e+00
1.00214293e+00
1.00216860e+00
1.00219537e+00
1.00222311e+00
1.00225162e+00
1.00228061e+00
1.00230990e+00
1.00233929e+00
1.00236854e+00
1.00239739e+00
1.00242559e+00
1.00245285e+00
1.00247884e+00
1.00250321e+00
1.00252553e+00
1.00254539e+00
1.00256228e+00
1.00257569e+00
1.00258509e+00
1.00258993e+00
1.00258966e+00
1.00258378e+00
1.00257182e+00
1.00255338e+00
1.00252818e+00
1.00249601e+00
1.00245683e+00
1.00241069e+00
1.00235784e+00
1.00229860e+00
1.00223348e+00
1.00216306e+00
1.00208801e+00
1.00200908e+00
1.00192704e+00
1.00184266e+00
1.00175668e+00
1.00166981e+00
1.00158266e+00
1.00149577e+00
1.00140957e+00
1.00132439e+00
1.00124045e+00
1.00115786e+00
1.00107664e+00
1.00099671e+00
1.00091788e+00
1.00083988e+00
1.00076236e+00
1.00068490e+00
1.00060698e+00
1.00052805e+00
1.00044751e+00
1.00036475e+00
1.00027914e+00
1.00019011e+00
1.00009713e+00
9.99999756e-01
9.99897682e-01
9.99790726e-01
9.99678875e-01
9.99562285e-01
9.99441300e-01
9.99316446e-01
9.99188432e-01
9.99058132e-01
9.98926574e-01
9.98794910e-01
9.98664386e-01
9.98536302e-01
9.98411975e-01
9.98292688e-01
9.98179650e-01
9.98073949e-01
9.97976515e-01
9.97888094e-01
9.97809221e-01
9.97740219e-01
9.97681193e-01
9.97632048e-01
9.97592508e-01
9.97562142e-01
9.97540396e-01
9.97526629e-01
9.97520138e-01
9.97520194e-01
9.97526065e-01
9.97537033e-01
9.97552416e-01
9.97571575e-01
9.97593918e-01
9.97618907e-01
9.97646056e-01
9.97674926e-01
9.97705122e-01
9.97736289e-01
9.97768110e-01
9.97800295e-01
9.97832572e-01
9.97864699e-01
9.97896463e-01
9.97927639e-01
9.97958015e-01
9.97987430e-01
9.98015725e-01
9.98042679e-01
9.98068141e-01
9.98092056e-01
9.98114240e-01
9.98134462e-01
9.98152750e-01
9.98169063e-01
9.98183065e-01
9.98194691e-01
9.98204087e-01
9.98211090e-01
9.98215979e-01
9.98219247e-01
1.00206711e+00
1.00207066e+00
1.00207602e+00
1.00208399e+00
1.00209464e+00
1.00210781e+00
1.00212344e+00
1.00214117e+00
1.00216076e+00
1.00218210e+00
1.00220486e+00
1.00222876e+00
1.00225365e+00
1.00227929e+00
1.00230541e+00
1.00233180e+00
1.00235825e+00
1.00238454e+00
1.00241040e+00
1.00243562e+00
1.00245994e+00
1.00248305e+00
1.00250466e+00
1.00252442e+00
1.00254194e+00
1.00255679e+00
1.00256854e+00
1.00257670e+00
1.00258078e+00
1.00258026e+00
1.00257468e+00
1.00256358e+00
1.00254656e+00
1.00252330e+00
1.00249358e+00
1.00245729e+00
1.00241443e+00
1.00236515e+00
1.00230972e+00
1.00224854e+00
1.00218211e+00
1.00211104e+00
1.00203598e+00
1.00195764e+00
1.00187672e+00
1.00179394e+00
1.00170993e+00
1.00162530e+00
1.00154056e+00
1.00145614e+00
1.00137238e+00
1.00128954e+00
1.00120777e+00
1.00112716e+00
1.00104772e+00
1.00096938e+00
1.00089199e+00
1.00081536e+00
1.00073921e+00
1.00066319e+00
1.00058689e+00
1.00050985e+00
1.00043155e+00
1.00035144e+00
1.00026894e+00
1.00018350e+00
1.00009462e+00
1.00000182e+00
9.99904766e-01
9.99803206e-01
9.99697041e-01
9.99586326e-01
9.99471280e-01
9.99352297e-01
9.99229940e-01
9.99104939e-01
9.98978179e-01
9.98850677e-01
9.98723562e-01
9.98598039e-01
9.98475355e-01
9.98356753e-01
9.98243433e-01
9.98136503e-01
9.98036945e-01
9.97945575e-01
9.97863024e-01
9.97789718e-01
9.97725878e-01
9.97671525e-01
9.97626493e-01
9.97590460e-01
9.97562966e-01
9.97543454e-01
9.97531294e-01
9.97525815e-01
9.97526330e-01
9.97532159e-01
9.97542646e-01
9.97557168e-01
9.97575147e-01
9.97596050e-01
9.97619393e-01
9.97644738e-01
9.97671687e-01
9.97699881e-01
9.97728991e-01
9.97758726e-01
9.97788812e-01
9.97818986e-01
9.97849014e-01
9.97878687e-01
9.97907782e-01
9.97936079e-01
9.97963415e-01
9.97989624e-01
9.98014481e-01
9.98037827e-01
9.98059582e-01
9.98079556e-01
9.98097553e-01
9.98113540e-01
9.98127393e-01
9.98138876e-01
9.98147993e-01
9.98154687e-01
9.98159258e-01
9.98162277e-01
1.00214498e+00
1.00214780e+00
1.00215230e+00
1.00215922e+00
1.00216877e+00
1.00218083e+00
1.00219506e+00
1.00221125e+00
1.00222927e+00
1.00224881e+00
1.00226955e+00
1.00229133e+00
1.00231392e+00
1.00233702e+00
1.00236041e+00
1.00238388e+00
1.00240719e+00
1.00243009e+00
1.00245236e+00
1.00247378e+00
1.00249406e+00
1.00251293e+00
1.00253009e+00
1.00254521e+00
1.00255792e+00
1.00256782e+00
1.00257448e+00
1.00257746e+00
1.00257629e+00
1.00257052e+00
1.00255973e+00
1.00254351e+00
1.00252154e+00
1.00249356e+00
1.00245941e+00
1.00241907e+00
1.00237260e+00
1.00232022e+00
1.00226224e+00
1.00219911e+00
1.00213136e+00
1.00205959e+00
1.00198444e+00
1.00190659e+00
1.00182668e+00
1.00174535e+00
1.00166315e+00
1.00158060e+00
1.00149809e+00
1.00141598e+00
1.00133451e+00
1.00125387e+00
1.00117415e+00
1.00109543e+00
1.00101770e+00
1.00094090e+00
1.00086495e+00
1.00078970e+00
1.00071495e+00
1.00064044e+00
1.00056584e+00
1.00049077e+00
1.00041478e+00
1.00033740e+00
1.00025808e+00
1.00017631e+00
1.00009157e+00
1.00000339e+00
9.99911373e-01
9.99815215e-01
9.99714730e-01
9.99609870e-01
9.99500736e-01
9.99387589e-01
9.99270855e-01
9.99151119e-01
9.99029128e-01
9.98905771e-01
9.98782060e-01
9.98659108e-01
9.98538096e-01
9.98420228e-01
9.98306694e-01
9.98198627e-01
9.98097055e-01
9.98002870e-01
9.97916791e-01
9.97839350e-01
9.97770878e-01
9.97711509e-01
9.97661188e-01
9.97619691e-01
9.97586653e-01
9.97561593e-01
9.97543949e-01
9.97533102e-01
9.97528408e-01
9.97529216e-01
9.97534892e-01
9.97544828e-01
9.97558452e-01
9.97575237e-01
9.97594700e-01
9.97616398e-01
9.97639934e-01
9.97664947e-01
9.97691105e-01
9.97718103e-01
9.97745670e-01
9.97773548e-01
9.97801483e-01
9.97829247e-01
9.97856640e-01
9.97883436e-01
9.97909412e-01
9.97934409e-01
9.97958254e-01
9.97980710e-01
9.98001623e-01
9.98020911e-01
9.98038359e-01
9.98053754e-01
9.98067083e-01
9.98078194e-01
9.98086866e-01
9.98093050e-01
9.98097175e-01
9.98099808e-01
1.00222861e+00
1.00223047e+00
1.00223384e+00
1.00223960e+00
1.00224783e+00
1.00225829e+00
1.00227078e+00
1.00228513e+00
1.00230109e+00
1.00231835e+00
1.00233671e+00
1.00235596e+00
1.00237579e+00
1.00239596e+00
1.00241628e+00
1.00243649e+00
1.00245634e+00
1.00247563e+00
1.00249411e+00
1.00251155e+00
1.00252768e+00
1.00254224e+00
1.00255493e+00
1.00256542e+00
1.00257335e+00
1.00257836e+00
1.00258003e+00
1.00257794e+00
1.00257166e+00
1.00256079e+00
1.00254494e+00
1.00252376e+00
1.00249699e+00
1.00246444e+00
1.00242601e+00
1.00238174e+00
1.00233178e+00
1.00227638e+00
1.00221592e+00
1.00215088e+00
1.00208180e+00
1.00200930e+00
1.00193401e+00
1.00185655e+00
1.00177753e+00
1.00169750e+00
1.00161695e+00
1.00153628e+00
1.00145582e+00
1.00137582e+00
1.00129645e+00
1.00121783e+00
1.00114001e+00
1.00106304e+00
1.00098691e+00
1.00091159e+00
1.00083703e+00
1.00076314e+00
1.00068978e+00
1.00061679e+00
1.00054392e+00
1.00047085e+00
1.00039721e+00
1.00032258e+00
1.00024646e+00
1.00016836e+00
1.00008776e+00
1.00000417e+00
9.99917150e-01
9.99826341e-01
9.99731473e-01
9.99632397e-01
9.99529101e-01
9.99421719e-01
9.99310539e-01
9.99196013e-01
9.99078750e-01
9.98959514e-01
9.98839208e-01
9.98718854e-01
9.98599568e-01
9.98482515e-01
9.98368880e-01
9.98259814e-01
9.98156393e-01
9.98059579e-01
9.97970180e-01
9.97888830e-01
9.97815966e-01
9.97751831e-01
9.97696474e-01
9.97649770e-01
9.97611438e-01
9.97581073e-01
9.97558172e-01
9.97542166e-01
9.97532446e-01
9.97528387e-01
9.97529373e-01
9.97534804e-01
9.97544116e-01
9.97556780e-01
9.97572314e-01
9.97590274e-01
9.97610258e-01
9.97631902e-01
9.97654876e-01
9.97678875e-01
9.97703616e-01
9.97728845e-01
9.97754320e-01
9.97779796e-01
9.97805055e-01
9.97829900e-01
9.97854111e-01
9.97877467e-01
9.97899804e-01
9.97920949e-01
9.97940674e-01
9.97958821e-01
9.97975281e-01
9.97989843e-01
9.98002338e-01
9.98012672e-01
9.98020713e-01
9.98026296e-01
9.98029720e-01
9.98031768e-01
1.00231737e+00
1.00231819e+00
1.00232029e+00
1.00232466e+00
1.00233125e+00
1.00233982e+00
1.00235026e+00
1.00236236e+00
1.00237581e+00
1.00239044e+00
1.00240601e+00
1.00242226e+00
1.00243893e+00
1.00245584e+00
1.00247273e+00
1.00248935e+00
1.00250549e+00
1.00252094e+00
1.00253544e+00
1.00254876e+00
1.00256065e+00
1.00257085e+00
1.00257905e+00
1.00258494e+00
1.00258818e+00
1.00258839e+00
1.00258519e+00
1.00257818e+00
1.00256697e+00
1.00255118e+00
1.00253046e+00
1.00250452e+00
1.00247315e+00
1.00243621e+00
1.00239369e+00
1.00234567e+00
1.00229235e+00
1.00223406e+00
1.00217122e+00
1.00210433e+00
1.00203397e+00
1.00196073e+00
1.00188525e+00
1.00180810e+00
1.00172985e+00
1.00165098e+00
1.00157189e+00
1.00149292e+00
1.00141429e+00
1.00133619e+00
1.00125871e+00
1.00118190e+00
1.00110580e+00
1.00103042e+00
1.00095575e+00
1.00088179e+00
1.00080852e+00
1.00073592e+00
1.00066392e+00
1.00059242e+00
1.00052124e+00
1.00045015e+00
1.00037884e+00
1.00030692e+00
1.00023396e+00