# vtk DataFile Version 2.0
LBM Flow Field - Timestep 1050
ASCII
DATASET STRUCTURED_POINTS
DIMENSIONS 128 128 1
ORIGIN 0.0 0.0 0.0
SPACING 1.0 1.0 1.0
POINT_DATA 16384
SCALARS density double 1
LOOKUP_TABLE default
9.99625102e-01
9.99624966e-01
9.99624574e-01
9.99623150e-01
9.99621609e-01
9.99620097e-01
9.99618307e-01
9.99616279e-01
9.99614127e-01
9.99611829e-01
9.99609317e-01
9.99606572e-01
9.99603548e-01
9.99600175e-01
9.99596378e-01
9.99592084e-01
9.99587204e-01
9.99581643e-01
9.99575300e-01
9.99568071e-01
9.99559848e-01
9.99550522e-01
9.99539988e-01
9.99528147e-01
9.99514911e-01
9.99500205e-01
9.99483980e-01
9.99466211e-01
9.99446910e-01
9.99426129e-01
9.99403971e-01
9.99380598e-01
9.99356233e-01
9.99331173e-01
9.99305787e-01
9.99280521e-01
9.99255900e-01
9.99232517e-01
9.99211030e-01
9.99192149e-01
9.99176612e-01
9.99165172e-01
9.99158561e-01
9.99157466e-01
9.99162495e-01
9.99174143e-01
9.99192762e-01
9.99218531e-01
9.99251440e-01
9.99291266e-01
9.99337581e-01
9.99389747e-01
9.99446946e-01
9.99508201e-01
9.99572421e-01
9.99638446e-01
9.99705100e-01
9.99771248e-01
9.99835844e-01
9.99897979e-01
9.99956920e-01
1.00001214e+00
1.00006331e+00
1.00011035e+00
1.00015337e+00
1.00019265e+00
1.00022865e+00
1.00026193e+00
1.00029312e+00
1.00032288e+00
1.00035186e+00
1.00038063e+00
1.00040972e+00
1.00043950e+00
1.00047024e+00
1.00050206e+00
1.00053494e+00
1.00056874e+00
1.00060321e+00
1.00063799e+00
1.00067267e+00
1.00070680e+00
1.00073990e+00
1.00077153e+00
1.00080126e+00
1.00082873e+00
1.00085365e+00
1.00087580e+00
1.00089506e+00
1.00091139e+00
1.00092481e+00
1.00093544e+00
1.00094345e+00
1.00094907e+00
1.00095255e+00
1.00095416e+00
1.00095422e+00
1.00095299e+00
1.00095078e+00
1.00094783e+00
1.00094440e+00
1.00094069e+00
1.00093687e+00
1.00093309e+00
1.00092948e+00
1.00092610e+00
1.00092302e+00
1.00092028e+00
1.00091787e+00
1.00091581e+00
1.00091406e+00
1.00091260e+00
1.00091140e+00
1.00091042e+00
1.00090961e+00
1.00090895e+00
1.00090839e+00
1.00090788e+00
1.00090742e+00
1.00090699e+00
1.00090654e+00
1.00090604e+00
1.00090565e+00
1.00090538e+00
1.00090485e+00
1.00090428e+00
1.00090524e+00
1.00090622e+00
9.99625592e-01
9.99624960e-01
9.99624297e-01
9.99623086e-01
9.99621632e-01
9.99620088e-01
9.99618334e-01
9.99616401e-01
9.99614278e-01
9.99611977e-01
9.99609450e-01
9.99606669e-01
9.99603577e-01
9.99600116e-01
9.99596212e-01
9.99591789e-01
9.99586758e-01
9.99581026e-01
9.99574494e-01
9.99567058e-01
9.99558613e-01
9.99549054e-01
9.99538280e-01
9.99526195e-01
9.99512719e-01
9.99497785e-01
9.99481349e-01
9.99463399e-01
9.99443954e-01
9.99423078e-01
9.99400888e-01
9.99377553e-01
9.99353310e-01
9.99328465e-01
9.99303395e-01
9.99278552e-01
9.99254462e-01
9.99231718e-01
9.99210971e-01
9.99192917e-01
9.99178281e-01
9.99167789e-01
9.99162147e-01
9.99162010e-01
9.99167949e-01
9.99180422e-01
9.99199745e-01
9.99226061e-01
9.99259329e-01
9.99299304e-01
9.99345542e-01
9.99397404e-01
9.99454076e-01
9.99514602e-01
9.99577919e-01
9.99642907e-01
9.99708437e-01
9.99773423e-01
9.99836870e-01
9.99897920e-01
9.99955882e-01
1.00001026e+00
1.00006077e+00
1.00010733e+00
1.00015006e+00
1.00018924e+00
1.00022531e+00
1.00025880e+00
1.00029033e+00
1.00032051e+00
1.00034997e+00
1.00037925e+00
1.00040884e+00
1.00043908e+00
1.00047023e+00
1.00050239e+00
1.00053553e+00
1.00056951e+00
1.00060408e+00
1.00063888e+00
1.00067352e+00
1.00070755e+00
1.00074051e+00
1.00077196e+00
1.00080150e+00
1.00082877e+00
1.00085349e+00
1.00087546e+00
1.00089455e+00
1.00091072e+00
1.00092402e+00
1.00093454e+00
1.00094247e+00
1.00094803e+00
1.00095146e+00
1.00095305e+00
1.00095308e+00
1.00095186e+00
1.00094964e+00
1.00094671e+00
1.00094328e+00
1.00093958e+00
1.00093578e+00
1.00093202e+00
1.00092841e+00
1.00092504e+00
1.00092197e+00
1.00091923e+00
1.00091683e+00
1.00091477e+00
1.00091302e+00
1.00091157e+00
1.00091038e+00
1.00090940e+00
1.00090861e+00
1.00090797e+00
1.00090743e+00
1.00090697e+00
1.00090656e+00
1.00090617e+00
1.00090580e+00
1.00090543e+00
1.00090510e+00
1.00090480e+00
1.00090449e+00
1.00090417e+00
1.00090470e+00
1.00090485e+00
9.99625988e-01
9.99624956e-01
9.99623607e-01
9.99622550e-01
9.99621259e-01
9.99619616e-01
9.99617865e-01
9.99615999e-01
9.99613893e-01
9.99611554e-01
9.99608989e-01
9.99606144e-01
9.99602956e-01
9.99599371e-01
9.99595319e-01
9.99590718e-01
9.99585480e-01
9.99579514e-01
9.99572722e-01
9.99565001e-01
9.99556250e-01
9.99546367e-01
9.99535255e-01
9.99522827e-01
9.99509008e-01
9.99493741e-01
9.99476992e-01
9.99458758e-01
9.99439074e-01
9.99418015e-01
9.99395711e-01
9.99372346e-01
9.99348169e-01
9.99323497e-01
9.99298718e-01
9.99274291e-01
9.99250745e-01
9.99228672e-01
9.99208718e-01
9.99191568e-01
9.99177929e-01
9.99168505e-01
9.99163973e-01
9.99164955e-01
9.99171985e-01
9.99185480e-01
9.99205715e-01
9.99232798e-01
9.99266649e-01
9.99306997e-01
9.99353376e-01
9.99405136e-01
9.99461465e-01
9.99521417e-01
9.99583954e-01
9.99647990e-01
9.99712438e-01
9.99776262e-01
9.99838518e-01
9.99898401e-01
9.99955271e-01
1.00000868e+00
1.00005837e+00
1.00010429e+00
1.00014658e+00
1.00018553e+00
1.00022157e+00
1.00025523e+00
1.00028708e+00
1.00031773e+00
1.00034777e+00
1.00037771e+00
1.00040800e+00
1.00043896e+00
1.00047080e+00
1.00050361e+00
1.00053735e+00
1.00057184e+00
1.00060682e+00
1.00064195e+00
1.00067681e+00
1.00071097e+00
1.00074397e+00
1.00077538e+00
1.00080480e+00
1.00083190e+00
1.00085639e+00
1.00087809e+00
1.00089689e+00
1.00091275e+00
1.00092573e+00
1.00093594e+00
1.00094356e+00
1.00094882e+00
1.00095198e+00
1.00095331e+00
1.00095312e+00
1.00095168e+00
1.00094929e+00
1.00094620e+00
1.00094265e+00
1.00093884e+00
1.00093495e+00
1.00093113e+00
1.00092747e+00
1.00092407e+00
1.00092098e+00
1.00091823e+00
1.00091582e+00
1.00091376e+00
1.00091203e+00
1.00091059e+00
1.00090942e+00
1.00090847e+00
1.00090771e+00
1.00090710e+00
1.00090660e+00
1.00090619e+00
1.00090583e+00
1.00090549e+00
1.00090519e+00
1.00090495e+00
1.00090464e+00
1.00090423e+00
1.00090415e+00
1.00090420e+00
1.00090364e+00
1.00090325e+00
9.99625253e-01
9.99624140e-01
9.99622890e-01
9.99621661e-01
9.99620219e-01
9.99618645e-01
9.99616935e-01
9.99615010e-01
9.99612871e-01
9.99610505e-01
9.99607869e-01
9.99604915e-01
9.99601596e-01
9.99597848e-01
9.99593596e-01
9.99588760e-01
9.99583254e-01
9.99576986e-01
9.99569858e-01
9.99561772e-01
9.99552630e-01
9.99542334e-01
9.99530796e-01
9.99517934e-01
9.99503685e-01
9.99488000e-01
9.99470860e-01
9.99452275e-01
9.99432292e-01
9.99411004e-01
9.99388554e-01
9.99365143e-01
9.99341034e-01
9.99316555e-01
9.99292105e-01
9.99268150e-01
9.99245221e-01
9.99223908e-01
9.99204849e-01
9.99188716e-01
9.99176194e-01
9.99167963e-01
9.99164667e-01
9.99166892e-01
9.99175129e-01
9.99189756e-01
9.99211003e-01
9.99238937e-01
9.99273443e-01
9.99314221e-01
9.99360784e-01
9.99412472e-01
9.99468474e-01
9.99527859e-01
9.99589615e-01
9.99652690e-01
9.99716042e-01
9.99778687e-01
9.99839735e-01
9.99898434e-01
9.99954199e-01
1.00000662e+00
1.00005550e+00
1.00010081e+00
1.00014269e+00
1.00018146e+00
1.00021755e+00
1.00025147e+00
1.00028378e+00
1.00031506e+00
1.00034586e+00
1.00037666e+00
1.00040788e+00
1.00043980e+00
1.00047259e+00
1.00050631e+00
1.00054089e+00
1.00057613e+00
1.00061176e+00
1.00064740e+00
1.00068266e+00
1.00071707e+00
1.00075020e+00
1.00078162e+00
1.00081094e+00
1.00083784e+00
1.00086204e+00
1.00088339e+00
1.00090178e+00
1.00091719e+00
1.00092969e+00
1.00093941e+00
1.00094655e+00
1.00095133e+00
1.00095403e+00
1.00095493e+00
1.00095434e+00
1.00095254e+00
1.00094983e+00
1.00094645e+00
1.00094265e+00
1.00093864e+00
1.00093457e+00
1.00093060e+00
1.00092684e+00
1.00092335e+00
1.00092019e+00
1.00091740e+00
1.00091497e+00
1.00091290e+00
1.00091116e+00
1.00090974e+00
1.00090859e+00
1.00090767e+00
1.00090694e+00
1.00090637e+00
1.00090592e+00
1.00090555e+00
1.00090524e+00
1.00090497e+00
1.00090471e+00
1.00090446e+00
1.00090426e+00
1.00090400e+00
1.00090368e+00
1.00090353e+00
1.00090313e+00
1.00090277e+00
9.99623945e-01
9.99622836e-01
9.99621669e-01
9.99620234e-01
9.99618716e-01
9.99617190e-01
9.99615435e-01
9.99613443e-01
9.99611261e-01
9.99608827e-01
9.99606077e-01
9.99602982e-01
9.99599492e-01
9.99595532e-01
9.99591026e-01
9.99585897e-01
9.99580058e-01
9.99573414e-01
9.99565873e-01
9.99557338e-01
9.99547716e-01
9.99536917e-01
9.99524858e-01
9.99511469e-01
9.99496695e-01
9.99480503e-01
9.99462887e-01
9.99443872e-01
9.99423523e-01
9.99401950e-01
9.99379314e-01
9.99355833e-01
9.99331785e-01
9.99307514e-01
9.99283428e-01
9.99260002e-01
9.99237769e-01
9.99217316e-01
9.99199272e-01
9.99184293e-01
9.99173041e-01
9.99166166e-01
9.99164276e-01
9.99167914e-01
9.99177527e-01
9.99193443e-01
9.99215846e-01
9.99244756e-01
9.99280019e-01
9.99321302e-01
9.99368095e-01
9.99419727e-01
9.99475391e-01
9.99534171e-01
9.99595084e-01
9.99657119e-01
9.99719285e-01
9.99780654e-01
9.99840400e-01
9.99897832e-01
9.99952424e-01
1.00000382e+00
1.00005187e+00
1.00009657e+00
1.00013810e+00
1.00017678e+00
1.00021304e+00
1.00024738e+00
1.00028034e+00
1.00031246e+00
1.00034427e+00
1.00037619e+00
1.00040861e+00
1.00044175e+00
1.00047577e+00
1.00051066e+00
1.00054632e+00
1.00058254e+00
1.00061900e+00
1.00065533e+00
1.00069111e+00
1.00072588e+00
1.00075920e+00
1.00079066e+00
1.00081987e+00
1.00084652e+00
1.00087037e+00
1.00089126e+00
1.00090912e+00
1.00092394e+00
1.00093582e+00
1.00094489e+00
1.00095137e+00
1.00095551e+00
1.00095758e+00
1.00095790e+00
1.00095675e+00
1.00095445e+00
1.00095128e+00
1.00094750e+00
1.00094335e+00
1.00093902e+00
1.00093470e+00
1.00093052e+00
1.00092657e+00
1.00092295e+00
1.00091969e+00
1.00091681e+00
1.00091433e+00
1.00091223e+00
1.00091048e+00
1.00090906e+00
1.00090792e+00
1.00090703e+00
1.00090633e+00
1.00090580e+00
1.00090539e+00
1.00090506e+00
1.00090479e+00
1.00090457e+00
1.00090437e+00
1.00090412e+00
1.00090391e+00
1.00090377e+00
1.00090341e+00
1.00090297e+00
1.00090271e+00
1.00090234e+00
9.99622217e-01
9.99621021e-01
9.99619744e-01
9.99618328e-01
9.99616826e-01
9.99615169e-01
9.99613329e-01
9.99611315e-01
9.99609048e-01
9.99606478e-01
9.99603586e-01
9.99600319e-01
9.99596606e-01
9.99592379e-01
9.99587566e-01
9.99582082e-01
9.99575839e-01
9.99568747e-01
9.99560714e-01
9.99551648e-01
9.99541461e-01
9.99530069e-01
9.99517400e-01
9.99503394e-01
9.99488010e-01
9.99471228e-01
9.99453059e-01
9.99433547e-01
9.99412774e-01
9.99390871e-01
9.99368018e-01
9.99344451e-01
9.99320466e-01
9.99296422e-01
9.99272740e-01
9.99249901e-01
9.99228440e-01
9.99208941e-01
9.99192023e-01
9.99178321e-01
9.99168474e-01
9.99163097e-01
9.99162759e-01
9.99167956e-01
9.99179087e-01
9.99196427e-01
9.99220108e-01
9.99250103e-01
9.99286215e-01
9.99328074e-01
9.99375149e-01
9.99426757e-01
9.99482095e-01
9.99540264e-01
9.99600312e-01
9.99661272e-01
9.99722210e-01
9.99782256e-01
9.99840652e-01
9.99896774e-01
9.99950159e-01
1.00000052e+00
1.00004772e+00
1.00009184e+00
1.00013306e+00
1.00017172e+00
1.00020825e+00
1.00024313e+00
1.00027688e+00
1.00031003e+00
1.00034303e+00
1.00037630e+00
1.00041014e+00
1.00044476e+00
1.00048023e+00
1.00051653e+00
1.00055350e+00
1.00059091e+00
1.00062840e+00
1.00066558e+00
1.00070202e+00
1.00073726e+00
1.00077086e+00
1.00080239e+00
1.00083151e+00
1.00085789e+00
1.00088134e+00
1.00090170e+00
1.00091892e+00
1.00093304e+00
1.00094415e+00
1.00095243e+00
1.00095810e+00
1.00096143e+00
1.00096272e+00
1.00096229e+00
1.00096044e+00
1.00095749e+00
1.00095373e+00
1.00094942e+00
1.00094479e+00
1.00094006e+00
1.00093539e+00
1.00093092e+00
1.00092674e+00
1.00092292e+00
1.00091950e+00
1.00091652e+00
1.00091395e+00
1.00091179e+00
1.00091002e+00
1.00090858e+00
1.00090744e+00
1.00090657e+00
1.00090590e+00
1.00090539e+00
1.00090502e+00
1.00090474e+00
1.00090451e+00
1.00090431e+00
1.00090414e+00
1.00090398e+00
1.00090374e+00
1.00090348e+00
1.00090319e+00
1.00090279e+00
1.00090239e+00
1.00090186e+00
9.99619934e-01
9.99618715e-01
9.99617350e-01
9.99615916e-01
9.99614347e-01
9.99612588e-01
9.99610691e-01
9.99608582e-01
9.99606174e-01
9.99603455e-01
9.99600384e-01
9.99596888e-01
9.99592900e-01
9.99588356e-01
9.99583175e-01
9.99577270e-01
9.99570555e-01
9.99562942e-01
9.99554341e-01
9.99544664e-01
9.99533829e-01
9.99521763e-01
9.99508401e-01
9.99493698e-01
9.99477626e-01
9.99460182e-01
9.99441394e-01
9.99421326e-01
9.99400082e-01
9.99377812e-01
9.99354717e-01
9.99331054e-01
9.99307138e-01
9.99283344e-01
9.99260103e-01
9.99237905e-01
9.99217287e-01
9.99198827e-01
9.99183132e-01
9.99170818e-01
9.99162494e-01
9.99158739e-01
9.99160081e-01
9.99166965e-01
9.99179738e-01
9.99198619e-01
9.99223686e-01
9.99254861e-01
9.99291900e-01
9.99334400e-01
9.99381804e-01
9.99433421e-01
9.99488448e-01
9.99546008e-01
9.99605182e-01
9.99665052e-01
9.99724739e-01
9.99783441e-01
9.99840469e-01
9.99895270e-01
9.99947447e-01
9.99996771e-01
1.00004318e+00
1.00008675e+00
1.00012773e+00
1.00016646e+00
1.00020336e+00
1.00023892e+00
1.00027362e+00
1.00030795e+00
1.00034234e+00
1.00037714e+00
1.00041261e+00
1.00044889e+00
1.00048603e+00
1.00052393e+00
1.00056241e+00
1.00060118e+00
1.00063987e+00
1.00067805e+00
1.00071528e+00
1.00075108e+00
1.00078502e+00
1.00081668e+00
1.00084572e+00
1.00087183e+00
1.00089484e+00
1.00091461e+00
1.00093113e+00
1.00094444e+00
1.00095467e+00
1.00096203e+00
1.00096676e+00
1.00096914e+00
1.00096951e+00
1.00096818e+00
1.00096549e+00
1.00096175e+00
1.00095727e+00
1.00095230e+00
1.00094710e+00
1.00094186e+00
1.00093675e+00
1.00093190e+00
1.00092740e+00
1.00092333e+00
1.00091971e+00
1.00091656e+00
1.00091387e+00
1.00091163e+00
1.00090980e+00
1.00090833e+00
1.00090718e+00
1.00090630e+00
1.00090565e+00
1.00090518e+00
1.00090483e+00
1.00090458e+00
1.00090439e+00
1.00090422e+00
1.00090405e+00
1.00090391e+00
1.00090371e+00
1.00090340e+00
1.00090307e+00
1.00090268e+00
1.00090216e+00
1.00090159e+00
9.99617120e-01
9.99615875e-01
9.99614499e-01
9.99612966e-01
9.99611288e-01
9.99609477e-01
9.99607475e-01
9.99605201e-01
9.99602639e-01
9.99599742e-01
9.99596431e-01
9.99592652e-01
9.99588343e-01
9.99583424e-01
9.99577810e-01
9.99571419e-01
9.99564166e-01
9.99555960e-01
9.99546716e-01
9.99536353e-01
9.99524796e-01
9.99511979e-01
9.99497852e-01
9.99482381e-01
9.99465555e-01
9.99447388e-01
9.99427928e-01
9.99407259e-01
9.99385507e-01
9.99362844e-01
9.99339494e-01
9.99315734e-01
9.99291899e-01
9.99268378e-01
9.99245616e-01
9.99224109e-01
9.99204396e-01
9.99187048e-01
9.99172658e-01
9.99161820e-01
9.99155114e-01
9.99153079e-01
9.99156197e-01
9.99164864e-01
9.99179369e-01
9.99199876e-01
9.99226405e-01
9.99258825e-01
9.99296849e-01
9.99340035e-01
9.99387804e-01
9.99439455e-01
9.99494192e-01
9.99551158e-01
9.99609472e-01
9.99668263e-01
9.99726715e-01
9.99784093e-01
9.99839780e-01
9.99893296e-01
9.99944315e-01
9.99992668e-01
1.00003834e+00
1.00008147e+00
1.00012231e+00
1.00016122e+00
1.00019863e+00
1.00023500e+00
1.00027081e+00
1.00030648e+00
1.00034242e+00
1.00037891e+00
1.00041618e+00
1.00045430e+00
1.00049327e+00
1.00053294e+00
1.00057308e+00
1.00061335e+00
1.00065337e+00
1.00069266e+00
1.00073078e+00
1.00076723e+00
1.00080158e+00
1.00083341e+00
1.00086238e+00
1.00088824e+00
1.00091078e+00
1.00092993e+00
1.00094568e+00
1.00095810e+00
1.00096737e+00
1.00097370e+00
1.00097737e+00
1.00097869e+00
1.00097801e+00
1.00097566e+00
1.00097199e+00
1.00096734e+00
1.00096201e+00
1.00095627e+00
1.00095038e+00
1.00094452e+00
1.00093887e+00
1.00093356e+00
1.00092867e+00
1.00092426e+00
1.00092038e+00
1.00091701e+00
1.00091416e+00
1.00091179e+00
1.00090986e+00
1.00090834e+00
1.00090716e+00
1.00090627e+00
1.00090561e+00
1.00090515e+00
1.00090483e+00
1.00090460e+00
1.00090443e+00
1.00090430e+00
1.00090416e+00
1.00090398e+00
1.00090378e+00
1.00090350e+00
1.00090310e+00
1.00090263e+00
1.00090210e+00
1.00090150e+00
9.99613892e-01
9.99612575e-01
9.99611118e-01
9.99609484e-01
9.99607716e-01
9.99605794e-01
9.99603633e-01
9.99601195e-01
9.99598442e-01
9.99595297e-01
9.99591700e-01
9.99587595e-01
9.99582905e-01
9.99577546e-01
9.99571437e-01
9.99564496e-01
9.99556633e-01
9.99547764e-01
9.99537807e-01
9.99526688e-01
9.99514338e-01
9.99500703e-01
9.99485746e-01
9.99469446e-01
9.99451808e-01
9.99432868e-01
9.99412693e-01
9.99391388e-01
9.99369101e-01
9.99346029e-01
9.99322417e-01
9.99298564e-01
9.99274822e-01
9.99251599e-01
9.99229350e-01
9.99208578e-01
9.99189821e-01
9.99173645e-01
9.99160625e-01
9.99151332e-01
9.99146315e-01
9.99146073e-01
9.99151040e-01
9.99161558e-01
9.99177859e-01
9.99200050e-01
9.99228093e-01
9.99261805e-01
9.99300851e-01
9.99344757e-01
9.99392920e-01
9.99444631e-01
9.99499102e-01
9.99555500e-01
9.99612982e-01
9.99670730e-01
9.99727990e-01
9.99784098e-01
9.99838510e-01
9.99890820e-01
9.99940770e-01
9.99988256e-01
1.00003332e+00
1.00007613e+00
1.00011696e+00
1.00015620e+00
1.00019427e+00
1.00023161e+00
1.00026867e+00
1.00030584e+00
1.00034348e+00
1.00038183e+00
1.00042103e+00
1.00046114e+00
1.00050207e+00
1.00054363e+00
1.00058555e+00
1.00062744e+00
1.00066887e+00
1.00070938e+00
1.00074845e+00
1.00078562e+00
1.00082043e+00
1.00085247e+00
1.00088141e+00
1.00090700e+00
1.00092908e+00
1.00094757e+00
1.00096251e+00
1.00097401e+00
1.00098224e+00
1.00098746e+00
1.00098998e+00
1.00099014e+00
1.00098829e+00
1.00098480e+00
1.00098004e+00
1.00097436e+00
1.00096806e+00
1.00096144e+00
1.00095474e+00
1.00094816e+00
1.00094187e+00
1.00093600e+00
1.00093063e+00
1.00092582e+00
1.00092159e+00
1.00091795e+00
1.00091488e+00
1.00091234e+00
1.00091028e+00
1.00090866e+00
1.00090741e+00
1.00090648e+00
1.00090581e+00
1.00090534e+00
1.00090503e+00
1.00090481e+00
1.00090465e+00
1.00090453e+00
1.00090441e+00
1.00090423e+00
1.00090401e+00
1.00090371e+00
1.00090329e+00
1.00090275e+00
1.00090215e+00
1.00090145e+00
9.99610210e-01
9.99608790e-01
9.99607216e-01
9.99605490e-01
9.99603606e-01
9.99601515e-01
9.99599178e-01
9.99596546e-01
9.99593539e-01
9.99590098e-01
9.99586171e-01
9.99581680e-01
9.99576542e-01
9.99570682e-01
9.99564015e-01
9.99556454e-01
9.99547913e-01
9.99538313e-01
9.99527576e-01
9.99515632e-01
9.99502426e-01
9.99487912e-01
9.99472067e-01
9.99454886e-01
9.99436393e-01
9.99416641e-01
9.99395718e-01
9.99373752e-01
9.99350915e-01
9.99327426e-01
9.99303553e-01
9.99279616e-01
9.99255986e-01
9.99233085e-01
9.99211381e-01
9.99191381e-01
9.99173622e-01
9.99158661e-01
9.99147058e-01
9.99139360e-01
9.99136078e-01
9.99137674e-01
9.99144530e-01
9.99156937e-01
9.99175069e-01
9.99198972e-01
9.99228554e-01
9.99263578e-01
9.99303666e-01
9.99348310e-01
9.99396887e-01
9.99448682e-01
9.99502919e-01
9.99558789e-01
9.99615491e-01
9.99672261e-01
9.99728409e-01
9.99783342e-01
9.99836590e-01
9.99887819e-01
9.99936842e-01
9.99983612e-01
1.00002822e+00
1.00007088e+00
1.00011189e+00
1.00015163e+00
1.00019052e+00
1.00022900e+00
1.00026747e+00
1.00030629e+00
1.00034577e+00
1.00038609e+00
1.00042736e+00
1.00046955e+00
1.00051254e+00
1.00055608e+00
1.00059985e+00
1.00064343e+00
1.00068636e+00
1.00072812e+00
1.00076822e+00
1.00080615e+00
1.00084146e+00
1.00087374e+00
1.00090267e+00
1.00092802e+00
1.00094963e+00
1.00096747e+00
1.00098159e+00
1.00099211e+00
1.00099927e+00
1.00100333e+00
1.00100463e+00
1.00100354e+00
1.00100043e+00
1.00099572e+00
1.00098976e+00
1.00098294e+00
1.00097556e+00
1.00096794e+00
1.00096032e+00
1.00095292e+00
1.00094589e+00
1.00093936e+00
1.00093342e+00
1.00092812e+00
1.00092347e+00
1.00091948e+00
1.00091612e+00
1.00091335e+00
1.00091111e+00
1.00090935e+00
1.00090800e+00
1.00090700e+00
1.00090628e+00
1.00090579e+00
1.00090545e+00
1.00090524e+00
1.00090509e+00
1.00090495e+00
1.00090482e+00
1.00090466e+00
1.00090442e+00
1.00090407e+00
1.00090362e+00
1.00090304e+00
1.00090234e+00
1.00090152e+00
9.99606025e-01
9.99604511e-01
9.99602819e-01
9.99600963e-01
9.99598918e-01
9.99596646e-01
9.99594102e-01
9.99591211e-01
9.99587903e-01
9.99584125e-01
9.99579804e-01
9.99574859e-01
9.99569214e-01
9.99562789e-01
9.99555493e-01
9.99547244e-01
9.99537959e-01
9.99527561e-01
9.99515978e-01
9.99503149e-01
9.99489027e-01
9.99473582e-01
9.99456800e-01
9.99438697e-01
9.99419312e-01
9.99398718e-01
9.99377026e-01
9.99354387e-01
9.99330993e-01
9.99307088e-01
9.99282961e-01
9.99258953e-01
9.99235454e-01
9.99212900e-01
9.99191767e-01
9.99172569e-01
9.99155839e-01
9.99142125e-01
9.99131969e-01
9.99125890e-01
9.99124368e-01
9.99127821e-01
9.99136582e-01
9.99150888e-01
9.99170857e-01
9.99196476e-01
9.99227597e-01
9.99263934e-01
9.99305068e-01
9.99350458e-01
9.99399464e-01
9.99451370e-01
9.99505410e-01
9.99560808e-01
9.99616803e-01
9.99672688e-01
9.99727836e-01
9.99781727e-01
9.99833962e-01
9.99884280e-01
9.99932558e-01
9.99978808e-01
1.00002317e+00
1.00006587e+00
1.00010726e+00
1.00014770e+00
1.00018761e+00
1.00022740e+00
1.00026744e+00
1.00030807e+00
1.00034951e+00
1.00039192e+00
1.00043534e+00
1.00047969e+00
1.00052480e+00
1.00057038e+00
1.00061604e+00
1.00066135e+00
1.00070579e+00
1.00074885e+00
1.00079000e+00
1.00082872e+00
1.00086456e+00
1.00089711e+00
1.00092606e+00
1.00095118e+00
1.00097235e+00
1.00098955e+00
1.00100284e+00
1.00101240e+00
1.00101845e+00
1.00102132e+00
1.00102135e+00
1.00101896e+00
1.00101454e+00
1.00100851e+00
1.00100127e+00
1.00099321e+00
1.00098466e+00
1.00097593e+00
1.00096729e+00
1.00095895e+00
1.00095107e+00
1.00094378e+00
1.00093717e+00
1.00093128e+00
1.00092613e+00
1.00092171e+00
1.00091799e+00
1.00091492e+00
1.00091244e+00
1.00091049e+00
1.00090899e+00
1.00090788e+00
1.00090708e+00
1.00090653e+00
1.00090616e+00
1.00090591e+00
1.00090575e+00
1.00090561e+00
1.00090546e+00
1.00090527e+00
1.00090502e+00
1.00090464e+00
1.00090413e+00
1.00090349e+00
1.00090270e+00
1.00090178e+00
9.99601315e-01
9.99599701e-01
9.99597890e-01
9.99595875e-01
9.99593644e-01
9.99591162e-01
9.99588358e-01
9.99585158e-01
9.99581506e-01
9.99577329e-01
9.99572546e-01
9.99567087e-01
9.99560871e-01
9.99553809e-01
9.99545817e-01
9.99536813e-01
9.99526717e-01
9.99515456e-01
9.99502966e-01
9.99489195e-01
9.99474107e-01
9.99457683e-01
9.99439926e-01
9.99420867e-01
9.99400564e-01
9.99379111e-01
9.99356640e-01
9.99333322e-01
9.99309375e-01
9.99285062e-01
9.99260695e-01
9.99236635e-01
9.99213288e-01
9.99191102e-01
9.99170565e-01
9.99152190e-01
9.99136509e-01
9.99124058e-01
9.99115360e-01
9.99110908e-01
9.99111146e-01
9.99116450e-01
9.99127105e-01
9.99143294e-01
9.99165078e-01
9.99192390e-01
9.99225029e-01
9.99262661e-01
9.99304827e-01
9.99350961e-01
9.99400408e-01
9.99452452e-01
9.99506345e-01
9.99561340e-01
9.99616723e-01
9.99671844e-01
9.99726139e-01
9.99779158e-01
9.99830573e-01
9.99880192e-01
9.99927953e-01
9.99973920e-01
1.00001827e+00
1.00006127e+00
1.00010327e+00
1.00014463e+00
1.00018577e+00
1.00022706e+00
1.00026884e+00
1.00031140e+00
1.00035492e+00
1.00039951e+00
1.00044514e+00
1.00049171e+00
1.00053897e+00
1.00058659e+00
1.00063415e+00
1.00068119e+00
1.00072716e+00
1.00077151e+00
1.00081371e+00
1.00085323e+00
1.00088961e+00
1.00092246e+00
1.00095145e+00
1.00097639e+00
1.00099714e+00
1.00101372e+00
1.00102622e+00
1.00103481e+00
1.00103977e+00
1.00104144e+00
1.00104019e+00
1.00103646e+00
1.00103068e+00
1.00102328e+00
1.00101469e+00
1.00100531e+00
1.00099549e+00
1.00098557e+00
1.00097580e+00
1.00096641e+00
1.00095758e+00
1.00094943e+00
1.00094205e+00
1.00093547e+00
1.00092972e+00
1.00092478e+00
1.00092062e+00
1.00091717e+00
1.00091438e+00
1.00091218e+00
1.00091048e+00
1.00090921e+00
1.00090828e+00
1.00090764e+00
1.00090720e+00
1.00090691e+00
1.00090670e+00
1.00090653e+00
1.00090636e+00
1.00090614e+00
1.00090585e+00
1.00090544e+00
1.00090488e+00
1.00090416e+00
1.00090329e+00
1.00090227e+00
9.99596060e-01
9.99594340e-01
9.99592389e-01
9.99590197e-01
9.99587754e-01
9.99585014e-01
9.99581902e-01
9.99578354e-01
9.99574296e-01
9.99569653e-01
9.99564351e-01
9.99558313e-01
9.99551453e-01
9.99543685e-01
9.99534929e-01
9.99525102e-01
9.99514130e-01
9.99501945e-01
9.99488492e-01
9.99473728e-01
9.99457627e-01
9.99440186e-01
9.99421422e-01
9.99401383e-01
9.99380146e-01
9.99357825e-01
9.99334572e-01
9.99310581e-01
9.99286091e-01
9.99261386e-01
9.99236798e-01
9.99212706e-01
9.99189532e-01
9.99167736e-01
9.99147811e-01
9.99130274e-01
9.99115651e-01
9.99104466e-01
9.99097221e-01
9.99094383e-01
9.99096360e-01
9.99103486e-01
9.99115999e-01
9.99134030e-01
9.99157587e-01
9.99186549e-01
9.99220665e-01
9.99259557e-01
9.99302732e-01
9.99349601e-01
9.99399498e-01
9.99451713e-01
9.99505516e-01
9.99560196e-01
9.99615084e-01
9.99669587e-01
9.99723206e-01
9.99775559e-01
9.99826385e-01
9.99875555e-01
9.99923065e-01
9.99969024e-01
1.00001364e+00
1.00005722e+00
1.00010008e+00
1.00014262e+00
1.00018521e+00
1.00022819e+00
1.00027188e+00
1.00031651e+00
1.00036221e+00
1.00040905e+00
1.00045694e+00
1.00050573e+00
1.00055514e+00
1.00060479e+00
1.00065423e+00
1.00070296e+00
1.00075042e+00
1.00079604e+00
1.00083928e+00
1.00087959e+00
1.00091652e+00
1.00094968e+00
1.00097874e+00
1.00100352e+00
1.00102390e+00
1.00103991e+00
1.00105164e+00
1.00105932e+00
1.00106322e+00
1.00106370e+00
1.00106119e+00
1.00105611e+00
1.00104894e+00
1.00104014e+00
1.00103015e+00
1.00101938e+00
1.00100823e+00
1.00099701e+00
1.00098602e+00
1.00097549e+00
1.00096560e+00
1.00095648e+00
1.00094821e+00
1.00094085e+00
1.00093440e+00
1.00092884e+00
1.00092414e+00
1.00092024e+00
1.00091706e+00
1.00091453e+00
1.00091257e+00
1.00091108e+00
1.00090999e+00
1.00090921e+00
1.00090866e+00
1.00090829e+00
1.00090801e+00
1.00090779e+00
1.00090757e+00
1.00090732e+00
1.00090698e+00
1.00090652e+00
1.00090590e+00
1.00090511e+00
1.00090416e+00
1.00090304e+00
9.99590217e-01
9.99588382e-01
9.99586277e-01
9.99583886e-01
9.99581196e-01
9.99578154e-01
9.99574693e-01
9.99570739e-01
9.99566213e-01
9.99561044e-01
9.99555157e-01
9.99548469e-01
9.99540895e-01
9.99532354e-01
9.99522765e-01
9.99512049e-01
9.99500138e-01
9.99486972e-01
9.99472503e-01
9.99456699e-01
9.99439548e-01
9.99421058e-01
9.99401264e-01
9.99380229e-01
9.99358050e-01
9.99334861e-01
9.99310833e-01
9.99286180e-01
9.99261164e-01
9.99236087e-01
9.99211301e-01
9.99187200e-01
9.99164220e-01
9.99142831e-01
9.99123532e-01
9.99106839e-01
9.99093272e-01
9.99083341e-01
9.99077529e-01
9.99076273e-01
9.99079949e-01
9.99088848e-01
9.99103164e-01
9.99122975e-01
9.99148241e-01
9.99178790e-01
9.99214326e-01
9.99254431e-01
9.99298583e-01
9.99346173e-01
9.99396531e-01
9.99448955e-01
9.99502739e-01
9.99557206e-01
9.99611737e-01
9.99665795e-01
9.99718945e-01
9.99770868e-01
9.99821369e-01
9.99870376e-01
9.99917934e-01
9.99964194e-01
1.00000939e+00
1.00005383e+00
1.00009786e+00
1.00014183e+00
1.00018610e+00
1.00023099e+00
1.00027675e+00
1.00032358e+00
1.00037156e+00
1.00042070e+00
1.00047088e+00
1.00052189e+00
1.00057342e+00
1.00062505e+00
1.00067631e+00
1.00072668e+00
1.00077557e+00
1.00082241e+00
1.00086663e+00
1.00090772e+00
1.00094519e+00
1.00097866e+00
1.00100782e+00
1.00103248e+00
1.00105254e+00
1.00106803e+00
1.00107906e+00
1.00108588e+00
1.00108877e+00
1.00108812e+00
1.00108437e+00
1.00107797e+00
1.00106942e+00
1.00105920e+00
1.00104777e+00
1.00103558e+00
1.00102302e+00
1.00101044e+00
1.00099814e+00
1.00098637e+00
1.00097532e+00
1.00096512e+00
1.00095586e+00
1.00094760e+00
1.00094034e+00
1.00093406e+00
1.00092873e+00
1.00092428e+00
1.00092063e+00
1.00091769e+00
1.00091539e+00
1.00091362e+00
1.00091230e+00
1.00091134e+00
1.00091064e+00
1.00091015e+00
1.00090978e+00
1.00090948e+00
1.00090919e+00
1.00090888e+00
1.00090848e+00
1.00090796e+00
1.00090728e+00
1.00090642e+00
1.00090538e+00
1.00090416e+00
9.99583737e-01
9.99581780e-01
9.99579504e-01
9.99576884e-01
9.99573909e-01
9.99570526e-01
9.99566665e-01
9.99562245e-01
9.99557193e-01
9.99551436e-01
9.99544893e-01
9.99537485e-01
9.99529130e-01
9.99519747e-01
9.99509256e-01
9.99497589e-01
9.99484680e-01
9.99470478e-01
9.99454945e-01
9.99438061e-01
9.99419826e-01
9.99400262e-01
9.99379421e-01
9.99357382e-01
9.99334261e-01
9.99310210e-01
9.99285420e-01
9.99260125e-01
9.99234604e-01
9.99209180e-01
9.99184219e-01
9.99160132e-01
9.99137366e-01
9.99116399e-01
9.99097733e-01
9.99081882e-01
9.99069358e-01
9.99060658e-01
9.99056243e-01
9.99056525e-01
9.99061842e-01
9.99072448e-01
9.99088491e-01
9.99110005e-01
9.99136900e-01
9.99168960e-01
9.99205848e-01
9.99247111e-01
9.99292203e-01
9.99340501e-01
9.99391334e-01
9.99444012e-01
9.99497858e-01
9.99552232e-01
9.99606564e-01
9.99660373e-01
9.99713286e-01
9.99765044e-01
9.99815512e-01
9.99864670e-01
9.99912606e-01
9.99959502e-01
1.00000561e+00
1.00005125e+00
1.00009674e+00
1.00014242e+00
1.00018863e+00
1.00023562e+00
1.00028363e+00
1.00033278e+00
1.00038313e+00
1.00043461e+00
1.00048709e+00
1.00054029e+00
1.00059388e+00
1.00064743e+00
1.00070043e+00
1.00075234e+00
1.00080258e+00
1.00085056e+00
1.00089573e+00
1.00093754e+00
1.00097553e+00
1.00100932e+00
1.00103859e+00
1.00106317e+00
1.00108297e+00
1.00109800e+00
1.00110842e+00
1.00111445e+00
1.00111641e+00
1.00111470e+00
1.00110976e+00
1.00110209e+00
1.00109219e+00
1.00108056e+00
1.00106769e+00
1.00105404e+00
1.00104003e+00
1.00102602e+00
1.00101235e+00
1.00099925e+00
1.00098693e+00
1.00097555e+00
1.00096519e+00
1.00095592e+00
1.00094774e+00
1.00094064e+00
1.00093456e+00
1.00092946e+00
1.00092524e+00
1.00092182e+00
1.00091910e+00
1.00091698e+00
1.00091537e+00
1.00091416e+00
1.00091327e+00
1.00091261e+00
1.00091211e+00
1.00091171e+00
1.00091133e+00
1.00091093e+00
1.00091046e+00
1.00090987e+00
1.00090911e+00
1.00090817e+00
1.00090704e+00
1.00090571e+00
9.99576564e-01
9.99574468e-01
9.99572000e-01
9.99569121e-01
9.99565825e-01
9.99562056e-01
9.99557740e-01
9.99552799e-01
9.99547160e-01
9.99540747e-01
9.99533481e-01
9.99525284e-01
9.99516079e-01
9.99505784e-01
9.99494329e-01
9.99481649e-01
9.99467686e-01
9.99452398e-01
9.99435759e-01
9.99417760e-01
9.99398413e-01
9.99377757e-01
9.99355858e-01
9.99332814e-01
9.99308757e-01
9.99283856e-01
9.99258323e-01
9.99232408e-01
9.99206408e-01
9.99180663e-01
9.99155554e-01
9.99131503e-01
9.99108968e-01
9.99088432e-01
9.99070399e-01
9.99055380e-01
9.99043879e-01
9.99036375e-01
9.99033311e-01
9.99035070e-01
9.99041957e-01
9.99054189e-01
9.99071873e-01
9.99094998e-01
9.99123433e-01
9.99156919e-01
9.99195084e-01
9.99237446e-01
9.99283439e-01
9.99332433e-01
9.99383761e-01
9.99436751e-01
9.99490752e-01
9.99545168e-01
9.99599478e-01
9.99653255e-01
9.99706184e-01
9.99758066e-01
9.99808816e-01
9.99858462e-01
9.99907126e-01
9.99955013e-01
1.00000239e+00
1.00004955e+00
1.00009682e+00