# vtk DataFile Version 2.0
LBM Flow Field - Timestep 2300
ASCII
DATASET STRUCTURED_POINTS
DIMENSIONS 128 128 1
ORIGIN 0.0 0.0 0.0
SPACING 1.0 1.0 1.0
POINT_DATA 16384
SCALARS density double 1
LOOKUP_TABLE default
1.00035663e+00
1.00036710e+00
1.00037982e+00
1.00038634e+00
1.00039520e+00
1.00040666e+00
1.00041902e+00
1.00043225e+00
1.00044686e+00
1.00046259e+00
1.00047923e+00
1.00049671e+00
1.00051492e+00
1.00053373e+00
1.00055299e+00
1.00057258e+00
1.00059237e+00
1.00061224e+00
1.00063206e+00
1.00065173e+00
1.00067112e+00
1.00069016e+00
1.00070873e+00
1.00072674e+00
1.00074412e+00
1.00076079e+00
1.00077667e+00
1.00079168e+00
1.00080577e+00
1.00081887e+00
1.00083091e+00
1.00084183e+00
1.00085158e+00
1.00086010e+00
1.00086733e+00
1.00087321e+00
1.00087771e+00
1.00088076e+00
1.00088233e+00
1.00088239e+00
1.00088088e+00
1.00087779e+00
1.00087310e+00
1.00086680e+00
1.00085887e+00
1.00084932e+00
1.00083816e+00
1.00082541e+00
1.00081110e+00
1.00079526e+00
1.00077793e+00
1.00075917e+00
1.00073904e+00
1.00071760e+00
1.00069492e+00
1.00067107e+00
1.00064615e+00
1.00062023e+00
1.00059342e+00
1.00056580e+00
1.00053748e+00
1.00050857e+00
1.00047918e+00
1.00044942e+00
1.00041942e+00
1.00038930e+00
1.00035920e+00
1.00032924e+00
1.00029957e+00
1.00027032e+00
1.00024163e+00
1.00021366e+00
1.00018653e+00
1.00016039e+00
1.00013537e+00
1.00011160e+00
1.00008920e+00
1.00006829e+00
1.00004895e+00
1.00003127e+00
1.00001533e+00
1.00000117e+00
9.99988842e-01
9.99978355e-01
9.99969712e-01
9.99962894e-01
9.99957866e-01
9.99954574e-01
9.99952950e-01
9.99952908e-01
9.99954351e-01
9.99957172e-01
9.99961252e-01
9.99966468e-01
9.99972691e-01
9.99979790e-01
9.99987634e-01
9.99996094e-01
1.00000504e+00
1.00001437e+00
1.00002395e+00
1.00003369e+00
1.00004348e+00
1.00005325e+00
1.00006291e+00
1.00007241e+00
1.00008168e+00
1.00009067e+00
1.00009935e+00
1.00010769e+00
1.00011566e+00
1.00012325e+00
1.00013045e+00
1.00013726e+00
1.00014367e+00
1.00014971e+00
1.00015539e+00
1.00016068e+00
1.00016566e+00
1.00017042e+00
1.00017486e+00
1.00017879e+00
1.00018304e+00
1.00018762e+00
1.00019069e+00
1.00019296e+00
1.00020340e+00
1.00021259e+00
1.00036717e+00
1.00037262e+00
1.00038279e+00
1.00039026e+00
1.00039969e+00
1.00041045e+00
1.00042264e+00
1.00043584e+00
1.00045026e+00
1.00046569e+00
1.00048210e+00
1.00049931e+00
1.00051724e+00
1.00053573e+00
1.00055468e+00
1.00057395e+00
1.00059342e+00
1.00061296e+00
1.00063246e+00
1.00065182e+00
1.00067091e+00
1.00068965e+00
1.00070794e+00
1.00072569e+00
1.00074282e+00
1.00075925e+00
1.00077491e+00
1.00078972e+00
1.00080363e+00
1.00081656e+00
1.00082845e+00
1.00083925e+00
1.00084888e+00
1.00085731e+00
1.00086446e+00
1.00087029e+00
1.00087475e+00
1.00087778e+00
1.00087936e+00
1.00087942e+00
1.00087796e+00
1.00087492e+00
1.00087030e+00
1.00086408e+00
1.00085625e+00
1.00084682e+00
1.00083579e+00
1.00082319e+00
1.00080903e+00
1.00079336e+00
1.00077621e+00
1.00075763e+00
1.00073769e+00
1.00071644e+00
1.00069395e+00
1.00067030e+00
1.00064557e+00
1.00061985e+00
1.00059323e+00
1.00056580e+00
1.00053766e+00
1.00050893e+00
1.00047971e+00
1.00045013e+00
1.00042029e+00
1.00039032e+00
1.00036037e+00
1.00033055e+00
1.00030101e+00
1.00027188e+00
1.00024332e+00
1.00021545e+00
1.00018843e+00
1.00016238e+00
1.00013745e+00
1.00011376e+00
1.00009143e+00
1.00007057e+00
1.00005128e+00
1.00003364e+00
1.00001773e+00
1.00000359e+00
9.99991271e-01
9.99980781e-01
9.99972125e-01
9.99965282e-01
9.99960219e-01
9.99956880e-01
9.99955197e-01
9.99955085e-01
9.99956448e-01
9.99959177e-01
9.99963154e-01
9.99968256e-01
9.99974355e-01
9.99981319e-01
9.99989019e-01
9.99997326e-01
1.00000611e+00
1.00001527e+00
1.00002467e+00
1.00003423e+00
1.00004383e+00
1.00005341e+00
1.00006288e+00
1.00007218e+00
1.00008126e+00
1.00009006e+00
1.00009855e+00
1.00010670e+00
1.00011450e+00
1.00012192e+00
1.00012897e+00
1.00013564e+00
1.00014193e+00
1.00014785e+00
1.00015342e+00
1.00015865e+00
1.00016360e+00
1.00016824e+00
1.00017266e+00
1.00017678e+00
1.00018100e+00
1.00018495e+00
1.00018881e+00
1.00019213e+00
1.00019981e+00
1.00020377e+00
1.00037975e+00
1.00038266e+00
1.00038634e+00
1.00039559e+00
1.00040578e+00
1.00041568e+00
1.00042734e+00
1.00044050e+00
1.00045463e+00
1.00046970e+00
1.00048575e+00
1.00050261e+00
1.00052015e+00
1.00053824e+00
1.00055679e+00
1.00057564e+00
1.00059470e+00
1.00061383e+00
1.00063293e+00
1.00065189e+00
1.00067061e+00
1.00068898e+00
1.00070692e+00
1.00072434e+00
1.00074117e+00
1.00075731e+00
1.00077271e+00
1.00078729e+00
1.00080098e+00
1.00081373e+00
1.00082546e+00
1.00083611e+00
1.00084564e+00
1.00085397e+00
1.00086106e+00
1.00086684e+00
1.00087128e+00
1.00087432e+00
1.00087592e+00
1.00087603e+00
1.00087463e+00
1.00087168e+00
1.00086716e+00
1.00086107e+00
1.00085338e+00
1.00084410e+00
1.00083324e+00
1.00082082e+00
1.00080685e+00
1.00079138e+00
1.00077444e+00
1.00075609e+00
1.00073636e+00
1.00071534e+00
1.00069308e+00
1.00066966e+00
1.00064516e+00
1.00061966e+00
1.00059325e+00
1.00056604e+00
1.00053812e+00
1.00050959e+00
1.00048057e+00
1.00045117e+00
1.00042152e+00
1.00039173e+00
1.00036194e+00
1.00033228e+00
1.00030288e+00
1.00027390e+00
1.00024546e+00
1.00021772e+00
1.00019080e+00
1.00016486e+00
1.00014001e+00
1.00011640e+00
1.00009414e+00
1.00007333e+00
1.00005409e+00
1.00003649e+00
1.00002060e+00
1.00000648e+00
9.99994156e-01
9.99983657e-01
9.99974980e-01
9.99968105e-01
9.99962997e-01
9.99959603e-01
9.99957852e-01
9.99957661e-01
9.99958931e-01
9.99961556e-01
9.99965417e-01
9.99970391e-01
9.99976348e-01
9.99983160e-01
9.99990695e-01
9.99998826e-01
1.00000743e+00
1.00001638e+00
1.00002558e+00
1.00003492e+00
1.00004431e+00
1.00005366e+00
1.00006290e+00
1.00007196e+00
1.00008080e+00
1.00008937e+00
1.00009763e+00
1.00010555e+00
1.00011313e+00
1.00012034e+00
1.00012718e+00
1.00013366e+00
1.00013977e+00
1.00014553e+00
1.00015095e+00
1.00015607e+00
1.00016090e+00
1.00016537e+00
1.00016973e+00
1.00017408e+00
1.00017787e+00
1.00018100e+00
1.00018595e+00
1.00019134e+00
1.00019218e+00
1.00019350e+00
1.00038541e+00
1.00038926e+00
1.00039495e+00
1.00040311e+00
1.00041158e+00
1.00042167e+00
1.00043330e+00
1.00044592e+00
1.00045959e+00
1.00047433e+00
1.00048997e+00
1.00050637e+00
1.00052345e+00
1.00054109e+00
1.00055916e+00
1.00057755e+00
1.00059613e+00
1.00061480e+00
1.00063344e+00
1.00065196e+00
1.00067025e+00
1.00068822e+00
1.00070578e+00
1.00072284e+00
1.00073933e+00
1.00075517e+00
1.00077029e+00
1.00078462e+00
1.00079809e+00
1.00081064e+00
1.00082221e+00
1.00083273e+00
1.00084214e+00
1.00085039e+00
1.00085743e+00
1.00086319e+00
1.00086762e+00
1.00087067e+00
1.00087231e+00
1.00087249e+00
1.00087117e+00
1.00086833e+00
1.00086393e+00
1.00085797e+00
1.00085044e+00
1.00084133e+00
1.00083066e+00
1.00081843e+00
1.00080467e+00
1.00078941e+00
1.00077269e+00
1.00075456e+00
1.00073507e+00
1.00071427e+00
1.00069225e+00
1.00066907e+00
1.00064480e+00
1.00061954e+00
1.00059337e+00
1.00056638e+00
1.00053868e+00
1.00051038e+00
1.00048158e+00
1.00045239e+00
1.00042294e+00
1.00039335e+00
1.00036375e+00
1.00033427e+00
1.00030506e+00
1.00027624e+00
1.00024796e+00
1.00022036e+00
1.00019358e+00
1.00016776e+00
1.00014303e+00
1.00011952e+00
1.00009734e+00
1.00007661e+00
1.00005742e+00
1.00003986e+00
1.00002399e+00
1.00000988e+00
9.99997554e-01
9.99987031e-01
9.99978314e-01
9.99971383e-01
9.99966202e-01
9.99962720e-01
9.99960865e-01
9.99960556e-01
9.99961694e-01
9.99964172e-01
9.99967873e-01
9.99972675e-01
9.99978449e-01
9.99985066e-01
9.99992396e-01
1.00000031e+00
1.00000869e+00
1.00001742e+00
1.00002638e+00
1.00003548e+00
1.00004462e+00
1.00005372e+00
1.00006271e+00
1.00007152e+00
1.00008011e+00
1.00008843e+00
1.00009645e+00
1.00010414e+00
1.00011148e+00
1.00011847e+00
1.00012511e+00
1.00013138e+00
1.00013731e+00
1.00014290e+00
1.00014816e+00
1.00015311e+00
1.00015782e+00
1.00016226e+00
1.00016639e+00
1.00017039e+00
1.00017443e+00
1.00017805e+00
1.00018128e+00
1.00018552e+00
1.00018853e+00
1.00019110e+00
1.00039318e+00
1.00039772e+00
1.00040413e+00
1.00041053e+00
1.00041867e+00
1.00042898e+00
1.00044001e+00
1.00045202e+00
1.00046532e+00
1.00047963e+00
1.00049474e+00
1.00051063e+00
1.00052719e+00
1.00054429e+00
1.00056182e+00
1.00057966e+00
1.00059771e+00
1.00061585e+00
1.00063399e+00
1.00065201e+00
1.00066983e+00
1.00068735e+00
1.00070449e+00
1.00072116e+00
1.00073729e+00
1.00075280e+00
1.00076762e+00
1.00078169e+00
1.00079493e+00
1.00080728e+00
1.00081868e+00
1.00082906e+00
1.00083837e+00
1.00084655e+00
1.00085354e+00
1.00085928e+00
1.00086372e+00
1.00086681e+00
1.00086850e+00
1.00086876e+00
1.00086754e+00
1.00086482e+00
1.00086056e+00
1.00085476e+00
1.00084739e+00
1.00083847e+00
1.00082799e+00
1.00081597e+00
1.00080243e+00
1.00078740e+00
1.00077091e+00
1.00075302e+00
1.00073377e+00
1.00071322e+00
1.00069145e+00
1.00066851e+00
1.00064450e+00
1.00061949e+00
1.00059356e+00
1.00056683e+00
1.00053937e+00
1.00051131e+00
1.00048274e+00
1.00045379e+00
1.00042457e+00
1.00039521e+00
1.00036582e+00
1.00033656e+00
1.00030755e+00
1.00027893e+00
1.00025083e+00
1.00022341e+00
1.00019679e+00
1.00017112e+00
1.00014653e+00
1.00012313e+00
1.00010106e+00
1.00008041e+00
1.00006129e+00
1.00004377e+00
1.00002793e+00
1.00001382e+00
1.00000148e+00
9.99990916e-01
9.99982140e-01
9.99975129e-01
9.99969849e-01
9.99966247e-01
9.99964255e-01
9.99963790e-01
9.99964757e-01
9.99967048e-01
9.99970548e-01
9.99975135e-01
9.99980682e-01
9.99987063e-01
9.99994147e-01
1.00000181e+00
1.00000993e+00
1.00001839e+00
1.00002708e+00
1.00003591e+00
1.00004477e+00
1.00005360e+00
1.00006231e+00
1.00007086e+00
1.00007918e+00
1.00008723e+00
1.00009499e+00
1.00010243e+00
1.00010954e+00
1.00011630e+00
1.00012271e+00
1.00012878e+00
1.00013450e+00
1.00013991e+00
1.00014501e+00
1.00014979e+00
1.00015430e+00
1.00015866e+00
1.00016275e+00
1.00016638e+00
1.00017008e+00
1.00017422e+00
1.00017723e+00
1.00017976e+00
1.00018381e+00
1.00018713e+00
1.00040346e+00
1.00040721e+00
1.00041265e+00
1.00041927e+00
1.00042762e+00
1.00043693e+00
1.00044730e+00
1.00045907e+00
1.00047189e+00
1.00048555e+00
1.00050010e+00
1.00051542e+00
1.00053138e+00
1.00054787e+00
1.00056479e+00
1.00058202e+00
1.00059947e+00
1.00061702e+00
1.00063458e+00
1.00065206e+00
1.00066935e+00
1.00068638e+00
1.00070305e+00
1.00071929e+00
1.00073503e+00
1.00075018e+00
1.00076468e+00
1.00077846e+00
1.00079146e+00
1.00080360e+00
1.00081483e+00
1.00082507e+00
1.00083428e+00
1.00084239e+00
1.00084934e+00
1.00085507e+00
1.00085953e+00
1.00086266e+00
1.00086443e+00
1.00086478e+00
1.00086368e+00
1.00086109e+00
1.00085700e+00
1.00085137e+00
1.00084419e+00
1.00083547e+00
1.00082521e+00
1.00081341e+00
1.00080011e+00
1.00078532e+00
1.00076908e+00
1.00075144e+00
1.00073246e+00
1.00071217e+00
1.00069066e+00
1.00066800e+00
1.00064425e+00
1.00061950e+00
1.00059385e+00
1.00056738e+00
1.00054019e+00
1.00051239e+00
1.00048409e+00
1.00045539e+00
1.00042643e+00
1.00039731e+00
1.00036818e+00
1.00033915e+00
1.00031037e+00
1.00028197e+00
1.00025409e+00
1.00022687e+00
1.00020044e+00
1.00017494e+00
1.00015050e+00
1.00012725e+00
1.00010529e+00
1.00008474e+00
1.00006568e+00
1.00004822e+00
1.00003240e+00
1.00001829e+00
1.00000592e+00
9.99995313e-01
9.99986461e-01
9.99979351e-01
9.99973948e-01
9.99970200e-01
9.99968041e-01
9.99967388e-01
9.99968148e-01
9.99970216e-01
9.99973477e-01
9.99977811e-01
9.99983094e-01
9.99989199e-01
9.99995999e-01
1.00000337e+00
1.00001119e+00
1.00001935e+00
1.00002774e+00
1.00003626e+00
1.00004482e+00
1.00005334e+00
1.00006176e+00
1.00007000e+00
1.00007803e+00
1.00008580e+00
1.00009328e+00
1.00010045e+00
1.00010730e+00
1.00011381e+00
1.00011998e+00
1.00012582e+00
1.00013133e+00
1.00013652e+00
1.00014142e+00
1.00014607e+00
1.00015040e+00
1.00015446e+00
1.00015844e+00
1.00016223e+00
1.00016552e+00
1.00016882e+00
1.00017234e+00
1.00017534e+00
1.00017839e+00
1.00018089e+00
1.00041449e+00
1.00041791e+00
1.00042272e+00
1.00042929e+00
1.00043700e+00
1.00044564e+00
1.00045575e+00
1.00046699e+00
1.00047909e+00
1.00049215e+00
1.00050611e+00
1.00052076e+00
1.00053603e+00
1.00055185e+00
1.00056808e+00
1.00058464e+00
1.00060142e+00
1.00061832e+00
1.00063525e+00
1.00065212e+00
1.00066883e+00
1.00068531e+00
1.00070148e+00
1.00071725e+00
1.00073256e+00
1.00074732e+00
1.00076148e+00
1.00077495e+00
1.00078768e+00
1.00079960e+00
1.00081065e+00
1.00082076e+00
1.00082986e+00
1.00083790e+00
1.00084481e+00
1.00085054e+00
1.00085503e+00
1.00085823e+00
1.00086008e+00
1.00086054e+00
1.00085958e+00
1.00085715e+00
1.00085322e+00
1.00084778e+00
1.00084082e+00
1.00083232e+00
1.00082229e+00
1.00081074e+00
1.00079768e+00
1.00078315e+00
1.00076719e+00
1.00074982e+00
1.00073111e+00
1.00071111e+00
1.00068988e+00
1.00066750e+00
1.00064403e+00
1.00061958e+00
1.00059421e+00
1.00056803e+00
1.00054113e+00
1.00051361e+00
1.00048559e+00
1.00045718e+00
1.00042850e+00
1.00039966e+00
1.00037080e+00
1.00034204e+00
1.00031352e+00
1.00028537e+00
1.00025773e+00
1.00023073e+00
1.00020452e+00
1.00017921e+00
1.00015495e+00
1.00013184e+00
1.00011002e+00
1.00008957e+00
1.00007060e+00
1.00005319e+00
1.00003740e+00
1.00002329e+00
1.00001089e+00
1.00000022e+00
9.99991278e-01
9.99984050e-01
9.99978502e-01
9.99974583e-01
9.99972229e-01
9.99971359e-01
9.99971880e-01
9.99973690e-01
9.99976677e-01
9.99980722e-01
9.99985703e-01
9.99991495e-01
9.99997973e-01
1.00000502e+00
1.00001250e+00
1.00002033e+00
1.00002838e+00
1.00003656e+00
1.00004478e+00
1.00005297e+00
1.00006105e+00
1.00006897e+00
1.00007668e+00
1.00008414e+00
1.00009132e+00
1.00009819e+00
1.00010475e+00
1.00011099e+00
1.00011690e+00
1.00012248e+00
1.00012776e+00
1.00013273e+00
1.00013740e+00
1.00014182e+00
1.00014602e+00
1.00014991e+00
1.00015354e+00
1.00015717e+00
1.00016058e+00
1.00016346e+00
1.00016658e+00
1.00016976e+00
1.00017225e+00
1.00017448e+00
1.00042609e+00
1.00042935e+00
1.00043406e+00
1.00044003e+00
1.00044709e+00
1.00045548e+00
1.00046505e+00
1.00047552e+00
1.00048701e+00
1.00049947e+00
1.00051269e+00
1.00052660e+00
1.00054114e+00
1.00055621e+00
1.00057170e+00
1.00058751e+00
1.00060356e+00
1.00061975e+00
1.00063599e+00
1.00065220e+00
1.00066829e+00
1.00068418e+00
1.00069979e+00
1.00071506e+00
1.00072990e+00
1.00074425e+00
1.00075803e+00
1.00077118e+00
1.00078363e+00
1.00079532e+00
1.00080618e+00
1.00081614e+00
1.00082514e+00
1.00083311e+00
1.00084000e+00
1.00084573e+00
1.00085026e+00
1.00085353e+00
1.00085548e+00
1.00085607e+00
1.00085525e+00
1.00085299e+00
1.00084925e+00
1.00084402e+00
1.00083728e+00
1.00082902e+00
1.00081924e+00
1.00080795e+00
1.00079516e+00
1.00078091e+00
1.00076522e+00
1.00074815e+00
1.00072972e+00
1.00071002e+00
1.00068909e+00
1.00066701e+00
1.00064385e+00
1.00061969e+00
1.00059463e+00
1.00056875e+00
1.00054216e+00
1.00051496e+00
1.00048724e+00
1.00045914e+00
1.00043076e+00
1.00040223e+00
1.00037366e+00
1.00034520e+00
1.00031696e+00
1.00028909e+00
1.00026171e+00
1.00023497e+00
1.00020899e+00
1.00018390e+00
1.00015983e+00
1.00013690e+00
1.00011522e+00
1.00009490e+00
1.00007602e+00
1.00005867e+00
1.00004291e+00
1.00002879e+00
1.00001636e+00
1.00000561e+00
9.99996571e-01
9.99989209e-01
9.99983497e-01
9.99979385e-01
9.99976809e-01
9.99975693e-01
9.99975945e-01
9.99977465e-01
9.99980143e-01
9.99983863e-01
9.99988505e-01
9.99993948e-01
1.00000007e+00
1.00000675e+00
1.00001386e+00
1.00002131e+00
1.00002899e+00
1.00003680e+00
1.00004465e+00
1.00005247e+00
1.00006019e+00
1.00006776e+00
1.00007512e+00
1.00008224e+00
1.00008909e+00
1.00009565e+00
1.00010190e+00
1.00010784e+00
1.00011346e+00
1.00011878e+00
1.00012379e+00
1.00012852e+00
1.00013297e+00
1.00013713e+00
1.00014108e+00
1.00014485e+00
1.00014832e+00
1.00015153e+00
1.00015476e+00
1.00015778e+00
1.00016046e+00
1.00016318e+00
1.00016578e+00
1.00016800e+00
1.00043879e+00
1.00044178e+00
1.00044611e+00
1.00045156e+00
1.00045823e+00
1.00046611e+00
1.00047494e+00
1.00048479e+00
1.00049567e+00
1.00050735e+00
1.00051978e+00
1.00053294e+00
1.00054669e+00
1.00056094e+00
1.00057562e+00
1.00059064e+00
1.00060590e+00
1.00062132e+00
1.00063682e+00
1.00065231e+00
1.00066773e+00
1.00068299e+00
1.00069801e+00
1.00071273e+00
1.00072708e+00
1.00074098e+00
1.00075437e+00
1.00076718e+00
1.00077934e+00
1.00079078e+00
1.00080144e+00
1.00081125e+00
1.00082014e+00
1.00082805e+00
1.00083492e+00
1.00084066e+00
1.00084524e+00
1.00084859e+00
1.00085065e+00
1.00085137e+00
1.00085072e+00
1.00084864e+00
1.00084511e+00
1.00084010e+00
1.00083360e+00
1.00082559e+00
1.00081607e+00
1.00080505e+00
1.00079255e+00
1.00077859e+00
1.00076320e+00
1.00074642e+00
1.00072831e+00
1.00070891e+00
1.00068829e+00
1.00066652e+00
1.00064368e+00
1.00061984e+00
1.00059510e+00
1.00056955e+00
1.00054328e+00
1.00051640e+00
1.00048902e+00
1.00046124e+00
1.00043319e+00
1.00040498e+00
1.00037674e+00
1.00034859e+00
1.00032067e+00
1.00029310e+00
1.00026601e+00
1.00023954e+00
1.00021382e+00
1.00018897e+00
1.00016512e+00
1.00014238e+00
1.00012087e+00
1.00010068e+00
1.00008190e+00
1.00006462e+00
1.00004889e+00
1.00003477e+00
1.00002229e+00
1.00001147e+00
1.00000231e+00
9.99994803e-01
9.99988908e-01
9.99984582e-01
9.99981761e-01
9.99980372e-01
9.99980326e-01
9.99981524e-01
9.99983861e-01
9.99987224e-01
9.99991493e-01
9.99996552e-01
1.00000228e+00
1.00000856e+00
1.00001527e+00
1.00002231e+00
1.00002958e+00
1.00003699e+00
1.00004444e+00
1.00005186e+00
1.00005919e+00
1.00006637e+00
1.00007336e+00
1.00008011e+00
1.00008661e+00
1.00009282e+00
1.00009874e+00
1.00010435e+00
1.00010967e+00
1.00011469e+00
1.00011942e+00
1.00012387e+00
1.00012807e+00
1.00013202e+00
1.00013569e+00
1.00013917e+00
1.00014252e+00
1.00014557e+00
1.00014842e+00
1.00015127e+00
1.00015386e+00
1.00015626e+00
1.00015866e+00
1.00016070e+00
1.00045232e+00
1.00045494e+00
1.00045886e+00
1.00046394e+00
1.00047015e+00
1.00047735e+00
1.00048556e+00
1.00049480e+00
1.00050489e+00
1.00051577e+00
1.00052742e+00
1.00053974e+00
1.00055263e+00
1.00056602e+00
1.00057984e+00
1.00059400e+00
1.00060842e+00
1.00062302e+00
1.00063773e+00
1.00065247e+00
1.00066717e+00
1.00068175e+00
1.00069615e+00
1.00071030e+00
1.00072412e+00
1.00073756e+00
1.00075053e+00
1.00076298e+00
1.00077483e+00
1.00078602e+00
1.00079647e+00
1.00080613e+00
1.00081491e+00
1.00082276e+00
1.00082960e+00
1.00083537e+00
1.00084000e+00
1.00084343e+00
1.00084561e+00
1.00084649e+00
1.00084600e+00
1.00084412e+00
1.00084081e+00
1.00083604e+00
1.00082979e+00
1.00082204e+00
1.00081280e+00
1.00080207e+00
1.00078986e+00
1.00077620e+00
1.00076112e+00
1.00074465e+00
1.00072685e+00
1.00070778e+00
1.00068748e+00
1.00066604e+00
1.00064353e+00
1.00062002e+00
1.00059562e+00
1.00057041e+00
1.00054448e+00
1.00051794e+00
1.00049091e+00
1.00046348e+00
1.00043577e+00
1.00040791e+00
1.00038001e+00
1.00035221e+00
1.00032462e+00
1.00029737e+00
1.00027060e+00
1.00024443e+00
1.00021899e+00
1.00019440e+00
1.00017078e+00
1.00014825e+00
1.00012692e+00
1.00010687e+00
1.00008821e+00
1.00007100e+00
1.00005531e+00
1.00004118e+00
1.00002866e+00
1.00001776e+00
1.00000848e+00
1.00000080e+00
9.99994710e-01
9.99990150e-01
9.99987063e-01
9.99985376e-01
9.99985005e-01
9.99985855e-01
9.99987821e-01
9.99990794e-01
9.99994659e-01
9.99999300e-01
1.00000460e+00
1.00001044e+00
1.00001672e+00
1.00002332e+00
1.00003015e+00
1.00003712e+00
1.00004414e+00
1.00005113e+00
1.00005804e+00
1.00006481e+00
1.00007139e+00
1.00007775e+00
1.00008387e+00
1.00008971e+00
1.00009527e+00
1.00010054e+00
1.00010552e+00
1.00011023e+00
1.00011466e+00
1.00011881e+00
1.00012271e+00
1.00012640e+00
1.00012985e+00
1.00013306e+00
1.00013611e+00
1.00013902e+00
1.00014167e+00
1.00014417e+00
1.00014661e+00
1.00014891e+00
1.00015103e+00
1.00015280e+00
1.00046649e+00
1.00046884e+00
1.00047239e+00
1.00047704e+00
1.00048267e+00
1.00048928e+00
1.00049688e+00
1.00050536e+00
1.00051464e+00
1.00052473e+00
1.00053554e+00
1.00054695e+00
1.00055894e+00
1.00057143e+00
1.00058433e+00
1.00059759e+00
1.00061112e+00
1.00062486e+00
1.00063873e+00
1.00065268e+00
1.00066662e+00
1.00068049e+00
1.00069424e+00
1.00070778e+00
1.00072105e+00
1.00073399e+00
1.00074653e+00
1.00075860e+00
1.00077013e+00
1.00078105e+00
1.00079130e+00
1.00080079e+00
1.00080947e+00
1.00081725e+00
1.00082407e+00
1.00082987e+00
1.00083456e+00
1.00083809e+00
1.00084040e+00
1.00084144e+00
1.00084114e+00
1.00083947e+00
1.00083638e+00
1.00083186e+00
1.00082587e+00
1.00081840e+00
1.00080944e+00
1.00079901e+00
1.00078710e+00
1.00077376e+00
1.00075899e+00
1.00074285e+00
1.00072537e+00
1.00070663e+00
1.00068667e+00
1.00066556e+00
1.00064339e+00
1.00062023e+00
1.00059617e+00
1.00057131e+00
1.00054574e+00
1.00051957e+00
1.00049289e+00
1.00046583e+00
1.00043849e+00
1.00041099e+00
1.00038346e+00
1.00035601e+00
1.00032878e+00
1.00030188e+00
1.00027544e+00
1.00024959e+00
1.00022445e+00
1.00020014e+00
1.00017678e+00
1.00015448e+00
1.00013333e+00
1.00011345e+00
1.00009490e+00
1.00007778e+00
1.00006212e+00
1.00004800e+00
1.00003543e+00
1.00002444e+00
1.00001503e+00
1.00000718e+00
1.00000087e+00
9.99996062e-01
9.99992689e-01
9.99990683e-01
9.99989964e-01
9.99990438e-01
9.99992006e-01
9.99994561e-01
9.99997991e-01
1.00000218e+00
1.00000703e+00
1.00001241e+00
1.00001821e+00
1.00002434e+00
1.00003070e+00
1.00003720e+00
1.00004375e+00
1.00005029e+00
1.00005675e+00
1.00006308e+00
1.00006923e+00
1.00007517e+00
1.00008087e+00
1.00008631e+00
1.00009149e+00
1.00009639e+00
1.00010102e+00
1.00010537e+00
1.00010947e+00
1.00011332e+00
1.00011692e+00
1.00012029e+00
1.00012348e+00
1.00012647e+00
1.00012922e+00
1.00013185e+00
1.00013434e+00
1.00013662e+00
1.00013879e+00
1.00014090e+00
1.00014282e+00
1.00014445e+00
1.00048128e+00
1.00048336e+00
1.00048655e+00
1.00049072e+00
1.00049582e+00
1.00050183e+00
1.00050873e+00
1.00051643e+00
1.00052493e+00
1.00053417e+00
1.00054406e+00
1.00055455e+00
1.00056561e+00
1.00057714e+00
1.00058908e+00
1.00060139e+00
1.00061399e+00
1.00062683e+00
1.00063983e+00
1.00065294e+00
1.00066609e+00
1.00067922e+00
1.00069228e+00
1.00070519e+00
1.00071789e+00
1.00073031e+00
1.00074240e+00
1.00075407e+00
1.00076527e+00
1.00077592e+00
1.00078595e+00
1.00079528e+00
1.00080385e+00
1.00081157e+00
1.00081838e+00
1.00082420e+00
1.00082896e+00
1.00083260e+00
1.00083505e+00
1.00083624e+00
1.00083614e+00
1.00083469e+00
1.00083184e+00
1.00082757e+00
1.00082186e+00
1.00081467e+00
1.00080601e+00
1.00079589e+00
1.00078430e+00
1.00077127e+00
1.00075683e+00
1.00074101e+00
1.00072388e+00
1.00070547e+00
1.00068585e+00
1.00066509e+00
1.00064326e+00
1.00062046e+00
1.00059676e+00
1.00057226e+00
1.00054706e+00
1.00052125e+00
1.00049496e+00
1.00046827e+00
1.00044132e+00
1.00041420e+00
1.00038705e+00
1.00035999e+00
1.00033313e+00
1.00030659e+00
1.00028051e+00
1.00025500e+00
1.00023018e+00
1.00020617e+00
1.00018308e+00
1.00016101e+00
1.00014008e+00
1.00012036e+00
1.00010195e+00
1.00008491e+00
1.00006930e+00
1.00005517e+00
1.00004256e+00
1.00003148e+00
1.00002193e+00
1.00001390e+00
1.00000737e+00
1.00000229e+00
9.99998614e-01
9.99996271e-01
9.99995181e-01
9.99995258e-01
9.99996403e-01
9.99998513e-01
1.00000148e+00
1.00000520e+00
1.00000955e+00
1.00001444e+00
1.00001975e+00
1.00002538e+00
1.00003124e+00
1.00003723e+00
1.00004329e+00
1.00004934e+00
1.00005532e+00
1.00006118e+00
1.00006687e+00
1.00007236e+00
1.00007762e+00
1.00008264e+00
1.00008740e+00
1.00009190e+00
1.00009615e+00
1.00010014e+00
1.00010388e+00
1.00010738e+00
1.00011067e+00
1.00011374e+00
1.00011661e+00
1.00011932e+00
1.00012184e+00
1.00012418e+00
1.00012641e+00
1.00012850e+00
1.00013045e+00
1.00013232e+00
1.00013408e+00
1.00013557e+00
1.00049664e+00
1.00049845e+00
1.00050126e+00
1.00050497e+00
1.00050952e+00
1.00051490e+00
1.00052107e+00
1.00052801e+00
1.00053568e+00
1.00054401e+00
1.00055297e+00
1.00056252e+00
1.00057258e+00
1.00058312e+00
1.00059408e+00
1.00060540e+00
1.00061704e+00
1.00062893e+00
1.00064102e+00
1.00065326e+00
1.00066559e+00
1.00067796e+00
1.00069029e+00
1.00070255e+00
1.00071465e+00
1.00072655e+00
1.00073816e+00
1.00074943e+00
1.00076029e+00
1.00077065e+00
1.00078046e+00
1.00078963e+00
1.00079808e+00
1.00080574e+00
1.00081254e+00
1.00081839e+00
1.00082323e+00
1.00082698e+00
1.00082957e+00
1.00083094e+00
1.00083104e+00
1.00082981e+00
1.00082722e+00
1.00082321e+00
1.00081778e+00
1.00081089e+00
1.00080253e+00
1.00079272e+00
1.00078145e+00
1.00076875e+00
1.00075464e+00
1.00073916e+00
1.00072236e+00
1.00070430e+00
1.00068503e+00
1.00066462e+00
1.00064315e+00
1.00062071e+00
1.00059738e+00
1.00057325e+00
1.00054842e+00
1.00052300e+00
1.00049709e+00
1.00047080e+00
1.00044424e+00
1.00041753e+00
1.00039077e+00
1.00036410e+00
1.00033763e+00
1.00031148e+00
1.00028577e+00
1.00026062e+00
1.00023613e+00
1.00021244e+00
1.00018963e+00
1.00016782e+00
1.00014711e+00
1.00012757e+00
1.00010930e+00
1.00009235e+00
1.00007680e+00
1.00006267e+00
1.00005001e+00
1.00003883e+00
1.00002914e+00
1.00002092e+00
1.00001416e+00
1.00000880e+00
1.00000481e+00
1.00000211e+00
1.00000063e+00
1.00000029e+00
1.00000099e+00
1.00000264e+00
1.00000512e+00
1.00000833e+00
1.00001218e+00
1.00001654e+00
1.00002132e+00
1.00002642e+00
1.00003175e+00
1.00003722e+00
1.00004275e+00
1.00004829e+00
1.00005375e+00
1.00005911e+00
1.00006431e+00
1.00006932e+00
1.00007412e+00
1.00007868e+00
1.00008301e+00
1.00008708e+00
1.00009092e+00
1.00009451e+00
1.00009788e+00
1.00010102e+00
1.00010395e+00
1.00010670e+00
1.00010925e+00
1.00011164e+00
1.00011389e+00
1.00011598e+00
1.00011793e+00
1.00011978e+00
1.00012153e+00
1.00012319e+00
1.00012475e+00
1.00012608e+00
1.00051249e+00
1.00051402e+00
1.00051646e+00
1.00051970e+00
1.00052369e+00
1.00052842e+00
1.00053386e+00
1.00054001e+00
1.00054681e+00
1.00055423e+00
1.00056224e+00
1.00057079e+00
1.00057984e+00
1.00058936e+00
1.00059929e+00
1.00060960e+00
1.00062023e+00
1.00063115e+00
1.00064231e+00
1.00065365e+00
1.00066514e+00
1.00067670e+00
1.00068830e+00
1.00069988e+00
1.00071137e+00
1.00072272e+00
1.00073385e+00
1.00074470e+00
1.00075521e+00
1.00076529e+00
1.00077486e+00
1.00078386e+00
1.00079220e+00
1.00079981e+00
1.00080659e+00
1.00081248e+00
1.00081739e+00
1.00082126e+00
1.00082400e+00
1.00082556e+00
1.00082587e+00
1.00082487e+00
1.00082253e+00
1.00081880e+00
1.00081365e+00
1.00080706e+00
1.00079902e+00
1.00078952e+00
1.00077858e+00
1.00076621e+00
1.00075244e+00
1.00073730e+00
1.00072085e+00
1.00070313e+00
1.00068421e+00
1.00066416e+00
1.00064305e+00
1.00062098e+00
1.00059802e+00
1.00057427e+00
1.00054982e+00
1.00052479e+00
1.00049928e+00
1.00047339e+00
1.00044724e+00
1.00042094e+00
1.00039460e+00
1.00036834e+00
1.00034227e+00
1.00031652e+00
1.00029119e+00
1.00026641e+00
1.00024228e+00
1.00021890e+00
1.00019640e+00
1.00017486e+00
1.00015437e+00
1.00013503e+00
1.00011690e+00
1.00010006e+00
1.00008456e+00
1.00007044e+00
1.00005773e+00
1.00004646e+00
1.00003662e+00
1.00002821e+00
1.00002120e+00
1.00001556e+00
1.00001124e+00
1.00000818e+00
1.00000630e+00
1.00000552e+00
1.00000576e+00
1.00000691e+00
1.00000889e+00
1.00001158e+00
1.00001488e+00
1.00001870e+00
1.00002293e+00
1.00002747e+00
1.00003224e+00
1.00003716e+00
1.00004214e+00
1.00004713e+00
1.00005206e+00
1.00005689e+00
1.00006157e+00
1.00006607e+00
1.00007037e+00
1.00007446e+00
1.00007831e+00
1.00008194e+00
1.00008533e+00
1.00008851e+00
1.00009147e+00
1.00009422e+00
1.00009678e+00
1.00009917e+00
1.00010139e+00
1.00010346e+00
1.00010540e+00
1.00010721e+00
1.00010891e+00
1.00011050e+00
1.00011202e+00
1.00011348e+00
1.00011485e+00
1.00011602e+00
1.00052874e+00
1.00053001e+00
1.00053207e+00
1.00053484e+00
1.00053826e+00
1.00054234e+00
1.00054705e+00
1.00055237e+00
1.00055829e+00
1.00056478e+00
1.00057181e+00
1.00057934e+00
1.00058736e+00
1.00059583e+00
1.00060471e+00
1.00061397e+00
1.00062358e+00
1.00063350e+00
1.00064369e+00
1.00065412e+00
1.00066473e+00
1.00067548e+00
1.00068632e+00
1.00069721e+00
1.00070807e+00
1.00071885e+00
1.00072949e+00
1.00073992e+00
1.00075006e+00
1.00075984e+00
1.00076919e+00
1.00077802e+00
1.00078624e+00
1.00079379e+00
1.00080057e+00
1.00080649e+00
1.00081149e+00
1.00081547e+00
1.00081837e+00
1.00082012e+00
1.00082064e+00
1.00081989e+00
1.00081781e+00
1.00081436e+00
1.00080950e+00
1.00080322e+00
1.00079549e+00
1.00078632e+00
1.00077570e+00
1.00076367e+00
1.00075024e+00
1.00073544e+00
1.00071934e+00
1.00070197e+00
1.00068340e+00
1.00066371e+00
1.00064297e+00
1.00062126e+00
1.00059868e+00
1.00057531e+00
1.00055126e+00
1.00052662e+00
1.00050151e+00
1.00047604e+00
1.00045030e+00
1.00042441e+00
1.00039849e+00
1.00037265e+00
1.00034701e+00
1.00032166e+00
1.00029673e+00
1.00027233e+00
1.00024856e+00
1.00022553e+00
1.00020334e+00
1.00018208e+00
1.00016183e+00
1.00014269e+00
1.00012472e+00
1.00010799e+00
1.00009255e+00
1.00007844e+00
1.00006569e+00
1.00005432e+00
1.00004433e+00
1.00003573e+00
1.00002847e+00
1.00002254e+00
1.00001788e+00
1.00001443e+00
1.00001214e+00
1.00001091e+00
1.00001067e+00
1.00001132e+00
1.00001277e+00
1.00001492e+00
1.00001766e+00
1.00002091e+00
1.00002456e+00
1.00002853e+00
1.00003272e+00
1.00003705e+00
1.00004146e+00
1.00004587e+00
1.00005024e+00
1.00005451e+00
1.00005864e+00
1.00006260e+00
1.00006638e+00
1.00006995e+00
1.00007331e+00
1.00007646e+00
1.00007939e+00
1.00008211e+00
1.00008464e+00
1.00008698e+00
1.00008914e+00
1.00009115e+00
1.00009301e+00
1.00009475e+00
1.00009636e+00
1.00009788e+00
1.00009930e+00
1.00010064e+00
1.00010192e+00
1.00010316e+00
1.00010434e+00
1.00010537e+00
1.00054533e+00
1.00054633e+00
1.00054802e+00
1.00055032e+00
1.00055318e+00
1.00055659e+00
1.00056054e+00
1.00056504e+00
1.00057007e+00
1.00057561e+00
1.00058164e+00
1.00058814e+00
1.00059510e+00
1.00060250e+00
1.00061030e+00
1.00061850e+00
1.00062707e+00
1.00063597e+00
1.00064518e+00
1.00065466e+00
1.00066438e+00
1.00067430e+00
1.00068437e+00
1.00069454e+00
1.00070476e+00
1.00071497e+00
1.00072511e+00
1.00073510e+00
1.00074487e+00
1.00075436e+00
1.00076347e+00
1.00077212e+00
1.00078024e+00
1.00078772e+00
1.00079450e+00
1.00080046e+00
1.00080555e+00
1.00080966e+00
1.00081272e+00
1.00081466e+00
1.00081540e+00
1.00081489e+00
1.00081308e+00
1.00080991e+00
1.00080535e+00
1.00079937e+00
1.00079196e+00
1.00078312e+00
1.00077284e+00
1.00076114e+00
1.00074805e+00
1.00073360e+00
1.00071784e+00
1.00070082e+00
1.00068261e+00
1.00066328e+00
1.00064290e+00
1.00062156e+00
1.00059936e+00
1.00057637e+00
1.00055271e+00
1.00052848e+00
1.00050378e+00
1.00047872e+00
1.00045340e+00