# vtk DataFile Version 2.0
LBM Flow Field - Timestep 2420
ASCII
DATASET STRUCTURED_POINTS
DIMENSIONS 128 128 1
ORIGIN 0.0 0.0 0.0
SPACING 1.0 1.0 1.0
POINT_DATA 16384
SCALARS density double 1
LOOKUP_TABLE default
9.98006436e-01
9.97996750e-01
9.97987189e-01
9.97991723e-01
9.97998430e-01
9.98005471e-01
9.98015826e-01
9.98029654e-01
9.98045614e-01
9.98064059e-01
9.98085433e-01
9.98109608e-01
9.98136454e-01
9.98166092e-01
9.98198546e-01
9.98233755e-01
9.98271676e-01
9.98312278e-01
9.98355485e-01
9.98401201e-01
9.98449315e-01
9.98499703e-01
9.98552213e-01
9.98606680e-01
9.98662924e-01
9.98720746e-01
9.98779939e-01
9.98840283e-01
9.98901549e-01
9.98963504e-01
9.99025910e-01
9.99088528e-01
9.99151121e-01
9.99213452e-01
9.99275294e-01
9.99336423e-01
9.99396625e-01
9.99455696e-01
9.99513446e-01
9.99569694e-01
9.99624274e-01
9.99677035e-01
9.99727843e-01
9.99776576e-01
9.99823133e-01
9.99867427e-01
9.99909393e-01
9.99948981e-01
9.99986162e-01
1.00002093e+00
1.00005329e+00
1.00008328e+00
1.00011095e+00
1.00013638e+00
1.00015966e+00
1.00018092e+00
1.00020030e+00
1.00021795e+00
1.00023406e+00
1.00024884e+00
1.00026250e+00
1.00027528e+00
1.00028742e+00
1.00029919e+00
1.00031087e+00
1.00032272e+00
1.00033503e+00
1.00034807e+00
1.00036214e+00
1.00037749e+00
1.00039440e+00
1.00041310e+00
1.00043382e+00
1.00045680e+00
1.00048220e+00
1.00051021e+00
1.00054096e+00
1.00057457e+00
1.00061113e+00
1.00065068e+00
1.00069326e+00
1.00073886e+00
1.00078745e+00
1.00083898e+00
1.00089336e+00
1.00095048e+00
1.00101020e+00
1.00107238e+00
1.00113685e+00
1.00120341e+00
1.00127186e+00
1.00134200e+00
1.00141360e+00
1.00148642e+00
1.00156024e+00
1.00163482e+00
1.00170990e+00
1.00178526e+00
1.00186065e+00
1.00193583e+00
1.00201056e+00
1.00208461e+00
1.00215774e+00
1.00222974e+00
1.00230039e+00
1.00236947e+00
1.00243678e+00
1.00250212e+00
1.00256530e+00
1.00262614e+00
1.00268448e+00
1.00274015e+00
1.00279300e+00
1.00284290e+00
1.00288973e+00
1.00293332e+00
1.00297360e+00
1.00301059e+00
1.00304406e+00
1.00307377e+00
1.00310009e+00
1.00312328e+00
1.00314193e+00
1.00315610e+00
1.00316864e+00
1.00317756e+00
1.00317197e+00
1.00316500e+00
9.97998009e-01
9.97995690e-01
9.97990738e-01
9.97994182e-01
9.97999783e-01
9.98007782e-01
9.98018298e-01
9.98031863e-01
9.98047901e-01
9.98066607e-01
9.98088009e-01
9.98112197e-01
9.98139117e-01
9.98168812e-01
9.98201267e-01
9.98236474e-01
9.98274385e-01
9.98314954e-01
9.98358104e-01
9.98403748e-01
9.98451773e-01
9.98502051e-01
9.98554434e-01
9.98608757e-01
9.98664838e-01
9.98722484e-01
9.98781485e-01
9.98841624e-01
9.98902675e-01
9.98964405e-01
9.99026578e-01
9.99088959e-01
9.99151311e-01
9.99213401e-01
9.99275004e-01
9.99335897e-01
9.99395870e-01
9.99454722e-01
9.99512263e-01
9.99568315e-01
9.99622716e-01
9.99675316e-01
9.99725981e-01
9.99774594e-01
9.99821054e-01
9.99865276e-01
9.99907197e-01
9.99946767e-01
9.99983959e-01
1.00001876e+00
1.00005120e+00
1.00008129e+00
1.00010909e+00
1.00013468e+00
1.00015815e+00
1.00017962e+00
1.00019924e+00
1.00021716e+00
1.00023356e+00
1.00024865e+00
1.00026263e+00
1.00027574e+00
1.00028823e+00
1.00030036e+00
1.00031239e+00
1.00032460e+00
1.00033725e+00
1.00035064e+00
1.00036503e+00
1.00038069e+00
1.00039788e+00
1.00041684e+00
1.00043780e+00
1.00046097e+00
1.00048654e+00
1.00051468e+00
1.00054552e+00
1.00057918e+00
1.00061574e+00
1.00065526e+00
1.00069776e+00
1.00074324e+00
1.00079168e+00
1.00084302e+00
1.00089716e+00
1.00095402e+00
1.00101345e+00
1.00107531e+00
1.00113943e+00
1.00120563e+00
1.00127370e+00
1.00134345e+00
1.00141464e+00
1.00148706e+00
1.00156047e+00
1.00163464e+00
1.00170933e+00
1.00178430e+00
1.00185931e+00
1.00193412e+00
1.00200851e+00
1.00208223e+00
1.00215505e+00
1.00222677e+00
1.00229715e+00
1.00236600e+00
1.00243309e+00
1.00249824e+00
1.00256127e+00
1.00262198e+00
1.00268020e+00
1.00273579e+00
1.00278858e+00
1.00283845e+00
1.00288525e+00
1.00292887e+00
1.00296921e+00
1.00300621e+00
1.00303970e+00
1.00306967e+00
1.00309607e+00
1.00311899e+00
1.00313780e+00
1.00315289e+00
1.00316440e+00
1.00317236e+00
1.00317119e+00
1.00317099e+00
9.97988847e-01
9.97990808e-01
9.97995668e-01
9.97996325e-01
9.98000140e-01
9.98009534e-01
9.98020753e-01
9.98033777e-01
9.98049838e-01
9.98068837e-01
9.98090303e-01
9.98114451e-01
9.98141434e-01
9.98171177e-01
9.98203629e-01
9.98238820e-01
9.98276717e-01
9.98317248e-01
9.98360342e-01
9.98405916e-01
9.98453855e-01
9.98504030e-01
9.98556292e-01
9.98610480e-01
9.98666411e-01
9.98723890e-01
9.98782712e-01
9.98842659e-01
9.98903506e-01
9.98965023e-01
9.99026976e-01
9.99089129e-01
9.99151250e-01
9.99213108e-01
9.99274478e-01
9.99335142e-01
9.99394892e-01
9.99453529e-01
9.99510865e-01
9.99566727e-01
9.99620953e-01
9.99673397e-01
9.99723927e-01
9.99772428e-01
9.99818802e-01
9.99862966e-01
9.99904856e-01
9.99944427e-01
9.99981652e-01
1.00001652e+00
1.00004905e+00
1.00007928e+00
1.00010724e+00
1.00013303e+00
1.00015673e+00
1.00017847e+00
1.00019838e+00
1.00021662e+00
1.00023336e+00
1.00024881e+00
1.00026317e+00
1.00027668e+00
1.00028958e+00
1.00030212e+00
1.00031457e+00
1.00032719e+00
1.00034025e+00
1.00035404e+00
1.00036881e+00
1.00038483e+00
1.00040235e+00
1.00042161e+00
1.00044285e+00
1.00046625e+00
1.00049202e+00
1.00052031e+00
1.00055126e+00
1.00058498e+00
1.00062156e+00
1.00066104e+00
1.00070346e+00
1.00074882e+00
1.00079708e+00
1.00084820e+00
1.00090208e+00
1.00095864e+00
1.00101773e+00
1.00107922e+00
1.00114294e+00
1.00120871e+00
1.00127634e+00
1.00134562e+00
1.00141634e+00
1.00148828e+00
1.00156121e+00
1.00163490e+00
1.00170911e+00
1.00178362e+00
1.00185818e+00
1.00193256e+00
1.00200653e+00
1.00207986e+00
1.00215233e+00
1.00222371e+00
1.00229378e+00
1.00236235e+00
1.00242920e+00
1.00249414e+00
1.00255698e+00
1.00261754e+00
1.00267564e+00
1.00273114e+00
1.00278388e+00
1.00283370e+00
1.00288048e+00
1.00292415e+00
1.00296456e+00
1.00300152e+00
1.00303509e+00
1.00306539e+00
1.00309183e+00
1.00311424e+00
1.00313375e+00
1.00315023e+00
1.00316002e+00
1.00316544e+00
1.00317337e+00
1.00317719e+00
9.97991296e-01
9.97991440e-01
9.97993829e-01
9.97996558e-01
9.98002847e-01
9.98011314e-01
9.98022047e-01
9.98035648e-01
9.98051969e-01
9.98070790e-01
9.98092297e-01
9.98116572e-01
9.98143569e-01
9.98173284e-01
9.98205746e-01
9.98240929e-01
9.98278784e-01
9.98319263e-01
9.98362297e-01
9.98407792e-01
9.98455635e-01
9.98505700e-01
9.98557838e-01
9.98611886e-01
9.98667664e-01
9.98724978e-01
9.98783621e-01
9.98843379e-01
9.98904027e-01
9.98965336e-01
9.99027074e-01
9.99089008e-01
9.99150907e-01
9.99212542e-01
9.99273690e-01
9.99334137e-01
9.99393675e-01
9.99452109e-01
9.99509254e-01
9.99564938e-01
9.99619003e-01
9.99671305e-01
9.99721714e-01
9.99770118e-01
9.99816421e-01
9.99860542e-01
9.99902420e-01
9.99942010e-01
9.99979287e-01
1.00001425e+00
1.00004690e+00
1.00007728e+00
1.00010544e+00
1.00013146e+00
1.00015542e+00
1.00017746e+00
1.00019769e+00
1.00021629e+00
1.00023342e+00
1.00024928e+00
1.00026407e+00
1.00027803e+00
1.00029138e+00
1.00030439e+00
1.00031730e+00
1.00033039e+00
1.00034392e+00
1.00035815e+00
1.00037335e+00
1.00038978e+00
1.00040768e+00
1.00042730e+00
1.00044885e+00
1.00047253e+00
1.00049853e+00
1.00052700e+00
1.00055808e+00
1.00059189e+00
1.00062849e+00
1.00066795e+00
1.00071029e+00
1.00075551e+00
1.00080359e+00
1.00085446e+00
1.00090806e+00
1.00096428e+00
1.00102300e+00
1.00108408e+00
1.00114735e+00
1.00121264e+00
1.00127977e+00
1.00134854e+00
1.00141872e+00
1.00149012e+00
1.00156251e+00
1.00163565e+00
1.00170933e+00
1.00178330e+00
1.00185735e+00
1.00193123e+00
1.00200473e+00
1.00207761e+00
1.00214966e+00
1.00222065e+00
1.00229037e+00
1.00235861e+00
1.00242517e+00
1.00248985e+00
1.00255247e+00
1.00261285e+00
1.00267081e+00
1.00272619e+00
1.00277884e+00
1.00282862e+00
1.00287540e+00
1.00291904e+00
1.00295947e+00
1.00299658e+00
1.00303021e+00
1.00306036e+00
1.00308709e+00
1.00311011e+00
1.00312919e+00
1.00314479e+00
1.00315693e+00
1.00316442e+00
1.00317017e+00
1.00317225e+00
9.97993297e-01
9.97992512e-01
9.97992943e-01
9.97998008e-01
9.98004887e-01
9.98012503e-01
9.98023539e-01
9.98037645e-01
9.98053884e-01
9.98072620e-01
9.98094259e-01
9.98118602e-01
9.98145569e-01
9.98175277e-01
9.98207741e-01
9.98242892e-01
9.98280696e-01
9.98321117e-01
9.98364078e-01
9.98409480e-01
9.98457218e-01
9.98507163e-01
9.98559167e-01
9.98613066e-01
9.98668682e-01
9.98725820e-01
9.98784277e-01
9.98843838e-01
9.98904279e-01
9.98965374e-01
9.99026892e-01
9.99088601e-01
9.99150273e-01
9.99211680e-01
9.99272603e-01
9.99332829e-01
9.99392154e-01
9.99450384e-01
9.99507337e-01
9.99562844e-01
9.99616749e-01
9.99668911e-01
9.99719204e-01
9.99767518e-01
9.99813757e-01
9.99857846e-01
9.99899724e-01
9.99939349e-01
9.99976697e-01
1.00001176e+00
1.00004456e+00
1.00007513e+00
1.00010351e+00
1.00012980e+00
1.00015407e+00
1.00017644e+00
1.00019705e+00
1.00021606e+00
1.00023363e+00
1.00024995e+00
1.00026523e+00
1.00027970e+00
1.00029358e+00
1.00030712e+00
1.00032057e+00
1.00033420e+00
1.00034826e+00
1.00036300e+00
1.00037871e+00
1.00039561e+00
1.00041396e+00
1.00043398e+00
1.00045590e+00
1.00047991e+00
1.00050618e+00
1.00053487e+00
1.00056612e+00
1.00060002e+00
1.00063667e+00
1.00067611e+00
1.00071837e+00
1.00076345e+00
1.00081132e+00
1.00086194e+00
1.00091522e+00
1.00097107e+00
1.00102937e+00
1.00108999e+00
1.00115276e+00
1.00121752e+00
1.00128408e+00
1.00135226e+00
1.00142184e+00
1.00149262e+00
1.00156438e+00
1.00163691e+00
1.00170997e+00
1.00178334e+00
1.00185680e+00
1.00193011e+00
1.00200307e+00
1.00207543e+00
1.00214699e+00
1.00221753e+00
1.00228683e+00
1.00235470e+00
1.00242092e+00
1.00248531e+00
1.00254767e+00
1.00260782e+00
1.00266560e+00
1.00272084e+00
1.00277338e+00
1.00282309e+00
1.00286985e+00
1.00291347e+00
1.00295388e+00
1.00299108e+00
1.00302488e+00
1.00305497e+00
1.00308167e+00
1.00310522e+00
1.00312461e+00
1.00313945e+00
1.00315226e+00
1.00316195e+00
1.00316578e+00
1.00316704e+00
9.97993187e-01
9.97993352e-01
9.97995145e-01
9.97999319e-01
9.98005310e-01
9.98014182e-01
9.98025706e-01
9.98039292e-01
9.98055520e-01
9.98074590e-01
9.98096239e-01
9.98120480e-01
9.98147476e-01
9.98177214e-01
9.98209629e-01
9.98244723e-01
9.98282480e-01
9.98322831e-01
9.98365699e-01
9.98410999e-01
9.98458621e-01
9.98508434e-01
9.98560290e-01
9.98614029e-01
9.98669471e-01
9.98726424e-01
9.98784683e-01
9.98844036e-01
9.98904260e-01
9.98965130e-01
9.99026418e-01
9.99087893e-01
9.99149328e-01
9.99210499e-01
9.99271189e-01
9.99331187e-01
9.99390290e-01
9.99448310e-01
9.99505066e-01
9.99560392e-01
9.99614135e-01
9.99666158e-01
9.99716335e-01
9.99764562e-01
9.99810744e-01
9.99854809e-01
9.99896699e-01
9.99936373e-01
9.99973810e-01
1.00000901e+00
1.00004198e+00
1.00007276e+00
1.00010141e+00
1.00012799e+00
1.00015261e+00
1.00017537e+00
1.00019641e+00
1.00021588e+00
1.00023395e+00
1.00025080e+00
1.00026664e+00
1.00028169e+00
1.00029616e+00
1.00031031e+00
1.00032438e+00
1.00033861e+00
1.00035327e+00
1.00036861e+00
1.00038488e+00
1.00040233e+00
1.00042119e+00
1.00044168e+00
1.00046402e+00
1.00048840e+00
1.00051499e+00
1.00054394e+00
1.00057539e+00
1.00060942e+00
1.00064613e+00
1.00068556e+00
1.00072774e+00
1.00077267e+00
1.00082032e+00
1.00087066e+00
1.00092359e+00
1.00097903e+00
1.00103687e+00
1.00109697e+00
1.00115918e+00
1.00122334e+00
1.00128928e+00
1.00135679e+00
1.00142570e+00
1.00149579e+00
1.00156685e+00
1.00163868e+00
1.00171104e+00
1.00178373e+00
1.00185652e+00
1.00192920e+00
1.00200153e+00
1.00207331e+00
1.00214432e+00
1.00221434e+00
1.00228317e+00
1.00235060e+00
1.00241643e+00
1.00248047e+00
1.00254253e+00
1.00260243e+00
1.00265999e+00
1.00271506e+00
1.00276748e+00
1.00281708e+00
1.00286376e+00
1.00290741e+00
1.00294786e+00
1.00298497e+00
1.00301881e+00
1.00304928e+00
1.00307601e+00
1.00309910e+00
1.00311901e+00
1.00313512e+00
1.00314713e+00
1.00315598e+00
1.00316117e+00
1.00316335e+00
9.97994261e-01
9.97994469e-01
9.97996831e-01
9.98000477e-01
9.98006728e-01
9.98016080e-01
9.98027321e-01
9.98040908e-01
9.98057419e-01
9.98076499e-01
9.98098048e-01
9.98122323e-01
9.98149352e-01
9.98179038e-01
9.98211395e-01
9.98246445e-01
9.98284134e-01
9.98324392e-01
9.98367158e-01
9.98412344e-01
9.98459834e-01
9.98509500e-01
9.98561198e-01
9.98614764e-01
9.98670020e-01
9.98726774e-01
9.98784824e-01
9.98843957e-01
9.98903953e-01
9.98964588e-01
9.99025634e-01
9.99086865e-01
9.99148054e-01
9.99208980e-01
9.99269427e-01
9.99329188e-01
9.99388064e-01
9.99445867e-01
9.99502421e-01
9.99557562e-01
9.99611141e-01
9.99663023e-01
9.99713087e-01
9.99761229e-01
9.99807362e-01
9.99851412e-01
9.99893325e-01
9.99933064e-01
9.99970610e-01
1.00000596e+00
1.00003913e+00
1.00007016e+00
1.00009910e+00
1.00012603e+00
1.00015104e+00
1.00017423e+00
1.00019575e+00
1.00021574e+00
1.00023437e+00
1.00025182e+00
1.00026828e+00
1.00028397e+00
1.00029911e+00
1.00031394e+00
1.00032869e+00
1.00034361e+00
1.00035895e+00
1.00037495e+00
1.00039186e+00
1.00040992e+00
1.00042935e+00
1.00045037e+00
1.00047319e+00
1.00049800e+00
1.00052495e+00
1.00055419e+00
1.00058586e+00
1.00062005e+00
1.00065683e+00
1.00069626e+00
1.00073836e+00
1.00078313e+00
1.00083056e+00
1.00088058e+00
1.00093314e+00
1.00098814e+00
1.00104547e+00
1.00110500e+00
1.00116660e+00
1.00123010e+00
1.00129534e+00
1.00136213e+00
1.00143029e+00
1.00149961e+00
1.00156990e+00
1.00164095e+00
1.00171254e+00
1.00178447e+00
1.00185652e+00
1.00192847e+00
1.00200012e+00
1.00207124e+00
1.00214163e+00
1.00221107e+00
1.00227937e+00
1.00234631e+00
1.00241170e+00
1.00247535e+00
1.00253706e+00
1.00259667e+00
1.00265398e+00
1.00270884e+00
1.00276111e+00
1.00281061e+00
1.00285719e+00
1.00290078e+00
1.00294126e+00
1.00297844e+00
1.00301221e+00
1.00304274e+00
1.00306980e+00
1.00309294e+00
1.00311265e+00
1.00312927e+00
1.00314155e+00
1.00314993e+00
1.00315570e+00
1.00315794e+00
9.97996344e-01
9.97996065e-01
9.97997859e-01
9.98002038e-01
9.98008748e-01
9.98017553e-01
9.98028784e-01
9.98042835e-01
9.98059298e-01
9.98078186e-01
9.98099820e-01
9.98124164e-01
9.98151107e-01
9.98180721e-01
9.98213051e-01
9.98248035e-01
9.98285622e-01
9.98325779e-01
9.98368435e-01
9.98413489e-01
9.98460833e-01
9.98510341e-01
9.98561867e-01
9.98615247e-01
9.98670305e-01
9.98726849e-01
9.98784678e-01
9.98843581e-01
9.98903338e-01
9.98963728e-01
9.99024523e-01
9.99085500e-01
9.99146435e-01
9.99207107e-01
9.99267305e-01
9.99326823e-01
9.99385466e-01
9.99443048e-01
9.99499396e-01
9.99554350e-01
9.99607764e-01
9.99659506e-01
9.99709460e-01
9.99757524e-01
9.99803613e-01
9.99847658e-01
9.99889608e-01
9.99929428e-01
9.99967101e-01
1.00000263e+00
1.00003603e+00
1.00006733e+00
1.00009660e+00
1.00012391e+00
1.00014935e+00
1.00017303e+00
1.00019508e+00
1.00021564e+00
1.00023489e+00
1.00025299e+00
1.00027014e+00
1.00028654e+00
1.00030242e+00
1.00031799e+00
1.00033349e+00
1.00034917e+00
1.00036525e+00
1.00038198e+00
1.00039960e+00
1.00041832e+00
1.00043839e+00
1.00046000e+00
1.00048335e+00
1.00050862e+00
1.00053598e+00
1.00056556e+00
1.00059748e+00
1.00063184e+00
1.00066871e+00
1.00070815e+00
1.00075017e+00
1.00079478e+00
1.00084196e+00
1.00089165e+00
1.00094380e+00
1.00099832e+00
1.00105511e+00
1.00111403e+00
1.00117497e+00
1.00123775e+00
1.00130223e+00
1.00136824e+00
1.00143557e+00
1.00150406e+00
1.00157351e+00
1.00164371e+00
1.00171446e+00
1.00178556e+00
1.00185679e+00
1.00192796e+00
1.00199885e+00
1.00206925e+00
1.00213896e+00
1.00220776e+00
1.00227547e+00
1.00234186e+00
1.00240676e+00
1.00246997e+00
1.00253130e+00
1.00259057e+00
1.00264760e+00
1.00270223e+00
1.00275429e+00
1.00280366e+00
1.00285018e+00
1.00289368e+00
1.00293408e+00
1.00297135e+00
1.00300525e+00
1.00303563e+00
1.00306270e+00
1.00308636e+00
1.00310612e+00
1.00312225e+00
1.00313503e+00
1.00314399e+00
1.00314921e+00
1.00315098e+00
9.97998025e-01
9.97997722e-01
9.97999415e-01
9.98003751e-01
9.98010345e-01
9.98019113e-01
9.98030605e-01
9.98044600e-01
9.98060927e-01
9.98079914e-01
9.98101592e-01
9.98125833e-01
9.98152715e-01
9.98182310e-01
9.98214568e-01
9.98249446e-01
9.98286934e-01
9.98326983e-01
9.98369506e-01
9.98414413e-01
9.98461600e-01
9.98510938e-01
9.98562278e-01
9.98615459e-01
9.98670307e-01
9.98726631e-01
9.98784228e-01
9.98842890e-01
9.98902399e-01
9.98962533e-01
9.99023070e-01
9.99083784e-01
9.99144456e-01
9.99204868e-01
9.99264810e-01
9.99324080e-01
9.99382484e-01
9.99439841e-01
9.99495980e-01
9.99550746e-01
9.99603995e-01
9.99655599e-01
9.99705446e-01
9.99753436e-01
9.99799490e-01
9.99843541e-01
9.99885541e-01
9.99925458e-01
9.99963278e-01
9.99999003e-01
1.00003265e+00
1.00006427e+00
1.00009390e+00
1.00012163e+00
1.00014754e+00
1.00017175e+00
1.00019438e+00
1.00021557e+00
1.00023548e+00
1.00025429e+00
1.00027219e+00
1.00028937e+00
1.00030604e+00
1.00032242e+00
1.00033875e+00
1.00035524e+00
1.00037214e+00
1.00038966e+00
1.00040805e+00
1.00042751e+00
1.00044826e+00
1.00047051e+00
1.00049445e+00
1.00052023e+00
1.00054803e+00
1.00057797e+00
1.00061018e+00
1.00064473e+00
1.00068171e+00
1.00072116e+00
1.00076310e+00
1.00080754e+00
1.00085446e+00
1.00090381e+00
1.00095553e+00
1.00100954e+00
1.00106574e+00
1.00112401e+00
1.00118423e+00
1.00124626e+00
1.00130992e+00
1.00137508e+00
1.00144154e+00
1.00150913e+00
1.00157766e+00
1.00164695e+00
1.00171679e+00
1.00178699e+00
1.00185735e+00
1.00192766e+00
1.00199773e+00
1.00206735e+00
1.00213631e+00
1.00220442e+00
1.00227148e+00
1.00233729e+00
1.00240165e+00
1.00246437e+00
1.00252527e+00
1.00258416e+00
1.00264088e+00
1.00269525e+00
1.00274710e+00
1.00279628e+00
1.00284268e+00
1.00288614e+00
1.00292648e+00
1.00296367e+00
1.00299765e+00
1.00302818e+00
1.00305517e+00
1.00307884e+00
1.00309891e+00
1.00311507e+00
1.00312779e+00
1.00313694e+00
1.00314209e+00
1.00314386e+00
9.97999535e-01
9.97999352e-01
9.98001249e-01
9.98005357e-01
9.98011818e-01
9.98020875e-01
9.98032355e-01
9.98046146e-01
9.98062567e-01
9.98081626e-01
9.98103180e-01
9.98127348e-01
9.98154226e-01
9.98183749e-01
9.98215889e-01
9.98250671e-01
9.98288056e-01
9.98327970e-01
9.98370344e-01
9.98415097e-01
9.98462114e-01
9.98511265e-01
9.98562407e-01
9.98615380e-01
9.98670006e-01
9.98726097e-01
9.98783453e-01
9.98841864e-01
9.98901114e-01
9.98960985e-01
9.99021254e-01
9.99081698e-01
9.99142101e-01
9.99202246e-01
9.99261926e-01
9.99320941e-01
9.99379103e-01
9.99436231e-01
9.99492160e-01
9.99546736e-01
9.99599821e-01
9.99651290e-01
9.99701033e-01
9.99748957e-01
9.99794983e-01
9.99839051e-01
9.99881115e-01
9.99921145e-01
9.99959131e-01
9.99995078e-01
1.00002901e+00
1.00006096e+00
1.00009099e+00
1.00011917e+00
1.00014560e+00
1.00017037e+00
1.00019363e+00
1.00021549e+00
1.00023613e+00
1.00025571e+00
1.00027441e+00
1.00029242e+00
1.00030995e+00
1.00032722e+00
1.00034442e+00
1.00036180e+00
1.00037957e+00
1.00039795e+00
1.00041716e+00
1.00043741e+00
1.00045891e+00
1.00048185e+00
1.00050641e+00
1.00053276e+00
1.00056103e+00
1.00059137e+00
1.00062388e+00
1.00065865e+00
1.00069575e+00
1.00073522e+00
1.00077709e+00
1.00082136e+00
1.00086800e+00
1.00091699e+00
1.00096826e+00
1.00102173e+00
1.00107731e+00
1.00113490e+00
1.00119436e+00
1.00125557e+00
1.00131838e+00
1.00138263e+00
1.00144816e+00
1.00151479e+00
1.00158236e+00
1.00165067e+00
1.00171954e+00
1.00178878e+00
1.00185820e+00
1.00192761e+00
1.00199679e+00
1.00206557e+00
1.00213374e+00
1.00220110e+00
1.00226746e+00
1.00233262e+00
1.00239640e+00
1.00245859e+00
1.00251902e+00
1.00257751e+00
1.00263386e+00
1.00268793e+00
1.00273955e+00
1.00278854e+00
1.00283476e+00
1.00287811e+00
1.00291845e+00
1.00295558e+00
1.00298947e+00
1.00302013e+00
1.00304727e+00
1.00307079e+00
1.00309091e+00
1.00310742e+00
1.00312006e+00
1.00312902e+00
1.00313442e+00
1.00313634e+00
9.98001252e-01
9.98000975e-01
9.98002847e-01
9.98006940e-01
9.98013476e-01
9.98022509e-01
9.98033868e-01
9.98047726e-01
9.98064181e-01
9.98083114e-01
9.98104609e-01
9.98128777e-01
9.98155569e-01
9.98184970e-01
9.98217022e-01
9.98251701e-01
9.98288946e-01
9.98328711e-01
9.98370933e-01
9.98415516e-01
9.98462346e-01
9.98511300e-01
9.98562233e-01
9.98614985e-01
9.98669378e-01
9.98725226e-01
9.98782329e-01
9.98840480e-01
9.98899463e-01
9.98959061e-01
9.99019054e-01
9.99079221e-01
9.99139347e-01
9.99199218e-01
9.99258631e-01
9.99317388e-01
9.99375303e-01
9.99432200e-01
9.99487917e-01
9.99542303e-01
9.99595225e-01
9.99646561e-01
9.99696205e-01
9.99744069e-01
9.99790077e-01
9.99834173e-01
9.99876314e-01
9.99916474e-01
9.99954646e-01
9.99990836e-01
1.00002507e+00
1.00005739e+00
1.00008784e+00
1.00011652e+00
1.00014350e+00
1.00016889e+00
1.00019281e+00
1.00021540e+00
1.00023682e+00
1.00025721e+00
1.00027677e+00
1.00029568e+00
1.00031413e+00
1.00033233e+00
1.00035048e+00
1.00036880e+00
1.00038750e+00
1.00040679e+00
1.00042689e+00
1.00044799e+00
1.00047028e+00
1.00049396e+00
1.00051919e+00
1.00054613e+00
1.00057493e+00
1.00060569e+00
1.00063854e+00
1.00067354e+00
1.00071077e+00
1.00075028e+00
1.00079207e+00
1.00083616e+00
1.00088253e+00
1.00093113e+00
1.00098193e+00
1.00103484e+00
1.00108978e+00
1.00114664e+00
1.00120531e+00
1.00126567e+00
1.00132757e+00
1.00139087e+00
1.00145542e+00
1.00152104e+00
1.00158759e+00
1.00165487e+00
1.00172272e+00
1.00179094e+00
1.00185937e+00
1.00192780e+00
1.00199606e+00
1.00206394e+00
1.00213126e+00
1.00219782e+00
1.00226343e+00
1.00232791e+00
1.00239105e+00
1.00245267e+00
1.00251259e+00
1.00257062e+00
1.00262659e+00
1.00268032e+00
1.00273165e+00
1.00278043e+00
1.00282649e+00
1.00286968e+00
1.00290992e+00
1.00294706e+00
1.00298093e+00
1.00301149e+00
1.00303872e+00
1.00306238e+00
1.00308244e+00
1.00309898e+00
1.00311175e+00
1.00312074e+00
1.00312616e+00
1.00312801e+00
9.98002923e-01
9.98002550e-01
9.98004329e-01
9.98008499e-01
9.98015058e-01
9.98023958e-01
9.98035325e-01
9.98049236e-01
9.98065580e-01
9.98084435e-01
9.98105927e-01
9.98130013e-01
9.98156680e-01
9.98185993e-01
9.98217943e-01
9.98252480e-01
9.98289576e-01
9.98329190e-01
9.98371243e-01
9.98415637e-01
9.98462271e-01
9.98511017e-01
9.98561729e-01
9.98614247e-01
9.98668397e-01
9.98723991e-01
9.98780832e-01
9.98838713e-01
9.98897420e-01
9.98956737e-01
9.99016446e-01
9.99076329e-01
9.99136171e-01
9.99195764e-01
9.99254904e-01
9.99313398e-01
9.99371063e-01
9.99427727e-01
9.99483231e-01
9.99537428e-01
9.99590189e-01
9.99641395e-01
9.99690946e-01
9.99738757e-01
9.99784756e-01
9.99828891e-01
9.99871124e-01
9.99911431e-01
9.99949808e-01
9.99986265e-01
1.00002083e+00
1.00005354e+00
1.00008446e+00
1.00011366e+00
1.00014123e+00
1.00016727e+00
1.00019191e+00
1.00021527e+00
1.00023751e+00
1.00025878e+00
1.00027925e+00
1.00029911e+00
1.00031853e+00
1.00033772e+00
1.00035688e+00
1.00037620e+00
1.00039589e+00
1.00041615e+00
1.00043718e+00
1.00045917e+00
1.00048231e+00
1.00050678e+00
1.00053272e+00
1.00056030e+00
1.00058964e+00
1.00062086e+00
1.00065406e+00
1.00068932e+00
1.00072670e+00
1.00076624e+00
1.00080797e+00
1.00085188e+00
1.00089796e+00
1.00094618e+00
1.00099649e+00
1.00104881e+00
1.00110308e+00
1.00115919e+00
1.00121704e+00
1.00127650e+00
1.00133746e+00
1.00139977e+00
1.00146329e+00
1.00152787e+00
1.00159334e+00
1.00165955e+00
1.00172632e+00
1.00179349e+00
1.00186087e+00
1.00192829e+00
1.00199556e+00
1.00206250e+00
1.00212892e+00
1.00219463e+00
1.00225946e+00
1.00232319e+00
1.00238566e+00
1.00244667e+00
1.00250604e+00
1.00256358e+00
1.00261912e+00
1.00267249e+00
1.00272350e+00
1.00277201e+00
1.00281788e+00
1.00286093e+00
1.00290102e+00
1.00293807e+00
1.00297196e+00
1.00300248e+00
1.00302965e+00
1.00305341e+00
1.00307353e+00
1.00309000e+00
1.00310284e+00
1.00311196e+00
1.00311732e+00
1.00311911e+00
9.98004360e-01
9.98003992e-01
9.98005780e-01
9.98009916e-01
9.98016417e-01
9.98025318e-01
9.98036694e-01
9.98050506e-01
9.98066780e-01
9.98085626e-01
9.98107031e-01
9.98130991e-01
9.98157574e-01
9.98186787e-01
9.98218591e-01
9.98252979e-01
9.98289928e-01
9.98329372e-01
9.98371235e-01
9.98415434e-01
9.98461861e-01
9.98510385e-01
9.98560864e-01
9.98613138e-01
9.98667034e-01
9.98722365e-01
9.98778934e-01
9.98836536e-01
9.98894958e-01
9.98953987e-01
9.99013404e-01
9.99072996e-01
9.99132549e-01
9.99191857e-01
9.99250721e-01
9.99308949e-01
9.99366362e-01
9.99422791e-01
9.99478081e-01
9.99532090e-01
9.99584692e-01
9.99635773e-01
9.99685237e-01
9.99733002e-01
9.99779003e-01
9.99823190e-01
9.99865528e-01
9.99906000e-01
9.99944602e-01
9.99981348e-01
1.00001627e+00
1.00004940e+00
1.00008081e+00
1.00011057e+00
1.00013877e+00
1.00016551e+00
1.00019090e+00
1.00021508e+00
1.00023819e+00
1.00026038e+00
1.00028182e+00
1.00030267e+00
1.00032313e+00
1.00034336e+00
1.00036357e+00
1.00038394e+00
1.00040468e+00
1.00042596e+00
1.00044798e+00
1.00047091e+00
1.00049494e+00
1.00052023e+00
1.00054693e+00
1.00057518e+00
1.00060510e+00
1.00063680e+00
1.00067038e+00
1.00070592e+00
1.00074346e+00
1.00078305e+00
1.00082471e+00
1.00086845e+00
1.00091424e+00
1.00096206e+00
1.00101187e+00
1.00106359e+00
1.00111717e+00
1.00117250e+00
1.00122950e+00
1.00128805e+00
1.00134803e+00
1.00140932e+00
1.00147178e+00
1.00153526e+00
1.00159963e+00
1.00166472e+00
1.00173038e+00
1.00179644e+00
1.00186273e+00
1.00192908e+00
1.00199533e+00
1.00206128e+00
1.00212676e+00
1.00219158e+00
1.00225557e+00
1.00231853e+00
1.00238028e+00
1.00244064e+00
1.00249941e+00
1.00255643e+00
1.00261150e+00
1.00266446e+00
1.00271513e+00
1.00276335e+00
1.00280897e+00
1.00285184e+00
1.00289180e+00
1.00292872e+00
1.00296252e+00
1.00299306e+00
1.00302019e+00
1.00304390e+00
1.00306409e+00
1.00308060e+00
1.00309344e+00
1.00310257e+00
1.00310797e+00
1.00310981e+00
9.98005615e-01
9.98005245e-01
9.98007051e-01
9.98011138e-01
9.98017606e-01
9.98026513e-01
9.98037824e-01
9.98051555e-01
9.98067803e-01
9.98086574e-01
9.98107858e-01
9.98131730e-01
9.98158213e-01
9.98187281e-01
9.98218938e-01
9.98253180e-01
9.98289959e-01
9.98329215e-01
9.98370884e-01
9.98414878e-01
9.98461082e-01
9.98509373e-01
9.98559608e-01
9.98611629e-01
9.98665261e-01
9.98720319e-01
9.98776607e-01
9.98833921e-01
9.98892051e-01
9.98950783e-01
9.99009902e-01
9.99069197e-01
9.99128455e-01
9.99187474e-01
9.99246057e-01
9.99304016e-01
9.99361175e-01
9.99417369e-01
9.99472446e-01
9.99526269e-01
9.99578715e-01
9.99629676e-01
9.99679059e-01
9.99726788e-01
9.99772800e-01
9.99817051e-01
9.99859511e-01
9.99900164e-01
9.99939012e-01
9.99976070e-01
1.00001137e+00
1.00004495e+00
1.00007689e+00
1.00010724e+00
1.00013610e+00
1.00016357e+00
1.00018976e+00
1.00021480e+00
1.00023883e+00
1.00026199e+00
1.00028444e+00
1.00030634e+00
1.00032787e+00
1.00034920e+00
1.00037051e+00
1.00039199e+00
1.00041382e+00
1.00043617e+00
1.00045922e+00
1.00048314e+00
1.00050811e+00
1.00053426e+00
1.00056175e+00
1.00059070e+00
1.00062123e+00
1.00065344e+00
1.00068743e+00
1.00072326e+00
1.00076098e+00
1.00080063e+00
1.00084223e+00
1.00088579e+00
1.00093129e+00
1.00097871e+00
1.00102801e+00
1.00107913e+00
1.00113200e+00
1.00118654e+00
1.00124267e+00
1.00130027e+00
1.00135926e+00
1.00141949e+00
1.00148086e+00
1.00154322e+00
1.00160645e+00
1.00167039e+00
1.00173489e+00
1.00179981e+00
1.00186498e+00
1.00193024e+00
1.00199541e+00
1.00206034e+00
1.00212484e+00
1.00218873e+00
1.00225184e+00
1.00231399e+00
1.00237498e+00
1.00243464e+00
1.00249278e+00
1.00254923e+00
1.00260380e+00
1.00265631e+00
1.00270661e+00
1.00275451e+00
1.00279984e+00
1.00284248e+00
1.00288228e+00
1.00291907e+00
1.00295274e+00
1.00298322e+00
1.00301035e+00
1.00303401e+00
1.00305417e+00
1.00307074e+00
1.00308358e+00
1.00309269e+00
1.00309816e+00
1.00310002e+00
9.98006667e-01
9.98006263e-01
9.98008051e-01
9.98012136e-01
9.98018590e-01
9.98027437e-01
9.98038683e-01
9.98052381e-01
9.98068556e-01
9.98087211e-01
9.98108408e-01
9.98132183e-01
9.98158523e-01
9.98187445e-01
9.98218960e-01
9.98253034e-01
9.98289625e-01
9.98328689e-01
9.98370155e-01
9.98413927e-01
9.98459899e-01
9.98507948e-01
9.98557931e-01
9.98609687e-01
9.98663045e-01
9.98717821e-01
9.98773820e-01
9.98830838e-01
9.98888668e-01
9.98947097e-01
9.99005912e-01
9.99064903e-01
9.99123863e-01
9.99182589e-01
9.99240888e-01
9.99298575e-01
9.99355479e-01
9.99411437e-01
9.99466303e-01
9.99519942e-01
9.99572237e-01
9.99623083e-01
9.99672393e-01
9.99720094e-01
9.99766129e-01
9.99810458e-01
9.99853054e-01
9.99893906e-01
9.99933019e-01
9.99970411e-01
1.00000612e+00
1.00004018e+00
1.00007266e+00
1.00010364e+00
1.00013320e+00
1.00016144e+00
1.00018847e+00
1.00021441e+00
1.00023940e+00
1.00026357e+00
1.00028707e+00
1.00031007e+00
1.00033272e+00
1.00035520e+00
1.00037766e+00
1.00040029e+00
1.00042325e+00
1.00044671e+00
1.00047084e+00
1.00049580e+00
1.00052173e+00
1.00054879e+00
1.00057710e+00
1.00060679e+00
1.00063796e+00
1.00067071e+00
1.00070512e+00
1.00074126e+00
1.00077917e+00
1.00081889e+00
1.00086045e+00
1.00090384e+00
1.00094905e+00
1.00099607e+00
1.00104486e+00
1.00109536e+00
1.00114751e+00
1.00120125e+00
1.00125649e+00
1.00131314e+00
1.00137111e+00
1.00143027e+00
1.00149052e+00
1.00155174e+00
1.00161380e+00
1.00167656e+00
1.00173989e+00
1.00180363e+00
1.00186765e+00
1.00193177e+00
1.00199585e+00
1.00205971e+00
1.00212320e+00
1.00218612e+00
1.00224832e+00
1.00230961e+00
1.00236981e+00
1.00242874e+00
1.00248621e+00
1.00254205e+00
1.00259608e+00
1.00264811e+00
1.00269798e+00
1.00274551e+00
1.00279055e+00
1.00283292e+00
1.00287250e+00
1.00290914e+00
1.00294269e+00
1.00297304e+00
1.00300010e+00
1.00302374e+00
1.00304386e+00
1.00306040e+00
1.00307327e+00
1.00308241e+00
1.00308788e+00
1.00308975e+00
9.98007413e-01
9.98006992e-01
9.98008769e-01
9.98012846e-01
9.98019267e-01
9.98028057e-01
9.98039257e-01
9.98052892e-01
9.98068966e-01
9.98087530e-01
9.98108632e-01
9.98132272e-01
9.98158470e-01
9.98187253e-01
9.98218602e-01
9.98252492e-01
9.98288894e-01
9.98327757e-01
9.98369004e-01
9.98412545e-01
9.98458278e-01
9.98506076e-01
9.98555794e-01
9.98607277e-01
9.98660353e-01
9.98714839e-01
9.98770541e-01
9.98827256e-01
9.98884779e-01
9.98942898e-01
9.99001404e-01
9.99060087e-01
9.99118743e-01
9.99177173e-01
9.99235185e-01
9.99292600e-01
9.99349248e-01
9.99404972e-01
9.99459628e-01
9.99513086e-01
9.99565234e-01
9.99615972e-01
9.99665217e-01
9.99712900e-01
9.99758970e-01
9.99803390e-01
9.99846139e-01
9.99887208e-01
9.99926606e-01
9.99964355e-01
1.00000049e+00
1.00003506e+00
1.00006812e+00
1.00009976e+00
1.00013005e+00
1.00015909e+00
1.00018699e+00
1.00021387e+00
1.00023986e+00
1.00026508e+00
1.00028969e+00
1.00031383e+00
1.00033765e+00
1.00036131e+00
1.00038497e+00