# vtk DataFile Version 2.0
LBM Flow Field - Timestep 910
ASCII
DATASET STRUCTURED_POINTS
DIMENSIONS 128 128 1
ORIGIN 0.0 0.0 0.0
SPACING 1.0 1.0 1.0
POINT_DATA 16384
SCALARS density double 1
LOOKUP_TABLE default
9.99213101e-01
9.99183436e-01
9.99143872e-01
9.99116087e-01
9.99077343e-01
9.99028112e-01
9.98974820e-01
9.98918420e-01
9.98858731e-01
9.98797618e-01
9.98736820e-01
9.98677432e-01
9.98620497e-01
9.98567060e-01
9.98517932e-01
9.98473720e-01
9.98434898e-01
9.98401815e-01
9.98374698e-01
9.98353682e-01
9.98338834e-01
9.98330170e-01
9.98327663e-01
9.98331250e-01
9.98340841e-01
9.98356313e-01
9.98377508e-01
9.98404231e-01
9.98436241e-01
9.98473252e-01
9.98514932e-01
9.98560897e-01
9.98610725e-01
9.98663949e-01
9.98720076e-01
9.98778588e-01
9.98838953e-01
9.98900639e-01
9.98963118e-01
9.99025881e-01
9.99088444e-01
9.99150358e-01
9.99211213e-01
9.99270645e-01
9.99328342e-01
9.99384046e-01
9.99437554e-01
9.99488722e-01
9.99537460e-01
9.99583737e-01
9.99627570e-01
9.99669030e-01
9.99708231e-01
9.99745325e-01
9.99780500e-01
9.99813968e-01
9.99845964e-01
9.99876732e-01
9.99906525e-01
9.99935595e-01
9.99964185e-01
9.99992532e-01
1.00002085e+00
1.00004936e+00
1.00007823e+00
1.00010764e+00
1.00013775e+00
1.00016870e+00
1.00020061e+00
1.00023362e+00
1.00026783e+00
1.00030336e+00
1.00034033e+00
1.00037883e+00
1.00041897e+00
1.00046084e+00
1.00050454e+00
1.00055015e+00
1.00059774e+00
1.00064735e+00
1.00069904e+00
1.00075282e+00
1.00080869e+00
1.00086666e+00
1.00092669e+00
1.00098874e+00
1.00105277e+00
1.00111871e+00
1.00118648e+00
1.00125598e+00
1.00132709e+00
1.00139963e+00
1.00147340e+00
1.00154811e+00
1.00162342e+00
1.00169886e+00
1.00177388e+00
1.00184778e+00
1.00191976e+00
1.00198887e+00
1.00205405e+00
1.00211410e+00
1.00216778e+00
1.00221374e+00
1.00225066e+00
1.00227720e+00
1.00229215e+00
1.00229441e+00
1.00228310e+00
1.00225758e+00
1.00221756e+00
1.00216310e+00
1.00209467e+00
1.00201317e+00
1.00191994e+00
1.00181673e+00
1.00170569e+00
1.00158934e+00
1.00147037e+00
1.00135158e+00
1.00123617e+00
1.00112734e+00
1.00102689e+00
1.00093702e+00
1.00086343e+00
1.00080824e+00
1.00075477e+00
1.00071902e+00
9.99181848e-01
9.99167060e-01
9.99135139e-01
9.99104791e-01
9.99066141e-01
9.99020198e-01
9.98968686e-01
9.98913488e-01
9.98855602e-01
9.98796406e-01
9.98737227e-01
9.98679349e-01
9.98623856e-01
9.98571697e-01
9.98523660e-01
9.98480383e-01
9.98442346e-01
9.98409903e-01
9.98383295e-01
9.98362674e-01
9.98348122e-01
9.98339663e-01
9.98337278e-01
9.98340911e-01
9.98350475e-01
9.98365846e-01
9.98386868e-01
9.98413344e-01
9.98445033e-01
9.98481653e-01
9.98522872e-01
9.98568314e-01
9.98617561e-01
9.98670158e-01
9.98725620e-01
9.98783441e-01
9.98843101e-01
9.98904079e-01
9.98965861e-01
9.99027947e-01
9.99089865e-01
9.99151173e-01
9.99211470e-01
9.99270399e-01
9.99327653e-01
9.99382978e-01
9.99436174e-01
9.99487097e-01
9.99535657e-01
9.99581820e-01
9.99625602e-01
9.99667069e-01
9.99706329e-01
9.99743530e-01
9.99778852e-01
9.99812500e-01
9.99844703e-01
9.99875697e-01
9.99905731e-01
9.99935048e-01
9.99963891e-01
9.99992490e-01
1.00002106e+00
1.00004982e+00
1.00007894e+00
1.00010860e+00
1.00013895e+00
1.00017014e+00
1.00020230e+00
1.00023555e+00
1.00027000e+00
1.00030578e+00
1.00034297e+00
1.00038169e+00
1.00042202e+00
1.00046407e+00
1.00050790e+00
1.00055361e+00
1.00060123e+00
1.00065084e+00
1.00070246e+00
1.00075610e+00
1.00081178e+00
1.00086947e+00
1.00092917e+00
1.00099081e+00
1.00105437e+00
1.00111976e+00
1.00118692e+00
1.00125574e+00
1.00132608e+00
1.00139780e+00
1.00147066e+00
1.00154440e+00
1.00161866e+00
1.00169299e+00
1.00176683e+00
1.00183951e+00
1.00191025e+00
1.00197811e+00
1.00204205e+00
1.00210093e+00
1.00215353e+00
1.00219854e+00
1.00223467e+00
1.00226065e+00
1.00227529e+00
1.00227752e+00
1.00226650e+00
1.00224161e+00
1.00220256e+00
1.00214942e+00
1.00208264e+00
1.00200310e+00
1.00191209e+00
1.00181131e+00
1.00170286e+00
1.00158914e+00
1.00147281e+00
1.00135673e+00
1.00124382e+00
1.00113694e+00
1.00103863e+00
1.00095182e+00
1.00087905e+00
1.00082237e+00
1.00077483e+00
1.00075118e+00
9.99148415e-01
9.99142394e-01
9.99129820e-01
9.99096093e-01
9.99055954e-01
9.99013486e-01
9.98964475e-01
9.98910527e-01
9.98854404e-01
9.98797192e-01
9.98739783e-01
9.98683539e-01
9.98629610e-01
9.98578866e-01
9.98532073e-01
9.98489879e-01
9.98452768e-01
9.98421090e-01
9.98395096e-01
9.98374949e-01
9.98360738e-01
9.98352494e-01
9.98350205e-01
9.98353820e-01
9.98363254e-01
9.98378387e-01
9.98399064e-01
9.98425091e-01
9.98456233e-01
9.98492210e-01
9.98532701e-01
9.98577339e-01
9.98625717e-01
9.98677394e-01
9.98731901e-01
9.98788745e-01
9.98847425e-01
9.98907433e-01
9.98968271e-01
9.99029453e-01
9.99090519e-01
9.99151038e-01
9.99210619e-01
9.99268910e-01
9.99325612e-01
9.99380472e-01
9.99433293e-01
9.99483930e-01
9.99532293e-01
9.99578344e-01
9.99622095e-01
9.99663607e-01
9.99702981e-01
9.99740357e-01
9.99775907e-01
9.99809832e-01
9.99842348e-01
9.99873688e-01
9.99904091e-01
9.99933797e-01
9.99963042e-01
9.99992055e-01
1.00002105e+00
1.00005023e+00
1.00007979e+00
1.00010989e+00
1.00014070e+00
1.00017235e+00
1.00020497e+00
1.00023869e+00
1.00027362e+00
1.00030986e+00
1.00034751e+00
1.00038667e+00
1.00042741e+00
1.00046981e+00
1.00051396e+00
1.00055990e+00
1.00060769e+00
1.00065736e+00
1.00070894e+00
1.00076244e+00
1.00081785e+00
1.00087517e+00
1.00093435e+00
1.00099537e+00
1.00105818e+00
1.00112271e+00
1.00118888e+00
1.00125659e+00
1.00132573e+00
1.00139614e+00
1.00146760e+00
1.00153985e+00
1.00161255e+00
1.00168526e+00
1.00175745e+00
1.00182847e+00
1.00189754e+00
1.00196379e+00
1.00202620e+00
1.00208367e+00
1.00213500e+00
1.00217895e+00
1.00221425e+00
1.00223968e+00
1.00225408e+00
1.00225641e+00
1.00224583e+00
1.00222176e+00
1.00218390e+00
1.00213229e+00
1.00206737e+00
1.00198996e+00
1.00190132e+00
1.00180310e+00
1.00169732e+00
1.00158628e+00
1.00147263e+00
1.00135924e+00
1.00124872e+00
1.00114378e+00
1.00104802e+00
1.00096425e+00
1.00089102e+00
1.00083234e+00
1.00080035e+00
1.00078418e+00
9.99141328e-01
9.99134335e-01
9.99116231e-01
9.99086368e-01
9.99051716e-01
9.99009745e-01
9.98961731e-01
9.98910229e-01
9.98856227e-01
9.98800721e-01
9.98745139e-01
9.98690700e-01
9.98638383e-01
9.98589099e-01
9.98543630e-01
9.98502590e-01
9.98466456e-01
9.98435590e-01
9.98410245e-01
9.98390587e-01
9.98376708e-01
9.98368644e-01
9.98366385e-01
9.98369883e-01
9.98379053e-01
9.98393777e-01
9.98413903e-01
9.98439242e-01
9.98469566e-01
9.98504605e-01
9.98544051e-01
9.98587551e-01
9.98634719e-01
9.98685132e-01
9.98738341e-01
9.98793877e-01
9.98851258e-01
9.98909999e-01
9.98969619e-01
9.99029651e-01
9.99089648e-01
9.99149193e-01
9.99207903e-01
9.99265436e-01
9.99321496e-01
9.99375833e-01
9.99428250e-01
9.99478601e-01
9.99526792e-01
9.99572780e-01
9.99616571e-01
9.99658216e-01
9.99697810e-01
9.99735482e-01
9.99771397e-01
9.99805743e-01
9.99838730e-01
9.99870580e-01
9.99901525e-01
9.99931798e-01
9.99961632e-01
9.99991249e-01
1.00002086e+00
1.00005068e+00
1.00008088e+00
1.00011164e+00
1.00014311e+00
1.00017545e+00
1.00020877e+00
1.00024319e+00
1.00027883e+00
1.00031577e+00
1.00035411e+00
1.00039393e+00
1.00043529e+00
1.00047827e+00
1.00052290e+00
1.00056924e+00
1.00061732e+00
1.00066716e+00
1.00071876e+00
1.00077214e+00
1.00082726e+00
1.00088412e+00
1.00094268e+00
1.00100291e+00
1.00106475e+00
1.00112814e+00
1.00119303e+00
1.00125931e+00
1.00132688e+00
1.00139559e+00
1.00146524e+00
1.00153558e+00
1.00160628e+00
1.00167694e+00
1.00174704e+00
1.00181595e+00
1.00188294e+00
1.00194716e+00
1.00200764e+00
1.00206331e+00
1.00211301e+00
1.00215557e+00
1.00218974e+00
1.00221434e+00
1.00222825e+00
1.00223047e+00
1.00222018e+00
1.00219680e+00
1.00216005e+00
1.00210994e+00
1.00204689e+00
1.00197170e+00
1.00188555e+00
1.00179005e+00
1.00168713e+00
1.00157909e+00
1.00146840e+00
1.00135780e+00
1.00125019e+00
1.00114819e+00
1.00105426e+00
1.00097188e+00
1.00090346e+00
1.00084800e+00
1.00081171e+00
1.00079542e+00
9.99134714e-01
9.99125412e-01
9.99105921e-01
9.99081780e-01
9.99048940e-01
9.99007186e-01
9.98961657e-01
9.98912775e-01
9.98860669e-01
9.98807112e-01
9.98753623e-01
9.98701107e-01
9.98650522e-01
9.98602829e-01
9.98558782e-01
9.98518965e-01
9.98483861e-01
9.98453837e-01
9.98429147e-01
9.98409956e-01
9.98396363e-01
9.98388407e-01
9.98386080e-01
9.98389331e-01
9.98398079e-01
9.98412207e-01
9.98431565e-01
9.98455970e-01
9.98485203e-01
9.98519008e-01
9.98557090e-01
9.98599119e-01
9.98644730e-01
9.98693525e-01
9.98745083e-01
9.98798961e-01
9.98854705e-01
9.98911855e-01
9.98969953e-01
9.99028555e-01
9.99087232e-01
9.99145581e-01
9.99203233e-01
9.99259855e-01
9.99315154e-01
9.99368885e-01
9.99420850e-01
9.99470899e-01
9.99518935e-01
9.99564906e-01
9.99608810e-01
9.99650689e-01
9.99690624e-01
9.99728736e-01
9.99765174e-01
9.99800116e-01
9.99833759e-01
9.99866316e-01
9.99898008e-01
9.99929061e-01
9.99959698e-01
9.99990141e-01
1.00002060e+00
1.00005127e+00
1.00008235e+00
1.00011399e+00
1.00014637e+00
1.00017962e+00
1.00021387e+00
1.00024924e+00
1.00028581e+00
1.00032369e+00
1.00036295e+00
1.00040364e+00
1.00044583e+00
1.00048955e+00
1.00053484e+00
1.00058172e+00
1.00063020e+00
1.00068028e+00
1.00073195e+00
1.00078520e+00
1.00084001e+00
1.00089633e+00
1.00095414e+00
1.00101341e+00
1.00107408e+00
1.00113610e+00
1.00119942e+00
1.00126395e+00
1.00132959e+00
1.00139622e+00
1.00146365e+00
1.00153164e+00
1.00159990e+00
1.00166803e+00
1.00173555e+00
1.00180186e+00
1.00186627e+00
1.00192797e+00
1.00198602e+00
1.00203941e+00
1.00208705e+00
1.00212778e+00
1.00216043e+00
1.00218386e+00
1.00219700e+00
1.00219888e+00
1.00218871e+00
1.00216594e+00
1.00213027e+00
1.00208172e+00
1.00202067e+00
1.00194788e+00
1.00186449e+00
1.00177201e+00
1.00167232e+00
1.00156763e+00
1.00146037e+00
1.00135301e+00
1.00124847e+00
1.00114982e+00
1.00105898e+00
1.00097787e+00
1.00091153e+00
1.00086110e+00
1.00082463e+00
1.00080654e+00
9.99127151e-01
9.99119656e-01
9.99102960e-01
9.99078533e-01
9.99045768e-01
9.99007629e-01
9.98964829e-01
9.98917424e-01
9.98867476e-01
9.98816438e-01
9.98765108e-01
9.98714547e-01
9.98665871e-01
9.98619922e-01
9.98577387e-01
9.98538879e-01
9.98504882e-01
9.98475747e-01
9.98451731e-01
9.98433005e-01
9.98419670e-01
9.98411763e-01
9.98409277e-01
9.98412165e-01
9.98420343e-01
9.98433696e-01
9.98452080e-01
9.98475319e-01
9.98503203e-01
9.98535493e-01
9.98571913e-01
9.98612156e-01
9.98655885e-01
9.98702731e-01
9.98752304e-01
9.98804194e-01
9.98857977e-01
9.98913225e-01
9.98969508e-01
9.99026407e-01
9.99083515e-01
9.99140448e-01
9.99196851e-01
9.99252401e-01
9.99306814e-01
9.99359846e-01
9.99411299e-01
9.99461020e-01
9.99508906e-01
9.99554896e-01
9.99598977e-01
9.99641178e-01
9.99681569e-01
9.99720254e-01
9.99757369e-01
9.99793076e-01
9.99827560e-01
9.99861018e-01
9.99893662e-01
9.99925705e-01
9.99957365e-01
9.99988855e-01
1.00002038e+00
1.00005214e+00
1.00008431e+00
1.00011708e+00
1.00015059e+00
1.00018498e+00
1.00022038e+00
1.00025689e+00
1.00029462e+00
1.00033363e+00
1.00037398e+00
1.00041573e+00
1.00045890e+00
1.00050352e+00
1.00054959e+00
1.00059710e+00
1.00064606e+00
1.00069642e+00
1.00074817e+00
1.00080127e+00
1.00085569e+00
1.00091139e+00
1.00096832e+00
1.00102646e+00
1.00108575e+00
1.00114616e+00
1.00120763e+00
1.00127010e+00
1.00133349e+00
1.00139766e+00
1.00146247e+00
1.00152771e+00
1.00159308e+00
1.00165824e+00
1.00172273e+00
1.00178598e+00
1.00184736e+00
1.00190607e+00
1.00196126e+00
1.00201195e+00
1.00205712e+00
1.00209565e+00
1.00212646e+00
1.00214844e+00
1.00216057e+00
1.00216193e+00
1.00215176e+00
1.00212953e+00
1.00209494e+00
1.00204800e+00
1.00198908e+00
1.00191886e+00
1.00183845e+00
1.00174928e+00
1.00165312e+00
1.00155206e+00
1.00144851e+00
1.00134500e+00
1.00124393e+00
1.00114812e+00
1.00106074e+00
1.00098346e+00
1.00091821e+00
1.00086835e+00
1.00083433e+00
1.00081779e+00
9.99122733e-01
9.99115772e-01
9.99100752e-01
9.99076788e-01
9.99046367e-01
9.99010834e-01
9.98969572e-01
9.98924453e-01
9.98877255e-01
9.98828553e-01
9.98779387e-01
9.98731032e-01
9.98684410e-01
9.98640266e-01
9.98599332e-01
9.98562217e-01
9.98529377e-01
9.98501161e-01
9.98477831e-01
9.98459560e-01
9.98446447e-01
9.98438531e-01
9.98435805e-01
9.98438222e-01
9.98445697e-01
9.98458119e-01
9.98475346e-01
9.98497211e-01
9.98523519e-01
9.98554043e-01
9.98588534e-01
9.98626708e-01
9.98668259e-01
9.98712853e-01
9.98760133e-01
9.98809727e-01
9.98861248e-01
9.98914300e-01
9.98968487e-01
9.99023419e-01
9.99078716e-01
9.99134016e-01
9.99188980e-01
9.99243298e-01
9.99296694e-01
9.99348929e-01
9.99399806e-01
9.99449167e-01
9.99496902e-01
9.99542940e-01
9.99587257e-01
9.99629867e-01
9.99670823e-01
9.99710214e-01
9.99748157e-01
9.99784798e-01
9.99820304e-01
9.99854858e-01
9.99888656e-01
9.99921900e-01
9.99954797e-01
9.99987551e-01
1.00002036e+00
1.00005342e+00
1.00008692e+00
1.00012101e+00
1.00015585e+00
1.00019158e+00
1.00022832e+00
1.00026618e+00
1.00030522e+00
1.00034552e+00
1.00038712e+00
1.00043006e+00
1.00047433e+00
1.00051993e+00
1.00056685e+00
1.00061506e+00
1.00066451e+00
1.00071517e+00
1.00076698e+00
1.00081988e+00
1.00087384e+00
1.00092880e+00
1.00098472e+00
1.00104156e+00
1.00109929e+00
1.00115787e+00
1.00121725e+00
1.00127739e+00
1.00133821e+00
1.00139962e+00
1.00146149e+00
1.00152361e+00
1.00158573e+00
1.00164753e+00
1.00170859e+00
1.00176839e+00
1.00182632e+00
1.00188165e+00
1.00193358e+00
1.00198119e+00
1.00202351e+00
1.00205952e+00
1.00208816e+00
1.00210841e+00
1.00211930e+00
1.00211995e+00
1.00210964e+00
1.00208786e+00
1.00205432e+00
1.00200903e+00
1.00195231e+00
1.00188482e+00
1.00180756e+00
1.00172190e+00
1.00162957e+00
1.00153248e+00
1.00143289e+00
1.00133334e+00
1.00123635e+00
1.00114411e+00
1.00105955e+00
1.00098557e+00
1.00092321e+00
1.00087458e+00
1.00084230e+00
1.00082647e+00
9.99121833e-01
9.99114957e-01
9.99100012e-01
9.99078016e-01
9.99049905e-01
9.99015675e-01
9.98976670e-01
9.98934515e-01
9.98889698e-01
9.98843258e-01
9.98796581e-01
9.98750572e-01
9.98706008e-01
9.98663744e-01
9.98624503e-01
9.98588826e-01
9.98557166e-01
9.98529885e-01
9.98507240e-01
9.98489400e-01
9.98476466e-01
9.98468480e-01
9.98465433e-01
9.98467275e-01
9.98473925e-01
9.98485272e-01
9.98501179e-01
9.98521488e-01
9.98546015e-01
9.98574555e-01
9.98606878e-01
9.98642733e-01
9.98681844e-01
9.98723914e-01
9.98768625e-01
9.98815644e-01
9.98864624e-01
9.98915209e-01
9.98967038e-01
9.99019756e-01
9.99073011e-01
9.99126466e-01
9.99179804e-01
9.99232730e-01
9.99284979e-01
9.99336318e-01
9.99386549e-01
9.99435513e-01
9.99483091e-01
9.99529203e-01
9.99573810e-01
9.99616911e-01
9.99658540e-01
9.99698766e-01
9.99737688e-01
9.99775431e-01
9.99812142e-01
9.99847987e-01
9.99883143e-01
9.99917799e-01
9.99952147e-01
9.99986382e-01
1.00002070e+00
1.00005527e+00
1.00009029e+00
1.00012590e+00
1.00016227e+00
1.00019953e+00
1.00023778e+00
1.00027712e+00
1.00031762e+00
1.00035934e+00
1.00040229e+00
1.00044649e+00
1.00049193e+00
1.00053857e+00
1.00058637e+00
1.00063527e+00
1.00068521e+00
1.00073612e+00
1.00078793e+00
1.00084057e+00
1.00089397e+00
1.00094808e+00
1.00100286e+00
1.00105826e+00
1.00111425e+00
1.00117080e+00
1.00122789e+00
1.00128548e+00
1.00134351e+00
1.00140190e+00
1.00146054e+00
1.00151926e+00
1.00157783e+00
1.00163595e+00
1.00169325e+00
1.00174925e+00
1.00180339e+00
1.00185499e+00
1.00190331e+00
1.00194749e+00
1.00198664e+00
1.00201979e+00
1.00204597e+00
1.00206422e+00
1.00207362e+00
1.00207336e+00
1.00206275e+00
1.00204131e+00
1.00200876e+00
1.00196510e+00
1.00191061e+00
1.00184592e+00
1.00177196e+00
1.00168999e+00
1.00160163e+00
1.00150880e+00
1.00141354e+00
1.00131812e+00
1.00122517e+00
1.00113715e+00
1.00105608e+00
1.00098466e+00
1.00092521e+00
1.00087895e+00
1.00084742e+00
1.00083211e+00
9.99122562e-01
9.99116026e-01
9.99102082e-01
9.99081826e-01
9.99055247e-01
9.99023069e-01
9.98986813e-01
9.98947058e-01
9.98904615e-01
9.98860871e-01
9.98816751e-01
9.98773019e-01
9.98730606e-01
9.98690328e-01
9.98652802e-01
9.98618572e-01
9.98588108e-01
9.98561757e-01
9.98539770e-01
9.98522320e-01
9.98509511e-01
9.98501384e-01
9.98497928e-01
9.98499096e-01
9.98504804e-01
9.98514944e-01
9.98529385e-01
9.98547976e-01
9.98570547e-01
9.98596911e-01
9.98626864e-01
9.98660182e-01
9.98696625e-01
9.98735933e-01
9.98777830e-01
9.98822025e-01
9.98868213e-01
9.98916081e-01
9.98965310e-01
9.99015578e-01
9.99066570e-01
9.99117978e-01
9.99169507e-01
9.99220882e-01
9.99271850e-01
9.99322187e-01
9.99371698e-01
9.99420221e-01
9.99467630e-01
9.99513835e-01
9.99558781e-01
9.99602449e-01
9.99644854e-01
9.99686044e-01
9.99726094e-01
9.99765108e-01
9.99803208e-01
9.99840540e-01
9.99877261e-01
9.99913541e-01
9.99949558e-01
9.99985490e-01
1.00002152e+00
1.00005782e+00
1.00009456e+00
1.00013189e+00
1.00016996e+00
1.00020890e+00
1.00024880e+00
1.00028975e+00
1.00033182e+00
1.00037503e+00
1.00041940e+00
1.00046491e+00
1.00051153e+00
1.00055921e+00
1.00060787e+00
1.00065743e+00
1.00070780e+00
1.00075890e+00
1.00081062e+00
1.00086290e+00
1.00091564e+00
1.00096878e+00
1.00102229e+00
1.00107611e+00
1.00113022e+00
1.00118460e+00
1.00123923e+00
1.00129409e+00
1.00134913e+00
1.00140431e+00
1.00145951e+00
1.00151459e+00
1.00156937e+00
1.00162356e+00
1.00167684e+00
1.00172875e+00
1.00177880e+00
1.00182636e+00
1.00187076e+00
1.00191120e+00
1.00194686e+00
1.00197686e+00
1.00200029e+00
1.00201626e+00
1.00202393e+00
1.00202253e+00
1.00201145e+00
1.00199020e+00
1.00195855e+00
1.00191646e+00
1.00186421e+00
1.00180235e+00
1.00173177e+00
1.00165364e+00
1.00156944e+00
1.00148096e+00
1.00139025e+00
1.00129939e+00
1.00121066e+00
1.00112665e+00
1.00104956e+00
1.00098135e+00
1.00092443e+00
1.00088049e+00
1.00085046e+00
1.00083581e+00
9.99125459e-01
9.99119655e-01
9.99106901e-01
9.99087855e-01
9.99063012e-01
9.99033351e-01
9.98999468e-01
9.98962067e-01
9.98922401e-01
9.98881371e-01
9.98839694e-01
9.98798343e-01
9.98758187e-01
9.98719888e-01
9.98684069e-01
9.98651301e-01
9.98622023e-01
9.98596569e-01
9.98575196e-01
9.98558085e-01
9.98545335e-01
9.98536989e-01
9.98533038e-01
9.98533433e-01
9.98538093e-01
9.98546909e-01
9.98559756e-01
9.98576490e-01
9.98596956e-01
9.98620985e-01
9.98648396e-01
9.98678996e-01
9.98712579e-01
9.98748923e-01
9.98787796e-01
9.98828950e-01
9.98872127e-01
9.98917057e-01
9.98963465e-01
9.99011070e-01
9.99059594e-01
9.99108761e-01
9.99158305e-01
9.99207971e-01
9.99257526e-01
9.99306753e-01
9.99355463e-01
9.99403494e-01
9.99450714e-01
9.99497020e-01
9.99542344e-01
9.99586648e-01
9.99629926e-01
9.99672200e-01
9.99713523e-01
9.99753970e-01
9.99793641e-01
9.99832654e-01
9.99871145e-01
9.99909261e-01
9.99947159e-01
9.99985003e-01
1.00002296e+00
1.00006118e+00
1.00009983e+00
1.00013906e+00
1.00017899e+00
1.00021975e+00
1.00026142e+00
1.00030408e+00
1.00034778e+00
1.00039253e+00
1.00043833e+00
1.00048515e+00
1.00053293e+00
1.00058159e+00
1.00063105e+00
1.00068119e+00
1.00073191e+00
1.00078309e+00
1.00083462e+00
1.00088641e+00
1.00093837e+00
1.00099043e+00
1.00104254e+00
1.00109467e+00
1.00114677e+00
1.00119886e+00
1.00125091e+00
1.00130291e+00
1.00135483e+00
1.00140664e+00
1.00145826e+00
1.00150955e+00
1.00156035e+00
1.00161042e+00
1.00165945e+00
1.00170706e+00
1.00175277e+00
1.00179605e+00
1.00183625e+00
1.00187268e+00
1.00190458e+00
1.00193114e+00
1.00195155e+00
1.00196498e+00
1.00197067e+00
1.00196792e+00
1.00195616e+00
1.00193495e+00
1.00190405e+00
1.00186345e+00
1.00181338e+00
1.00175436e+00
1.00168717e+00
1.00161295e+00
1.00153305e+00
1.00144910e+00
1.00136299e+00
1.00127685e+00
1.00119273e+00
1.00111285e+00
1.00103963e+00
1.00097506e+00
1.00092093e+00
1.00087905e+00
1.00085068e+00
1.00083702e+00
9.99130903e-01
9.99125640e-01
9.99113967e-01
9.99096412e-01
9.99073607e-01
9.99046164e-01
9.99014604e-01
9.98979926e-01
9.98943018e-01
9.98904552e-01
9.98865440e-01
9.98826571e-01
9.98788626e-01
9.98752281e-01
9.98718186e-01
9.98686859e-01
9.98658717e-01
9.98634109e-01
9.98613295e-01
9.98596452e-01
9.98583683e-01
9.98575034e-01
9.98570499e-01
9.98570028e-01
9.98573539e-01
9.98580929e-01
9.98592074e-01
9.98606839e-01
9.98625080e-01
9.98646647e-01
9.98671382e-01
9.98699120e-01
9.98729690e-01
9.98762909e-01
9.98798586e-01
9.98836521e-01
9.98876500e-01
9.98918301e-01
9.98961696e-01
9.99006447e-01
9.99052315e-01
9.99099063e-01
9.99146454e-01
9.99194261e-01
9.99242268e-01
9.99290274e-01
9.99338098e-01
9.99385577e-01
9.99432575e-01
9.99478981e-01
9.99524710e-01
9.99569705e-01
9.99613939e-01
9.99657408e-01
9.99700136e-01
9.99742171e-01
9.99783585e-01
9.99824467e-01
9.99864925e-01
9.99905082e-01
9.99945070e-01
9.99985030e-01
1.00002511e+00
1.00006545e+00
1.00010619e+00
1.00014747e+00
1.00018940e+00
1.00023210e+00
1.00027563e+00
1.00032006e+00
1.00036543e+00
1.00041173e+00
1.00045895e+00
1.00050703e+00
1.00055590e+00
1.00060546e+00
1.00065561e+00
1.00070621e+00
1.00075714e+00
1.00080827e+00
1.00085948e+00
1.00091066e+00
1.00096171e+00
1.00101256e+00
1.00106317e+00
1.00111348e+00
1.00116349e+00
1.00121319e+00
1.00126257e+00
1.00131163e+00
1.00136035e+00
1.00140871e+00
1.00145664e+00
1.00150404e+00
1.00155074e+00
1.00159656e+00
1.00164120e+00
1.00168434e+00
1.00172554e+00
1.00176432e+00
1.00180012e+00
1.00183230e+00
1.00186019e+00
1.00188306e+00
1.00190019e+00
1.00191083e+00
1.00191430e+00
1.00190997e+00
1.00189732e+00
1.00187596e+00
1.00184566e+00
1.00180642e+00
1.00175844e+00
1.00170220e+00
1.00163842e+00
1.00156809e+00
1.00149252e+00
1.00141322e+00
1.00133188e+00
1.00125047e+00
1.00117107e+00
1.00109568e+00
1.00102641e+00
1.00096540e+00
1.00091434e+00
1.00087479e+00
1.00084807e+00
1.00083534e+00
9.99138933e-01
9.99134257e-01
9.99123616e-01
9.99107681e-01
9.99086846e-01
9.99061556e-01
9.99032542e-01
9.99000585e-01
9.98966299e-01
9.98930496e-01
9.98894026e-01
9.98857562e-01
9.98821790e-01
9.98787411e-01
9.98755001e-01
9.98725046e-01
9.98697980e-01
9.98674153e-01
9.98653818e-01
9.98637157e-01
9.98624282e-01
9.98615243e-01
9.98610033e-01
9.98608605e-01
9.98610881e-01
9.98616756e-01
9.98626111e-01
9.98638819e-01
9.98654747e-01
9.98673759e-01
9.98695720e-01
9.98720493e-01
9.98747937e-01
9.98777910e-01
9.98810263e-01
9.98844839e-01
9.98881472e-01
9.98919991e-01
9.98960212e-01
9.99001945e-01
9.99044995e-01
9.99089162e-01
9.99134247e-01
9.99180050e-01
9.99226381e-01
9.99273055e-01
9.99319900e-01
9.99366759e-01
9.99413493e-01
9.99459983e-01
9.99506129e-01
9.99551856e-01
9.99597111e-01
9.99641867e-01
9.99686118e-01
9.99729881e-01
9.99773195e-01
9.99816118e-01
9.99858728e-01
9.99901116e-01
9.99943388e-01
9.99985658e-01
1.00002805e+00
1.00007068e+00
1.00011367e+00
1.00015714e+00
1.00020120e+00
1.00024592e+00
1.00029137e+00
1.00033761e+00
1.00038465e+00
1.00043247e+00
1.00048105e+00
1.00053031e+00
1.00058017e+00
1.00063051e+00
1.00068120e+00
1.00073212e+00
1.00078310e+00
1.00083403e+00
1.00088476e+00
1.00093518e+00
1.00098519e+00
1.00103472e+00
1.00108371e+00
1.00113213e+00
1.00117997e+00
1.00122722e+00
1.00127388e+00
1.00131996e+00
1.00136545e+00
1.00141033e+00
1.00145453e+00
1.00149798e+00
1.00154054e+00
1.00158203e+00
1.00162220e+00
1.00166075e+00
1.00169731e+00
1.00173145e+00
1.00176266e+00
1.00179041e+00
1.00181408e+00
1.00183305e+00
1.00184666e+00
1.00185428e+00
1.00185529e+00
1.00184915e+00
1.00183539e+00
1.00181366e+00
1.00178378e+00
1.00174574e+00
1.00169972e+00
1.00164616e+00
1.00158571e+00
1.00151927e+00
1.00144802e+00
1.00137336e+00
1.00129688e+00
1.00122033e+00
1.00114565e+00
1.00107483e+00
1.00100975e+00
1.00095234e+00
1.00090438e+00
1.00086730e+00
1.00084226e+00
1.00083050e+00
9.99149540e-01
9.99145511e-01
9.99136024e-01
9.99121665e-01
9.99102749e-01
9.99079755e-01
9.99053296e-01
9.99023934e-01
9.98992331e-01
9.98959247e-01
9.98925322e-01
9.98891211e-01
9.98857615e-01
9.98825143e-01
9.98794327e-01
9.98765671e-01
9.98739605e-01
9.98716464e-01
9.98696509e-01
9.98679934e-01
9.98666857e-01
9.98657331e-01
9.98651356e-01
9.98648887e-01
9.98649848e-01
9.98654136e-01
9.98661635e-01
9.98672223e-01
9.98685777e-01
9.98702176e-01
9.98721303e-01
9.98743046e-01
9.98767296e-01
9.98793947e-01
9.98822888e-01
9.98854010e-01
9.98887193e-01
9.98922312e-01
9.98959235e-01
9.98997819e-01
9.99037914e-01
9.99079364e-01
9.99122006e-01
9.99165675e-01
9.99210207e-01
9.99255438e-01
9.99301210e-01
9.99347374e-01
9.99393790e-01
9.99440332e-01
9.99486889e-01
9.99533366e-01
9.99579690e-01
9.99625804e-01
9.99671671e-01
9.99717277e-01
9.99762626e-01
9.99807742e-01
9.99852666e-01
9.99897457e-01
9.99942186e-01
9.99986938e-01
1.00003180e+00
1.00007688e+00
1.00012226e+00
1.00016805e+00
1.00021431e+00
1.00026113e+00
1.00030854e+00
1.00035659e+00
1.00040527e+00
1.00045456e+00
1.00050441e+00
1.00055473e+00
1.00060544e+00
1.00065640e+00
1.00070748e+00
1.00075853e+00
1.00080939e+00
1.00085994e+00
1.00091002e+00
1.00095954e+00
1.00100837e+00
1.00105646e+00
1.00110375e+00
1.00115021e+00
1.00119583e+00
1.00124060e+00
1.00128453e+00
1.00132764e+00
1.00136990e+00
1.00141131e+00
1.00145181e+00
1.00149132e+00
1.00152973e+00
1.00156688e+00
1.00160254e+00
1.00163645e+00
1.00166829e+00
1.00169768e+00
1.00172420e+00
1.00174736e+00
1.00176664e+00
1.00178151e+00
1.00179141e+00
1.00179578e+00
1.00179411e+00
1.00178592e+00
1.00177082e+00
1.00174852e+00
1.00171885e+00
1.00168181e+00
1.00163759e+00
1.00158656e+00
1.00152931e+00
1.00146668e+00
1.00139971e+00
1.00132965e+00
1.00125800e+00
1.00118638e+00
1.00111649e+00
1.00105022e+00
1.00098939e+00
1.00093573e+00
1.00089091e+00
1.00085633e+00
1.00083307e+00
1.00082234e+00
9.99162961e-01
9.99159611e-01
9.99151268e-01
9.99138458e-01
9.99121502e-01
9.99100810e-01
9.99076820e-01
9.99050063e-01
9.99021164e-01
9.98990700e-01
9.98959252e-01
9.98927475e-01
9.98895974e-01
9.98865298e-01
9.98835991e-01
9.98808543e-01
9.98783362e-01
9.98760791e-01
9.98741107e-01
9.98724510e-01
9.98711123e-01
9.98701011e-01
9.98694181e-01
9.98690591e-01
9.98690168e-01
9.98692810e-01
9.98698406e-01
9.98706837e-01
9.98717986e-01
9.98731746e-01
9.98748016e-01
9.98766706e-01
9.98787735e-01
9.98811029e-01
9.98836519e-01
9.98864135e-01
9.98893805e-01
9.98925452e-01
9.98958992e-01
9.98994332e-01
9.99031369e-01
9.99069991e-01
9.99110077e-01
9.99151498e-01
9.99194120e-01
9.99237803e-01
9.99282408e-01
9.99327794e-01
9.99373827e-01
9.99420375e-01
9.99467317e-01
9.99514543e-01
9.99561955e-01
9.99609469e-01
9.99657019e-01
9.99704555e-01
9.99752044e-01
9.99799473e-01
9.99846845e-01
9.99894179e-01
9.99941511e-01
9.99988888e-01
1.00003637e+00
1.00008402e+00
1.00013190e+00
1.00018008e+00
1.00022862e+00
1.00027757e+00
1.00032696e+00
1.00037679e+00
1.00042706e+00
1.00047773e+00
1.00052873e+00
1.00057999e+00
1.00063138e+00
1.00068279e+00
1.00073406e+00
1.00078505e+00
1.00083561e+00
1.00088559e+00
1.00093487e+00
1.00098332e+00
1.00103086e+00
1.00107741e+00
1.00112292e+00
1.00116737e+00
1.00121074e+00
1.00125304e+00
1.00129427e+00
1.00133443e+00
1.00137352e+00
1.00141151e+00
1.00144836e+00
1.00148400e+00
1.00151831e+00
1.00155114e+00
1.00158232e+00
1.00161159e+00
1.00163868e+00
1.00166328e+00
1.00168501e+00
1.00170347e+00
1.00171824e+00
1.00172886e+00
1.00173486e+00
1.00173579e+00
1.00173122e+00
1.00172076e+00
1.00170409e+00
1.00168097e+00
1.00165129e+00
1.00161504e+00
1.00157241e+00
1.00152373e+00
1.00146953e+00
1.00141056e+00
1.00134776e+00
1.00128225e+00
1.00121536e+00
1.00114859e+00
1.00108353e+00
1.00102184e+00
1.00096523e+00
1.00091537e+00
1.00087374e+00
1.00084166e+00
1.00082021e+00
1.00081053e+00
9.99179343e-01
9.99176646e-01
9.99169437e-01
9.99158200e-01
9.99143198e-01
9.99124734e-01
9.99103185e-01
9.99079027e-01
9.99052735e-01
9.99024801e-01
9.98995784e-01
9.98966243e-01
9.98936709e-01
9.98907726e-01
9.98879818e-01
9.98853444e-01
9.98829015e-01
9.98806889e-01
9.98787350e-01
9.98770605e-01
9.98756796e-01
9.98745997e-01
9.98738222e-01
9.98733437e-01
9.98731570e-01
9.98732524e-01
9.98736188e-01
9.98742447e-01
9.98751190e-01
9.98762316e-01
9.98775741e-01
9.98791393e-01
9.98809215e-01
9.98829165e-01
9.98851207e-01
9.98875312e-01
9.98901453e-01
9.98929598e-01
9.98959713e-01
9.98991753e-01
9.99025664e-01
9.99061380e-01
9.99098823e-01
9.99137903e-01
9.99178519e-01
9.99220560e-01
9.99263905e-01
9.99308430e-01
9.99354004e-01
9.99400497e-01
9.99447780e-01
9.99495726e-01
9.99544217e-01
9.99593144e-01
9.99642407e-01
9.99691923e-01
9.99741620e-01
9.99791445e-01
9.99841358e-01
9.99891339e-01
9.99941381e-01
9.99991490e-01
1.00004169e+00
1.00009200e+00
1.00014246e+00
1.00019310e+00
1.00024395e+00
1.00029504e+00
1.00034637e+00
1.00039794e+00
1.00044972e+00
1.00050166e+00
1.00055369e+00
1.00060572e+00
1.00065762e+00
1.00070929e+00
1.00076056e+00
1.00081130e+00
1.00086136e+00
1.00091061e+00
1.00095891e+00
1.00100617e+00
1.00105229e+00
1.00109721e+00
1.00114089e+00
1.00118330e+00
1.00122443e+00
1.00126428e+00
1.00130285e+00
1.00134014e+00
1.00137614e+00
1.00141082e+00
1.00144412e+00
1.00147598e+00
1.00150627e+00
1.00153488e+00
1.00156162e+00
1.00158629e+00
1.00160866e+00
1.00162844e+00
1.00164536e+00
1.00165906e+00
1.00166921e+00
1.00167545e+00
1.00167741e+00
1.00167472e+00
1.00166706e+00
1.00165411e+00
1.00163565e+00
1.00161148e+00
1.00158154e+00
1.00154585e+00
1.00150458e+00
1.00145803e+00
1.00140668e+00
1.00135119e+00
1.00129238e+00
1.00123129e+00
1.00116907e+00
1.00110707e+00
1.00104674e+00
1.00098961e+00
1.00093722e+00
1.00089111e+00
1.00085268e+00
1.00082313e+00
1.00080349e+00
1.00079483e+00
9.99198816e-01
9.99196778e-01
9.99190686e-01
9.99180995e-01
9.99167893e-01
9.99151608e-01
9.99132457e-01
9.99110799e-01
9.99087009e-01
9.99061529e-01
9.99034828e-01
9.99007379e-01
9.98979686e-01
9.98952268e-01
9.98925603e-01
9.98900150e-01
9.98876330e-01
9.98854505e-01
9.98834968e-01
9.98817946e-01
9.98803597e-01
9.98792006e-01
9.98783199e-01
9.98777150e-01
9.98773791e-01
9.98773028e-01
9.98774750e-01
9.98778844e-01
9.98785203e-01
9.98793734e-01
9.98804359e-01
9.98817025e-01
9.98831695e-01
9.98848352e-01
9.98866994e-01
9.98887629e-01
9.98910269e-01
9.98934929e-01
9.98961622e-01
9.98990350e-01
9.99021107e-01
9.99053875e-01
9.99088620e-01
9.99125292e-01
9.99163826e-01
9.99204142e-01
9.99246144e-01
9.99289722e-01
9.99334757e-01
9.99381121e-01
9.99428678e-01
9.99477291e-01
9.99526822e-01
9.99577137e-01
9.99628106e-01
9.99679608e-01
9.99731536e-01
9.99783792e-01
9.99836295e-01
9.99888978e-01
9.99941789e-01
9.99994691e-01
1.00004766e+00
1.00010069e+00
1.00015376e+00