# vtk DataFile Version 2.0
LBM Flow Field - Timestep 2820
ASCII
DATASET STRUCTURED_POINTS
DIMENSIONS 128 128 1
ORIGIN 0.0 0.0 0.0
SPACING 1.0 1.0 1.0
POINT_DATA 16384
SCALARS density double 1
LOOKUP_TABLE default
9.96780926e-01
9.96774065e-01
9.96767732e-01
9.96773621e-01
9.96781653e-01
9.96790088e-01
9.96801666e-01
9.96816420e-01
9.96833071e-01
9.96851862e-01
9.96873182e-01
9.96896846e-01
9.96922693e-01
9.96950809e-01
9.96981200e-01
9.97013788e-01
9.97048532e-01
9.97085418e-01
9.97124398e-01
9.97165421e-01
9.97208441e-01
9.97253413e-01
9.97300282e-01
9.97348995e-01
9.97399500e-01
9.97451743e-01
9.97505671e-01
9.97561231e-01
9.97618371e-01
9.97677042e-01
9.97737193e-01
9.97798779e-01
9.97861755e-01
9.97926076e-01
9.97991701e-01
9.98058590e-01
9.98126702e-01
9.98196001e-01
9.98266446e-01
9.98337999e-01
9.98410623e-01
9.98484277e-01
9.98558920e-01
9.98634510e-01
9.98711003e-01
9.98788355e-01
9.98866519e-01
9.98945446e-01
9.99025090e-01
9.99105400e-01
9.99186329e-01
9.99267829e-01
9.99349855e-01
9.99432365e-01
9.99515318e-01
9.99598680e-01
9.99682420e-01
9.99766514e-01
9.99850942e-01
9.99935692e-01
1.00002076e+00
1.00010613e+00
1.00019183e+00
1.00027785e+00
1.00036421e+00
1.00045093e+00
1.00053803e+00
1.00062552e+00
1.00071343e+00
1.00080176e+00
1.00089053e+00
1.00097976e+00
1.00106943e+00
1.00115955e+00
1.00125009e+00
1.00134103e+00
1.00143235e+00
1.00152398e+00
1.00161588e+00
1.00170798e+00
1.00180020e+00
1.00189245e+00
1.00198464e+00
1.00207666e+00
1.00216839e+00
1.00225973e+00
1.00235054e+00
1.00244069e+00
1.00253005e+00
1.00261850e+00
1.00270589e+00
1.00279210e+00
1.00287699e+00
1.00296043e+00
1.00304231e+00
1.00312249e+00
1.00320087e+00
1.00327734e+00
1.00335179e+00
1.00342414e+00
1.00349429e+00
1.00356215e+00
1.00362767e+00
1.00369078e+00
1.00375141e+00
1.00380952e+00
1.00386507e+00
1.00391802e+00
1.00396834e+00
1.00401602e+00
1.00406105e+00
1.00410341e+00
1.00414309e+00
1.00418012e+00
1.00421451e+00
1.00424622e+00
1.00427530e+00
1.00430186e+00
1.00432581e+00
1.00434702e+00
1.00436587e+00
1.00438256e+00
1.00439611e+00
1.00440657e+00
1.00441595e+00
1.00442276e+00
1.00442031e+00
1.00441681e+00
9.96774493e-01
9.96773971e-01
9.96771708e-01
9.96776583e-01
9.96783782e-01
9.96793095e-01
9.96804814e-01
9.96819266e-01
9.96835965e-01
9.96854955e-01
9.96876260e-01
9.96899895e-01
9.96925785e-01
9.96953926e-01
9.96984290e-01
9.97016854e-01
9.97051576e-01
9.97088421e-01
9.97127347e-01
9.97168312e-01
9.97211267e-01
9.97256166e-01
9.97302956e-01
9.97351587e-01
9.97402007e-01
9.97454163e-01
9.97508003e-01
9.97563475e-01
9.97620528e-01
9.97679114e-01
9.97739183e-01
9.97800691e-01
9.97863591e-01
9.97927842e-01
9.97993401e-01
9.98060227e-01
9.98128283e-01
9.98197527e-01
9.98267923e-01
9.98339432e-01
9.98412013e-01
9.98485627e-01
9.98560233e-01
9.98635788e-01
9.98712247e-01
9.98789567e-01
9.98867699e-01
9.98946596e-01
9.99026209e-01
9.99106490e-01
9.99187390e-01
9.99268862e-01
9.99350861e-01
9.99433345e-01
9.99516274e-01
9.99599613e-01
9.99683332e-01
9.99767406e-01
9.99851816e-01
9.99936549e-01
1.00002160e+00
1.00010696e+00
1.00019264e+00
1.00027865e+00
1.00036500e+00
1.00045170e+00
1.00053878e+00
1.00062625e+00
1.00071413e+00
1.00080243e+00
1.00089116e+00
1.00098034e+00
1.00106996e+00
1.00116001e+00
1.00125048e+00
1.00134134e+00
1.00143257e+00
1.00152410e+00
1.00161589e+00
1.00170787e+00
1.00179997e+00
1.00189209e+00
1.00198413e+00
1.00207601e+00
1.00216759e+00
1.00225878e+00
1.00234943e+00
1.00243942e+00
1.00252863e+00
1.00261692e+00
1.00270416e+00
1.00279021e+00
1.00287495e+00
1.00295824e+00
1.00303997e+00
1.00312001e+00
1.00319826e+00
1.00327460e+00
1.00334892e+00
1.00342115e+00
1.00349118e+00
1.00355894e+00
1.00362436e+00
1.00368737e+00
1.00374791e+00
1.00380595e+00
1.00386142e+00
1.00391431e+00
1.00396458e+00
1.00401222e+00
1.00405721e+00
1.00409954e+00
1.00413921e+00
1.00417624e+00
1.00421061e+00
1.00424235e+00
1.00427148e+00
1.00429803e+00
1.00432198e+00
1.00434336e+00
1.00436226e+00
1.00437870e+00
1.00439236e+00
1.00440342e+00
1.00441224e+00
1.00441844e+00
1.00441904e+00
1.00441991e+00
9.96767986e-01
9.96771380e-01
9.96777633e-01
9.96780300e-01
9.96785881e-01
9.96796476e-01
9.96808801e-01
9.96822734e-01
9.96839396e-01
9.96858630e-01
9.96879947e-01
9.96903500e-01
9.96929406e-01
9.96957553e-01
9.96987871e-01
9.97020380e-01
9.97055051e-01
9.97091828e-01
9.97130671e-01
9.97171546e-01
9.97214404e-01
9.97259197e-01
9.97305875e-01
9.97354389e-01
9.97404688e-01
9.97456721e-01
9.97510436e-01
9.97565783e-01
9.97622713e-01
9.97681177e-01
9.97741128e-01
9.97802521e-01
9.97865311e-01
9.97929457e-01
9.97994916e-01
9.98061650e-01
9.98129618e-01
9.98198782e-01
9.98269104e-01
9.98340543e-01
9.98413062e-01
9.98486619e-01
9.98561172e-01
9.98636680e-01
9.98713098e-01
9.98790379e-01
9.98868477e-01
9.98947344e-01
9.99026931e-01
9.99107189e-01
9.99188070e-01
9.99269526e-01
9.99351513e-01
9.99433988e-01
9.99516912e-01
9.99600250e-01
9.99683970e-01
9.99768049e-01
9.99852468e-01
9.99937211e-01
1.00002227e+00
1.00010765e+00
1.00019335e+00
1.00027937e+00
1.00036573e+00
1.00045245e+00
1.00053953e+00
1.00062701e+00
1.00071488e+00
1.00080318e+00
1.00089190e+00
1.00098105e+00
1.00107064e+00
1.00116065e+00
1.00125107e+00
1.00134187e+00
1.00143302e+00
1.00152447e+00
1.00161617e+00
1.00170805e+00
1.00180003e+00
1.00189202e+00
1.00198394e+00
1.00207567e+00
1.00216711e+00
1.00225814e+00
1.00234863e+00
1.00243846e+00
1.00252751e+00
1.00261563e+00
1.00270270e+00
1.00278858e+00
1.00287315e+00
1.00295627e+00
1.00303784e+00
1.00311771e+00
1.00319580e+00
1.00327197e+00
1.00334615e+00
1.00341822e+00
1.00348810e+00
1.00355572e+00
1.00362100e+00
1.00368388e+00
1.00374430e+00
1.00380221e+00
1.00385757e+00
1.00391035e+00
1.00396053e+00
1.00400807e+00
1.00405298e+00
1.00409524e+00
1.00413486e+00
1.00417183e+00
1.00420615e+00
1.00423789e+00
1.00426702e+00
1.00429348e+00
1.00431742e+00
1.00433900e+00
1.00435784e+00
1.00437384e+00
1.00438793e+00
1.00439995e+00
1.00440754e+00
1.00441231e+00
1.00441885e+00
1.00442264e+00
9.96772399e-01
9.96774450e-01
9.96778638e-01
9.96783228e-01
9.96790939e-01
9.96800706e-01
9.96812576e-01
9.96827018e-01
9.96843859e-01
9.96862874e-01
9.96884177e-01
9.96907799e-01
9.96933655e-01
9.96961718e-01
9.96991989e-01
9.97024434e-01
9.97059009e-01
9.97095682e-01
9.97134419e-01
9.97175173e-01
9.97217899e-01
9.97262554e-01
9.97309088e-01
9.97357452e-01
9.97407596e-01
9.97459472e-01
9.97513028e-01
9.97568217e-01
9.97624988e-01
9.97683296e-01
9.97743095e-01
9.97804338e-01
9.97866985e-01
9.97930992e-01
9.97996319e-01
9.98062927e-01
9.98130777e-01
9.98199829e-01
9.98270046e-01
9.98341389e-01
9.98413818e-01
9.98487292e-01
9.98561771e-01
9.98637211e-01
9.98713568e-01
9.98790795e-01
9.98868846e-01
9.98947673e-01
9.99027227e-01
9.99107459e-01
9.99188320e-01
9.99269765e-01
9.99351746e-01
9.99434223e-01
9.99517155e-01
9.99600508e-01
9.99684251e-01
9.99768359e-01
9.99852811e-01
9.99937594e-01
1.00002270e+00
1.00010812e+00
1.00019387e+00
1.00027994e+00
1.00036636e+00
1.00045312e+00
1.00054026e+00
1.00062777e+00
1.00071568e+00
1.00080401e+00
1.00089275e+00
1.00098192e+00
1.00107151e+00
1.00116151e+00
1.00125190e+00
1.00134267e+00
1.00143377e+00
1.00152515e+00
1.00161677e+00
1.00170855e+00
1.00180042e+00
1.00189230e+00
1.00198408e+00
1.00207567e+00
1.00216696e+00
1.00225782e+00
1.00234815e+00
1.00243780e+00
1.00252666e+00
1.00261459e+00
1.00270146e+00
1.00278715e+00
1.00287152e+00
1.00295445e+00
1.00303581e+00
1.00311549e+00
1.00319338e+00
1.00326936e+00
1.00334334e+00
1.00341522e+00
1.00348493e+00
1.00355236e+00
1.00361747e+00
1.00368018e+00
1.00374043e+00
1.00379818e+00
1.00385340e+00
1.00390604e+00
1.00395608e+00
1.00400350e+00
1.00404829e+00
1.00409045e+00
1.00412996e+00
1.00416685e+00
1.00420112e+00
1.00423276e+00
1.00426183e+00
1.00428833e+00
1.00431223e+00
1.00433360e+00
1.00435254e+00
1.00436892e+00
1.00438265e+00
1.00439402e+00
1.00440310e+00
1.00440937e+00
1.00441469e+00
1.00441759e+00
9.96777644e-01
9.96778905e-01
9.96781369e-01
9.96788008e-01
9.96796308e-01
9.96805307e-01
9.96817384e-01
9.96832240e-01
9.96848960e-01
9.96867829e-01
9.96889185e-01
9.96912802e-01
9.96938558e-01
9.96966537e-01
9.96996735e-01
9.97029074e-01
9.97063523e-01
9.97100066e-01
9.97138661e-01
9.97179258e-01
9.97221819e-01
9.97266301e-01
9.97312654e-01
9.97360830e-01
9.97410784e-01
9.97462464e-01
9.97515824e-01
9.97570816e-01
9.97627391e-01
9.97685505e-01
9.97745113e-01
9.97806171e-01
9.97868636e-01
9.97932469e-01
9.97997629e-01
9.98064077e-01
9.98131774e-01
9.98200683e-01
9.98270765e-01
9.98341981e-01
9.98414293e-01
9.98487661e-01
9.98562041e-01
9.98637392e-01
9.98713669e-01
9.98790827e-01
9.98868818e-01
9.98947594e-01
9.99027108e-01
9.99107309e-01
9.99188151e-01
9.99269585e-01
9.99351568e-01
9.99434056e-01
9.99517010e-01
9.99600395e-01
9.99684180e-01
9.99768339e-01
9.99852851e-01
9.99937702e-01
1.00002288e+00
1.00010839e+00
1.00019422e+00
1.00028038e+00
1.00036689e+00
1.00045374e+00
1.00054096e+00
1.00062856e+00
1.00071655e+00
1.00080494e+00
1.00089374e+00
1.00098296e+00
1.00107258e+00
1.00116260e+00
1.00125299e+00
1.00134375e+00
1.00143481e+00
1.00152615e+00
1.00161770e+00
1.00170940e+00
1.00180117e+00
1.00189292e+00
1.00198457e+00
1.00207601e+00
1.00216713e+00
1.00225782e+00
1.00234795e+00
1.00243741e+00
1.00252606e+00
1.00261377e+00
1.00270043e+00
1.00278588e+00
1.00287002e+00
1.00295272e+00
1.00303385e+00
1.00311329e+00
1.00319094e+00
1.00326669e+00
1.00334044e+00
1.00341210e+00
1.00348157e+00
1.00354879e+00
1.00361368e+00
1.00367618e+00
1.00373624e+00
1.00379380e+00
1.00384882e+00
1.00390128e+00
1.00395115e+00
1.00399841e+00
1.00404306e+00
1.00408507e+00
1.00412446e+00
1.00416123e+00
1.00419540e+00
1.00422694e+00
1.00425589e+00
1.00428236e+00
1.00430627e+00
1.00432748e+00
1.00434630e+00
1.00436297e+00
1.00437678e+00
1.00438758e+00
1.00439719e+00
1.00440487e+00
1.00440888e+00
1.00441133e+00
9.96782068e-01
9.96784128e-01
9.96787800e-01
9.96793596e-01
9.96801096e-01
9.96811191e-01
9.96823664e-01
9.96837983e-01
9.96854631e-01
9.96873738e-01
9.96895023e-01
9.96918457e-01
9.96944155e-01
9.96972073e-01
9.97002131e-01
9.97034321e-01
9.97068631e-01
9.97105014e-01
9.97143426e-01
9.97183834e-01
9.97226198e-01
9.97270469e-01
9.97316604e-01
9.97364557e-01
9.97414281e-01
9.97465729e-01
9.97518854e-01
9.97573610e-01
9.97629951e-01
9.97687833e-01
9.97747211e-01
9.97808045e-01
9.97870293e-01
9.97933915e-01
9.97998871e-01
9.98065124e-01
9.98132636e-01
9.98201369e-01
9.98271285e-01
9.98342347e-01
9.98414515e-01
9.98487750e-01
9.98562009e-01
9.98637251e-01
9.98713431e-01
9.98790503e-01
9.98868422e-01
9.98947138e-01
9.99026605e-01
9.99106773e-01
9.99187594e-01
9.99269023e-01
9.99351013e-01
9.99433522e-01
9.99516511e-01
9.99599945e-01
9.99683791e-01
9.99768024e-01
9.99852621e-01
9.99937569e-01
1.00002285e+00
1.00010847e+00
1.00019442e+00
1.00028071e+00
1.00036734e+00
1.00045432e+00
1.00054166e+00
1.00062938e+00
1.00071748e+00
1.00080598e+00
1.00089487e+00
1.00098416e+00
1.00107384e+00
1.00116390e+00
1.00125433e+00
1.00134509e+00
1.00143614e+00
1.00152744e+00
1.00161893e+00
1.00171055e+00
1.00180222e+00
1.00189386e+00
1.00198537e+00
1.00207665e+00
1.00216759e+00
1.00225809e+00
1.00234801e+00
1.00243725e+00
1.00252567e+00
1.00261314e+00
1.00269954e+00
1.00278474e+00
1.00286862e+00
1.00295105e+00
1.00303191e+00
1.00311108e+00
1.00318846e+00
1.00326394e+00
1.00333742e+00
1.00340881e+00
1.00347802e+00
1.00354498e+00
1.00360962e+00
1.00367187e+00
1.00373169e+00
1.00378901e+00
1.00384381e+00
1.00389606e+00
1.00394573e+00
1.00399279e+00
1.00403724e+00
1.00407909e+00
1.00411832e+00
1.00415493e+00
1.00418894e+00
1.00422040e+00
1.00424926e+00
1.00427553e+00
1.00429934e+00
1.00432070e+00
1.00433942e+00
1.00435562e+00
1.00436969e+00
1.00438129e+00
1.00439030e+00
1.00439733e+00
1.00440222e+00
1.00440521e+00
9.96788541e-01
9.96790586e-01
9.96794718e-01
9.96799994e-01
9.96807653e-01
9.96818128e-01
9.96830310e-01
9.96844559e-01
9.96861381e-01
9.96880417e-01
9.96901522e-01
9.96924890e-01
9.96950519e-01
9.96978285e-01
9.97008179e-01
9.97040217e-01
9.97074351e-01
9.97110532e-01
9.97148733e-01
9.97188922e-01
9.97231051e-01
9.97275077e-01
9.97320959e-01
9.97368652e-01
9.97418109e-01
9.97469287e-01
9.97522140e-01
9.97576622e-01
9.97632691e-01
9.97690303e-01
9.97749416e-01
9.97809989e-01
9.97871982e-01
9.97935357e-01
9.98000075e-01
9.98066099e-01
9.98133393e-01
9.98201919e-01
9.98271640e-01
9.98342519e-01
9.98414517e-01
9.98487595e-01
9.98561711e-01
9.98636823e-01
9.98712889e-01
9.98789861e-01
9.98867695e-01
9.98946343e-01
9.99025756e-01
9.99105887e-01
9.99186689e-01
9.99268114e-01
9.99350117e-01
9.99432657e-01
9.99515693e-01
9.99599190e-01
9.99683115e-01
9.99767443e-01
9.99852149e-01
9.99937218e-01
1.00002264e+00
1.00010840e+00
1.00019450e+00
1.00028094e+00
1.00036773e+00
1.00045487e+00
1.00054236e+00
1.00063023e+00
1.00071848e+00
1.00080711e+00
1.00089612e+00
1.00098551e+00
1.00107528e+00
1.00116541e+00
1.00125588e+00
1.00134666e+00
1.00143772e+00
1.00152899e+00
1.00162044e+00
1.00171198e+00
1.00180355e+00
1.00189507e+00
1.00198643e+00
1.00207754e+00
1.00216830e+00
1.00225858e+00
1.00234829e+00
1.00243728e+00
1.00252544e+00
1.00261265e+00
1.00269877e+00
1.00278369e+00
1.00286727e+00
1.00294939e+00
1.00302995e+00
1.00310882e+00
1.00318589e+00
1.00326106e+00
1.00333423e+00
1.00340532e+00
1.00347423e+00
1.00354089e+00
1.00360524e+00
1.00366721e+00
1.00372674e+00
1.00378380e+00
1.00383834e+00
1.00389033e+00
1.00393976e+00
1.00398659e+00
1.00403082e+00
1.00407245e+00
1.00411149e+00
1.00414793e+00
1.00418176e+00
1.00421304e+00
1.00424180e+00
1.00426796e+00
1.00429157e+00
1.00431283e+00
1.00433162e+00
1.00434771e+00
1.00436155e+00
1.00437339e+00
1.00438243e+00
1.00438904e+00
1.00439420e+00
1.00439712e+00
9.96796924e-01
9.96798449e-01
9.96801954e-01
9.96807661e-01
9.96815674e-01
9.96825580e-01
9.96837677e-01
9.96852277e-01
9.96868972e-01
9.96887735e-01
9.96908818e-01
9.96932148e-01
9.96957583e-01
9.96985163e-01
9.97014912e-01
9.97046763e-01
9.97080672e-01
9.97116627e-01
9.97154594e-01
9.97194527e-01
9.97236386e-01
9.97280135e-01
9.97325730e-01
9.97373127e-01
9.97422283e-01
9.97473155e-01
9.97525700e-01
9.97579873e-01
9.97635633e-01
9.97692939e-01
9.97751750e-01
9.97812026e-01
9.97873730e-01
9.97936824e-01
9.98001270e-01
9.98067033e-01
9.98134077e-01
9.98202366e-01
9.98271863e-01
9.98342531e-01
9.98414333e-01
9.98487229e-01
9.98561180e-01
9.98636144e-01
9.98712077e-01
9.98788935e-01
9.98866671e-01
9.98945240e-01
9.99024594e-01
9.99104684e-01
9.99185464e-01
9.99266888e-01
9.99348909e-01
9.99431487e-01
9.99514581e-01
9.99598155e-01
9.99682176e-01
9.99766617e-01
9.99851453e-01
9.99936666e-01
1.00002224e+00
1.00010817e+00
1.00019445e+00
1.00028108e+00
1.00036805e+00
1.00045538e+00
1.00054307e+00
1.00063111e+00
1.00071953e+00
1.00080832e+00
1.00089748e+00
1.00098700e+00
1.00107688e+00
1.00116710e+00
1.00125764e+00
1.00134846e+00
1.00143952e+00
1.00153078e+00
1.00162218e+00
1.00171365e+00
1.00180513e+00
1.00189651e+00
1.00198772e+00
1.00207866e+00
1.00216921e+00
1.00225928e+00
1.00234873e+00
1.00243746e+00
1.00252535e+00
1.00261226e+00
1.00269808e+00
1.00278267e+00
1.00286593e+00
1.00294772e+00
1.00302794e+00
1.00310647e+00
1.00318319e+00
1.00325802e+00
1.00333085e+00
1.00340159e+00
1.00347017e+00
1.00353650e+00
1.00360052e+00
1.00366217e+00
1.00372139e+00
1.00377814e+00
1.00383239e+00
1.00388409e+00
1.00393324e+00
1.00397981e+00
1.00402379e+00
1.00406518e+00
1.00410398e+00
1.00414021e+00
1.00417387e+00
1.00420494e+00
1.00423347e+00
1.00425955e+00
1.00428309e+00
1.00430406e+00
1.00432270e+00
1.00433901e+00
1.00435272e+00
1.00436406e+00
1.00437332e+00
1.00438022e+00
1.00438483e+00
1.00438725e+00
9.96805880e-01
9.96807290e-01
9.96810606e-01
9.96816382e-01
9.96824215e-01
9.96834010e-01
9.96846257e-01
9.96860720e-01
9.96877200e-01
9.96895951e-01
9.96916965e-01
9.96940084e-01
9.96965339e-01
9.96992774e-01
9.97022321e-01
9.97053933e-01
9.97087606e-01
9.97123314e-01
9.97161007e-01
9.97200651e-01
9.97242213e-01
9.97285653e-01
9.97330927e-01
9.97377995e-01
9.97426816e-01
9.97477348e-01
9.97529549e-01
9.97583379e-01
9.97638796e-01
9.97695761e-01
9.97754235e-01
9.97814181e-01
9.97875561e-01
9.97938340e-01
9.98002482e-01
9.98067952e-01
9.98134715e-01
9.98202737e-01
9.98271981e-01
9.98342411e-01
9.98413992e-01
9.98486684e-01
9.98560448e-01
9.98635243e-01
9.98711027e-01
9.98787755e-01
9.98865382e-01
9.98943862e-01
9.99023148e-01
9.99103194e-01
9.99183951e-01
9.99265374e-01
9.99347418e-01
9.99430040e-01
9.99513202e-01
9.99596865e-01
9.99680996e-01
9.99765567e-01
9.99850552e-01
9.99935931e-01
1.00002169e+00
1.00010781e+00
1.00019429e+00
1.00028113e+00
1.00036832e+00
1.00045587e+00
1.00054377e+00
1.00063202e+00
1.00072064e+00
1.00080961e+00
1.00089894e+00
1.00098862e+00
1.00107863e+00
1.00116895e+00
1.00125957e+00
1.00135044e+00
1.00144152e+00
1.00153278e+00
1.00162414e+00
1.00171554e+00
1.00180691e+00
1.00189816e+00
1.00198921e+00
1.00207996e+00
1.00217030e+00
1.00226012e+00
1.00234932e+00
1.00243776e+00
1.00252534e+00
1.00261194e+00
1.00269742e+00
1.00278167e+00
1.00286457e+00
1.00294600e+00
1.00302584e+00
1.00310399e+00
1.00318034e+00
1.00325479e+00
1.00332724e+00
1.00339761e+00
1.00346581e+00
1.00353178e+00
1.00359543e+00
1.00365672e+00
1.00371560e+00
1.00377201e+00
1.00382593e+00
1.00387731e+00
1.00392615e+00
1.00397243e+00
1.00401613e+00
1.00405725e+00
1.00409579e+00
1.00413176e+00
1.00416520e+00
1.00419608e+00
1.00422441e+00
1.00425026e+00
1.00427367e+00
1.00429457e+00
1.00431297e+00
1.00432912e+00
1.00434287e+00
1.00435407e+00
1.00436313e+00
1.00437001e+00
1.00437438e+00
1.00437665e+00
9.96815581e-01
9.96817019e-01
9.96820449e-01
9.96825920e-01
9.96833540e-01
9.96843525e-01
9.96855673e-01
9.96869848e-01
9.96886311e-01
9.96905023e-01
9.96925805e-01
9.96948729e-01
9.96973850e-01
9.97001078e-01
9.97030370e-01
9.97061740e-01
9.97095161e-01
9.97130581e-01
9.97167970e-01
9.97207302e-01
9.97248538e-01
9.97291635e-01
9.97336557e-01
9.97383265e-01
9.97431719e-01
9.97481878e-01
9.97533704e-01
9.97587156e-01
9.97642197e-01
9.97698788e-01
9.97756892e-01
9.97816474e-01
9.97877499e-01
9.97939931e-01
9.98003737e-01
9.98068883e-01
9.98135336e-01
9.98203061e-01
9.98272025e-01
9.98342192e-01
9.98413527e-01
9.98485992e-01
9.98559548e-01
9.98634155e-01
9.98709772e-01
9.98786355e-01
9.98863860e-01
9.98942242e-01
9.99021453e-01
9.99101448e-01
9.99182180e-01
9.99263603e-01
9.99345673e-01
9.99428346e-01
9.99511583e-01
9.99595346e-01
9.99679601e-01
9.99764317e-01
9.99849469e-01
9.99935033e-01
1.00002099e+00
1.00010733e+00
1.00019404e+00
1.00028111e+00
1.00036854e+00
1.00045633e+00
1.00054447e+00
1.00063296e+00
1.00072179e+00
1.00081098e+00
1.00090050e+00
1.00099034e+00
1.00108050e+00
1.00117095e+00
1.00126165e+00
1.00135259e+00
1.00144370e+00
1.00153495e+00
1.00162628e+00
1.00171761e+00
1.00180887e+00
1.00189999e+00
1.00199087e+00
1.00208141e+00
1.00217152e+00
1.00226109e+00
1.00235000e+00
1.00243814e+00
1.00252539e+00
1.00261164e+00
1.00269676e+00
1.00278064e+00
1.00286315e+00
1.00294419e+00
1.00302363e+00
1.00310137e+00
1.00317731e+00
1.00325135e+00
1.00332339e+00
1.00339335e+00
1.00346114e+00
1.00352670e+00
1.00358997e+00
1.00365087e+00
1.00370936e+00
1.00376541e+00
1.00381896e+00
1.00387000e+00
1.00391850e+00
1.00396445e+00
1.00400784e+00
1.00404866e+00
1.00408693e+00
1.00412264e+00
1.00415579e+00
1.00418645e+00
1.00421460e+00
1.00424021e+00
1.00426337e+00
1.00428417e+00
1.00430249e+00
1.00431834e+00
1.00433194e+00
1.00434323e+00
1.00435206e+00
1.00435862e+00
1.00436303e+00
1.00436526e+00
9.96826380e-01
9.96827655e-01
9.96830976e-01
9.96836348e-01
9.96843954e-01
9.96853825e-01
9.96865765e-01
9.96879903e-01
9.96896288e-01
9.96914766e-01
9.96935370e-01
9.96958162e-01
9.96983063e-01
9.97010029e-01
9.97039082e-01
9.97070195e-01
9.97103317e-01
9.97138422e-01
9.97175491e-01
9.97214483e-01
9.97255359e-01
9.97298087e-01
9.97342629e-01
9.97388947e-01
9.97437003e-01
9.97486759e-01
9.97538178e-01
9.97591222e-01
9.97645854e-01
9.97702040e-01
9.97759744e-01
9.97818931e-01
9.97879568e-01
9.97941623e-01
9.98005063e-01
9.98069856e-01
9.98135970e-01
9.98203372e-01
9.98272029e-01
9.98341907e-01
9.98412972e-01
9.98485187e-01
9.98558514e-01
9.98632916e-01
9.98708349e-01
9.98784773e-01
9.98862144e-01
9.98940417e-01
9.99019546e-01
9.99099485e-01
9.99180189e-01
9.99261612e-01
9.99343709e-01
9.99426438e-01
9.99509758e-01
9.99593630e-01
9.99678020e-01
9.99762896e-01
9.99848230e-01
9.99933997e-01
1.00002018e+00
1.00010675e+00
1.00019371e+00
1.00028104e+00
1.00036873e+00
1.00045678e+00
1.00054518e+00
1.00063392e+00
1.00072300e+00
1.00081241e+00
1.00090214e+00
1.00099217e+00
1.00108249e+00
1.00117307e+00
1.00126388e+00
1.00135488e+00
1.00144603e+00
1.00153728e+00
1.00162857e+00
1.00171983e+00
1.00181098e+00
1.00190195e+00
1.00199265e+00
1.00208298e+00
1.00217285e+00
1.00226214e+00
1.00235075e+00
1.00243856e+00
1.00252546e+00
1.00261134e+00
1.00269607e+00
1.00277955e+00
1.00286164e+00
1.00294225e+00
1.00302126e+00
1.00309856e+00
1.00317406e+00
1.00324765e+00
1.00331925e+00
1.00338876e+00
1.00345612e+00
1.00352125e+00
1.00358409e+00
1.00364457e+00
1.00370265e+00
1.00375830e+00
1.00381146e+00
1.00386212e+00
1.00391026e+00
1.00395586e+00
1.00399891e+00
1.00403941e+00
1.00407737e+00
1.00411279e+00
1.00414568e+00
1.00417605e+00
1.00420395e+00
1.00422939e+00
1.00425233e+00
1.00427287e+00
1.00429106e+00
1.00430681e+00
1.00432018e+00
1.00433131e+00
1.00434006e+00
1.00434648e+00
1.00435074e+00
1.00435277e+00
9.96838040e-01
9.96839157e-01
9.96842303e-01
9.96847669e-01
9.96855213e-01
9.96864862e-01
9.96876711e-01
9.96890796e-01
9.96906964e-01
9.96925247e-01
9.96945720e-01
9.96968298e-01
9.96992934e-01
9.97019662e-01
9.97048458e-01
9.97079266e-01
9.97112068e-01
9.97146849e-01
9.97183568e-01
9.97222189e-01
9.97262683e-01
9.97305017e-01
9.97349151e-01
9.97395051e-01
9.97442681e-01
9.97492005e-01
9.97542988e-01
9.97595595e-01
9.97649790e-01
9.97705541e-01
9.97762813e-01
9.97821576e-01
9.97881798e-01
9.97943446e-01
9.98006492e-01
9.98070904e-01
9.98136651e-01
9.98203703e-01
9.98272028e-01
9.98341593e-01
9.98412366e-01
9.98484310e-01
9.98557389e-01
9.98631566e-01
9.98706800e-01
9.98783050e-01
9.98860275e-01
9.98938429e-01
9.99017468e-01
9.99097346e-01
9.99178019e-01
9.99259441e-01
9.99341567e-01
9.99424355e-01
9.99507763e-01
9.99591753e-01
9.99676288e-01
9.99761335e-01
9.99846864e-01
9.99932849e-01
1.00001926e+00
1.00010609e+00
1.00019332e+00
1.00028092e+00
1.00036889e+00
1.00045722e+00
1.00054590e+00
1.00063491e+00
1.00072425e+00
1.00081391e+00
1.00090386e+00
1.00099409e+00
1.00108459e+00
1.00117531e+00
1.00126623e+00
1.00135731e+00
1.00144850e+00
1.00153974e+00
1.00163099e+00
1.00172217e+00
1.00181321e+00
1.00190403e+00
1.00199453e+00
1.00208464e+00
1.00217424e+00
1.00226324e+00
1.00235152e+00
1.00243899e+00
1.00252552e+00
1.00261100e+00
1.00269532e+00
1.00277836e+00
1.00286001e+00
1.00294017e+00
1.00301871e+00
1.00309555e+00
1.00317057e+00
1.00324369e+00
1.00331481e+00
1.00338385e+00
1.00345074e+00
1.00351541e+00
1.00357779e+00
1.00363783e+00
1.00369547e+00
1.00375069e+00
1.00380344e+00
1.00385370e+00
1.00390144e+00
1.00394666e+00
1.00398936e+00
1.00402952e+00
1.00406714e+00
1.00410224e+00
1.00413485e+00
1.00416495e+00
1.00419256e+00
1.00421775e+00
1.00424052e+00
1.00426082e+00
1.00427876e+00
1.00429440e+00
1.00430763e+00
1.00431851e+00
1.00432715e+00
1.00433352e+00
1.00433757e+00
1.00433942e+00
9.96850383e-01
9.96851444e-01
9.96854524e-01
9.96859777e-01
9.96867178e-01
9.96876737e-01
9.96888496e-01
9.96902379e-01
9.96918366e-01
9.96936517e-01
9.96956775e-01
9.96979092e-01
9.97003497e-01
9.97029971e-01
9.97058459e-01
9.97088948e-01
9.97121426e-01
9.97155853e-01
9.97192194e-01
9.97230426e-01
9.97270517e-01
9.97312429e-01
9.97356130e-01
9.97401587e-01
9.97448766e-01
9.97497632e-01
9.97548153e-01
9.97600294e-01
9.97654025e-01
9.97709313e-01
9.97766128e-01
9.97824439e-01
9.97884217e-01
9.97945433e-01
9.98008057e-01
9.98072061e-01
9.98137417e-01
9.98204094e-01
9.98272063e-01
9.98341292e-01
9.98411750e-01
9.98483403e-01
9.98556215e-01
9.98630149e-01
9.98705168e-01
9.98781232e-01
9.98858297e-01
9.98936323e-01
9.99015263e-01
9.99095075e-01
9.99175713e-01
9.99257132e-01
9.99339288e-01
9.99422138e-01
9.99505639e-01
9.99589753e-01
9.99674441e-01
9.99759669e-01
9.99845404e-01
9.99931619e-01
1.00001829e+00
1.00010538e+00
1.00019288e+00
1.00028078e+00
1.00036905e+00
1.00045767e+00
1.00054664e+00
1.00063594e+00
1.00072556e+00
1.00081547e+00
1.00090566e+00
1.00099610e+00
1.00108677e+00
1.00117765e+00
1.00126868e+00
1.00135984e+00
1.00145106e+00
1.00154231e+00
1.00163352e+00
1.00172461e+00
1.00181552e+00
1.00190617e+00
1.00199648e+00
1.00208634e+00
1.00217566e+00
1.00226435e+00
1.00235229e+00
1.00243938e+00
1.00252551e+00
1.00261057e+00
1.00269445e+00
1.00277704e+00
1.00285822e+00
1.00293789e+00
1.00301594e+00
1.00309228e+00
1.00316680e+00
1.00323941e+00
1.00331003e+00
1.00337857e+00
1.00344496e+00
1.00350914e+00
1.00357103e+00
1.00363060e+00
1.00368778e+00
1.00374254e+00
1.00379485e+00
1.00384468e+00
1.00389202e+00
1.00393684e+00
1.00397915e+00
1.00401894e+00
1.00405622e+00
1.00409099e+00
1.00412327e+00
1.00415309e+00
1.00418044e+00
1.00420535e+00
1.00422786e+00
1.00424799e+00
1.00426572e+00
1.00428112e+00
1.00429421e+00
1.00430496e+00
1.00431343e+00
1.00431964e+00
1.00432358e+00
1.00432535e+00
9.96863476e-01
9.96864481e-01
9.96867507e-01
9.96872631e-01
9.96879916e-01
9.96889392e-01
9.96900989e-01
9.96914686e-01
9.96930532e-01
9.96948487e-01
9.96968493e-01
9.96990582e-01
9.97014739e-01
9.97040910e-01
9.97069084e-01
9.97099252e-01
9.97131377e-01
9.97165424e-01
9.97201375e-01
9.97239199e-01
9.97278861e-01
9.97320330e-01
9.97363577e-01
9.97408569e-01
9.97455272e-01
9.97503656e-01
9.97553690e-01
9.97605343e-01
9.97658584e-01
9.97713385e-01
9.97769716e-01
9.97827550e-01
9.97886859e-01
9.97947616e-01
9.98009794e-01
9.98073366e-01
9.98138306e-01
9.98204585e-01
9.98272175e-01
9.98341047e-01
9.98411170e-01
9.98482511e-01
9.98555038e-01
9.98628714e-01
9.98703503e-01
9.98779365e-01
9.98856260e-01
9.98934147e-01
9.99012981e-01
9.99092720e-01
9.99173319e-01
9.99254732e-01
9.99336917e-01
9.99419830e-01
9.99503427e-01
9.99587669e-01
9.99672517e-01
9.99757933e-01
9.99843884e-01
9.99930338e-01
1.00001727e+00
1.00010464e+00
1.00019244e+00
1.00028063e+00
1.00036921e+00
1.00045814e+00
1.00054742e+00
1.00063702e+00
1.00072691e+00
1.00081709e+00
1.00090752e+00
1.00099818e+00
1.00108904e+00
1.00118007e+00
1.00127122e+00
1.00136245e+00
1.00145371e+00
1.00154495e+00
1.00163611e+00
1.00172711e+00
1.00181789e+00
1.00190836e+00
1.00199845e+00
1.00208805e+00
1.00217707e+00
1.00226543e+00
1.00235301e+00
1.00243971e+00
1.00252542e+00
1.00261004e+00
1.00269345e+00
1.00277555e+00
1.00285623e+00
1.00293539e+00
1.00301293e+00
1.00308874e+00
1.00316273e+00
1.00323481e+00
1.00330490e+00
1.00337291e+00
1.00343878e+00
1.00350244e+00
1.00356382e+00
1.00362289e+00
1.00367958e+00
1.00373387e+00
1.00378571e+00
1.00383509e+00
1.00388200e+00
1.00392640e+00
1.00396831e+00
1.00400772e+00
1.00404463e+00
1.00407906e+00
1.00411101e+00
1.00414051e+00
1.00416758e+00
1.00419223e+00
1.00421447e+00
1.00423436e+00
1.00425191e+00
1.00426709e+00
1.00427999e+00
1.00429061e+00
1.00429893e+00
1.00430498e+00
1.00430883e+00
1.00431052e+00
9.96877320e-01
9.96878239e-01
9.96881175e-01
9.96886222e-01
9.96893413e-01
9.96902740e-01
9.96914176e-01
9.96927735e-01
9.96943394e-01
9.96961111e-01
9.96980899e-01
9.97002749e-01
9.97026612e-01
9.97052477e-01
9.97080338e-01
9.97110159e-01
9.97141907e-01
9.97175567e-01
9.97211111e-01
9.97248505e-01
9.97287720e-01
9.97328729e-01
9.97371502e-01
9.97416006e-01
9.97462214e-01
9.97510095e-01
9.97559621e-01
9.97610762e-01
9.97663491e-01
9.97717781e-01
9.97773606e-01
9.97830939e-01
9.97889756e-01
9.97950031e-01
9.98011740e-01
9.98074858e-01
9.98139360e-01
9.98205219e-01
9.98272409e-01
9.98340903e-01
9.98410671e-01
9.98481683e-01
9.98553907e-01
9.98627308e-01
9.98701852e-01
9.98777500e-01
9.98854213e-01
9.98931951e-01
9.99010670e-01
9.99090329e-01
9.99170884e-01
9.99252289e-01
9.99334501e-01
9.99417476e-01
9.99501171e-01
9.99585544e-01
9.99670555e-01
9.99756165e-01
9.99842338e-01
9.99929038e-01
1.00001623e+00
1.00010390e+00
1.00019199e+00
1.00028050e+00
1.00036940e+00
1.00045865e+00
1.00054824e+00
1.00063814e+00
1.00072832e+00
1.00081877e+00
1.00090945e+00
1.00100033e+00
1.00109138e+00
1.00118256e+00
1.00127382e+00
1.00136513e+00
1.00145642e+00
1.00154765e+00
1.00163875e+00
1.00172965e+00
1.00182028e+00
1.00191056e+00
1.00200040e+00
1.00208973e+00
1.00217844e+00
1.00226645e+00
1.00235364e+00
1.00243992e+00
1.00252519e+00
1.00260934e+00
1.00269226e+00
1.00277385e+00
1.00285401e+00
1.00293263e+00
1.00300962e+00
1.00308488e+00
1.00315831e+00
1.00322984e+00
1.00329937e+00
1.00336683e+00
1.00343215e+00
1.00349526e+00
1.00355611e+00
1.00361465e+00
1.00367084e+00
1.00372462e+00
1.00377599e+00
1.00382490e+00
1.00387135e+00
1.00391532e+00
1.00395681e+00
1.00399582e+00
1.00403235e+00
1.00406642e+00
1.00409804e+00
1.00412721e+00
1.00415397e+00
1.00417835e+00
1.00420034e+00
1.00421998e+00
1.00423730e+00
1.00425231e+00
1.00426502e+00
1.00427546e+00
1.00428365e+00
1.00428959e+00
1.00429333e+00
1.00429491e+00
9.96891830e-01
9.96892684e-01
9.96895540e-01
9.96900508e-01
9.96907588e-01
9.96916771e-01
9.96928066e-01
9.96941459e-01
9.96956905e-01
9.96974409e-01
9.96993969e-01
9.97015543e-01
9.97039112e-01
9.97064675e-01
9.97092199e-01
9.97121652e-01
9.97153021e-01
9.97186280e-01
9.97221397e-01
9.97258345e-01
9.97297100e-01
9.97337632e-01
9.97379912e-01
9.97423913e-01
9.97469607e-01
9.97516966e-01
9.97565963e-01
9.97616573e-01
9.97668770e-01
9.97722530e-01
9.97777827e-01
9.97834639e-01
9.97892943e-01
9.97952716e-01
9.98013934e-01
9.98076577e-01
9.98140619e-01
9.98206038e-01
9.98272809e-01
9.98340906e-01
9.98410301e-01
9.98480966e-01
9.98552871e-01
9.98625982e-01
9.98700267e-01
9.98775687e-01
9.98852207e-01
9.98929785e-01
9.99008382e-01
9.99087954e-01
9.99168458e-01
9.99249850e-01
9.99332086e-01
9.99415122e-01
9.99498914e-01
9.99583419e-01
9.99668595e-01
9.99754402e-01
9.99840800e-01
9.99927752e-01
1.00001522e+00
1.00010318e+00
1.00019158e+00
1.00028041e+00
1.00036962e+00