# vtk DataFile Version 2.0
LBM Flow Field - Timestep 1190
ASCII
DATASET STRUCTURED_POINTS
DIMENSIONS 128 128 1
ORIGIN 0.0 0.0 0.0
SPACING 1.0 1.0 1.0
POINT_DATA 16384
SCALARS density double 1
LOOKUP_TABLE default
1.00206541e+00
1.00204446e+00
1.00201732e+00
1.00198877e+00
1.00195269e+00
1.00191153e+00
1.00186496e+00
1.00181348e+00
1.00175794e+00
1.00169867e+00
1.00163551e+00
1.00156893e+00
1.00149925e+00
1.00142649e+00
1.00135067e+00
1.00127189e+00
1.00119016e+00
1.00110542e+00
1.00101768e+00
1.00092701e+00
1.00083349e+00
1.00073731e+00
1.00063878e+00
1.00053831e+00
1.00043645e+00
1.00033384e+00
1.00023126e+00
1.00012958e+00
1.00002972e+00
9.99932653e-01
9.99839348e-01
9.99750753e-01
9.99667751e-01
9.99591142e-01
9.99521609e-01
9.99459709e-01
9.99405856e-01
9.99360314e-01
9.99323207e-01
9.99294514e-01
9.99274091e-01
9.99261676e-01
9.99256913e-01
9.99259369e-01
9.99268547e-01
9.99283913e-01
9.99304905e-01
9.99330952e-01
9.99361487e-01
9.99395959e-01
9.99433839e-01
9.99474633e-01
9.99517884e-01
9.99563175e-01
9.99610137e-01
9.99658443e-01
9.99707816e-01
9.99758022e-01
9.99808871e-01
9.99860214e-01
9.99911939e-01
9.99963964e-01
1.00001624e+00
1.00006872e+00
1.00012140e+00
1.00017424e+00
1.00022723e+00
1.00028033e+00
1.00033348e+00
1.00038657e+00
1.00043949e+00
1.00049204e+00
1.00054397e+00
1.00059500e+00
1.00064476e+00
1.00069282e+00
1.00073868e+00
1.00078182e+00
1.00082164e+00
1.00085752e+00
1.00088880e+00
1.00091485e+00
1.00093504e+00
1.00094875e+00
1.00095547e+00
1.00095472e+00
1.00094614e+00
1.00092948e+00
1.00090460e+00
1.00087153e+00
1.00083041e+00
1.00078153e+00
1.00072533e+00
1.00066235e+00
1.00059326e+00
1.00051884e+00
1.00043991e+00
1.00035737e+00
1.00027215e+00
1.00018518e+00
1.00009736e+00
1.00000959e+00
9.99922679e-01
9.99837397e-01
9.99754424e-01
9.99674351e-01
9.99597678e-01
9.99524810e-01
9.99456063e-01
9.99391648e-01
9.99331689e-01
9.99276251e-01
9.99225309e-01
9.99178737e-01
9.99136382e-01
9.99098105e-01
9.99063606e-01
9.99032522e-01
9.99004644e-01
9.98979801e-01
9.98957339e-01
9.98936983e-01
9.98918605e-01
9.98902178e-01
9.98887242e-01
9.98874938e-01
9.98859291e-01
9.98845444e-01
1.00204420e+00
1.00202615e+00
1.00199991e+00
1.00197209e+00
1.00193608e+00
1.00189571e+00
1.00184987e+00
1.00179943e+00
1.00174456e+00
1.00168596e+00
1.00162360e+00
1.00155783e+00
1.00148884e+00
1.00141678e+00
1.00134170e+00
1.00126364e+00
1.00118262e+00
1.00109863e+00
1.00101169e+00
1.00092183e+00
1.00082918e+00
1.00073392e+00
1.00063636e+00
1.00053689e+00
1.00043605e+00
1.00033448e+00
1.00023293e+00
1.00013224e+00
1.00003331e+00
9.99937101e-01
9.99844555e-01
9.99756603e-01
9.99674115e-01
9.99597884e-01
9.99528589e-01
9.99466789e-01
9.99412904e-01
9.99367209e-01
9.99329840e-01
9.99300793e-01
9.99279939e-01
9.99267035e-01
9.99261743e-01
9.99263644e-01
9.99272260e-01
9.99287067e-01
9.99307517e-01
9.99333050e-01
9.99363107e-01
9.99397144e-01
9.99434638e-01
9.99475099e-01
9.99518071e-01
9.99563141e-01
9.99609937e-01
9.99658134e-01
9.99707451e-01
9.99757651e-01
9.99808541e-01
9.99859965e-01
9.99911805e-01
9.99963974e-01
1.00001641e+00
1.00006907e+00
1.00012191e+00
1.00017492e+00
1.00022805e+00
1.00028126e+00
1.00033448e+00
1.00038760e+00
1.00044047e+00
1.00049291e+00
1.00054467e+00
1.00059545e+00
1.00064488e+00
1.00069253e+00
1.00073791e+00
1.00078051e+00
1.00081972e+00
1.00085495e+00
1.00088557e+00
1.00091093e+00
1.00093044e+00
1.00094351e+00
1.00094962e+00
1.00094835e+00
1.00093933e+00
1.00092234e+00
1.00089726e+00
1.00086411e+00
1.00082306e+00
1.00077440e+00
1.00071856e+00
1.00065609e+00
1.00058764e+00
1.00051398e+00
1.00043592e+00
1.00035433e+00
1.00027013e+00
1.00018423e+00
1.00009750e+00
1.00001083e+00
9.99925011e-01
9.99840791e-01
9.99758835e-01
9.99679723e-01
9.99603946e-01
9.99531902e-01
9.99463896e-01
9.99400141e-01
9.99340769e-01
9.99285832e-01
9.99235300e-01
9.99189083e-01
9.99147031e-01
9.99108967e-01
9.99074604e-01
9.99043702e-01
9.99015954e-01
9.98991142e-01
9.98968662e-01
9.98948589e-01
9.98930347e-01
9.98914214e-01
9.98898727e-01
9.98886785e-01
9.98871961e-01
9.98860398e-01
1.00201284e+00
1.00199497e+00
1.00197200e+00
1.00194322e+00
1.00190891e+00
1.00186917e+00
1.00182414e+00
1.00177502e+00
1.00172139e+00
1.00166367e+00
1.00160248e+00
1.00153796e+00
1.00147011e+00
1.00139917e+00
1.00132529e+00
1.00124842e+00
1.00116858e+00
1.00108581e+00
1.00100010e+00
1.00091150e+00
1.00082012e+00
1.00072617e+00
1.00062992e+00
1.00053177e+00
1.00043224e+00
1.00033196e+00
1.00023165e+00
1.00013214e+00
1.00003432e+00
9.99939106e-01
9.99847443e-01
9.99760245e-01
9.99678376e-01
9.99602620e-01
9.99533660e-01
9.99472057e-01
9.99418238e-01
9.99372492e-01
9.99334965e-01
9.99305670e-01
9.99284493e-01
9.99271208e-01
9.99265494e-01
9.99266946e-01
9.99275100e-01
9.99289448e-01
9.99309453e-01
9.99334563e-01
9.99364231e-01
9.99397917e-01
9.99435106e-01
9.99475312e-01
9.99518081e-01
9.99563001e-01
9.99609702e-01
9.99657857e-01
9.99707182e-01
9.99757438e-01
9.99808424e-01
9.99859982e-01
9.99911984e-01
9.99964334e-01
1.00001696e+00
1.00006981e+00
1.00012284e+00
1.00017601e+00
1.00022928e+00
1.00028258e+00
1.00033583e+00
1.00038893e+00
1.00044172e+00
1.00049400e+00
1.00054551e+00
1.00059597e+00
1.00064499e+00
1.00069217e+00
1.00073701e+00
1.00077900e+00
1.00081756e+00
1.00085211e+00
1.00088202e+00
1.00090669e+00
1.00092553e+00
1.00093798e+00
1.00094354e+00
1.00094180e+00
1.00093243e+00
1.00091522e+00
1.00089006e+00
1.00085699e+00
1.00081618e+00
1.00076793e+00
1.00071266e+00
1.00065093e+00
1.00058338e+00
1.00051074e+00
1.00043384e+00
1.00035352e+00
1.00027067e+00
1.00018618e+00
1.00010091e+00
1.00001572e+00
9.99931379e-01
9.99848618e-01
9.99768082e-01
9.99690337e-01
9.99615863e-01
9.99545044e-01
9.99478173e-01
9.99415468e-01
9.99357059e-01
9.99302980e-01
9.99253206e-01
9.99207682e-01
9.99166250e-01
9.99128666e-01
9.99094741e-01
9.99064304e-01
9.99036914e-01
9.99012235e-01
9.98990158e-01
9.98970451e-01
9.98952396e-01
9.98936465e-01
9.98921829e-01
9.98908385e-01
9.98896173e-01
9.98884440e-01
1.00197362e+00
1.00195555e+00
1.00193216e+00
1.00190343e+00
1.00187067e+00
1.00183229e+00
1.00178868e+00
1.00174065e+00
1.00168846e+00
1.00163239e+00
1.00157271e+00
1.00150962e+00
1.00144334e+00
1.00137399e+00
1.00130161e+00
1.00122627e+00
1.00114798e+00
1.00106673e+00
1.00098255e+00
1.00089550e+00
1.00080568e+00
1.00071329e+00
1.00061861e+00
1.00052203e+00
1.00042406e+00
1.00032530e+00
1.00022648e+00
1.00012840e+00
1.00003193e+00
9.99937973e-01
9.99847451e-01
9.99761267e-01
9.99680274e-01
9.99605249e-01
9.99536872e-01
9.99475706e-01
9.99422183e-01
9.99376600e-01
9.99339116e-01
9.99309757e-01
9.99288424e-01
9.99274909e-01
9.99268904e-01
9.99270025e-01
9.99277820e-01
9.99291798e-01
9.99311432e-01
9.99336186e-01
9.99365520e-01
9.99398905e-01
9.99435832e-01
9.99475821e-01
9.99518421e-01
9.99563224e-01
9.99609860e-01
9.99657999e-01
9.99707358e-01
9.99757690e-01
9.99808792e-01
9.99860495e-01
9.99912666e-01
9.99965199e-01
1.00001801e+00
1.00007104e+00
1.00012422e+00
1.00017751e+00
1.00023086e+00
1.00028418e+00
1.00033739e+00
1.00039037e+00
1.00044296e+00
1.00049496e+00
1.00054611e+00
1.00059610e+00
1.00064459e+00
1.00069115e+00
1.00073532e+00
1.00077659e+00
1.00081440e+00
1.00084817e+00
1.00087733e+00
1.00090127e+00
1.00091944e+00
1.00093131e+00
1.00093639e+00
1.00093430e+00
1.00092473e+00
1.00090748e+00
1.00088247e+00
1.00084975e+00
1.00080947e+00
1.00076196e+00
1.00070762e+00
1.00064699e+00
1.00058072e+00
1.00050952e+00
1.00043418e+00
1.00035554e+00
1.00027446e+00
1.00019179e+00
1.00010840e+00
1.00002508e+00
9.99942612e-01
9.99861690e-01
9.99782946e-01
9.99706927e-01
9.99634095e-01
9.99564830e-01
9.99499419e-01
9.99438064e-01
9.99380891e-01
9.99327950e-01
9.99279218e-01
9.99234606e-01
9.99193981e-01
9.99157164e-01
9.99123919e-01
9.99093989e-01
9.99067106e-01
9.99042990e-01
9.99021371e-01
9.99001895e-01
9.98984256e-01
9.98968651e-01
9.98954902e-01
9.98941278e-01
9.98928617e-01
9.98916184e-01
1.00192122e+00
1.00190354e+00
1.00188146e+00
1.00185415e+00
1.00182188e+00
1.00178489e+00
1.00174313e+00
1.00169660e+00
1.00164613e+00
1.00159201e+00
1.00153414e+00
1.00147288e+00
1.00140852e+00
1.00134106e+00
1.00127053e+00
1.00119704e+00
1.00112061e+00
1.00104120e+00
1.00095885e+00
1.00087364e+00
1.00078567e+00
1.00069514e+00
1.00060232e+00
1.00050760e+00
1.00041147e+00
1.00031454e+00
1.00021751e+00
1.00012115e+00
1.00002632e+00
9.99933900e-01
9.99844800e-01
9.99759901e-01
9.99680044e-01
9.99605998e-01
9.99538437e-01
9.99477925e-01
9.99424898e-01
9.99379660e-01
9.99342382e-01
9.99313105e-01
9.99291746e-01
9.99278112e-01
9.99271915e-01
9.99272786e-01
9.99280294e-01
9.99293960e-01
9.99313276e-01
9.99337717e-01
9.99366756e-01
9.99399874e-01
9.99436571e-01
9.99476372e-01
9.99518833e-01
9.99563548e-01
9.99610148e-01
9.99658303e-01
9.99707726e-01
9.99758167e-01
9.99809415e-01
9.99861295e-01
9.99913662e-01
9.99966400e-01
1.00001941e+00
1.00007263e+00
1.00012597e+00
1.00017937e+00
1.00023278e+00
1.00028609e+00
1.00033921e+00
1.00039202e+00
1.00044434e+00
1.00049597e+00
1.00054665e+00
1.00059609e+00
1.00064394e+00
1.00068977e+00
1.00073316e+00
1.00077359e+00
1.00081054e+00
1.00084346e+00
1.00087179e+00
1.00089496e+00
1.00091243e+00
1.00092372e+00
1.00092836e+00
1.00092599e+00
1.00091634e+00
1.00089921e+00
1.00087454e+00
1.00084238e+00
1.00080291e+00
1.00075643e+00
1.00070335e+00
1.00064420e+00
1.00057960e+00
1.00051024e+00
1.00043690e+00
1.00036038e+00
1.00028150e+00
1.00020111e+00
1.00012002e+00
1.00003902e+00
9.99958847e-01
9.99880174e-01
9.99803613e-01
9.99729693e-01
9.99658861e-01
9.99591481e-01
9.99527838e-01
9.99468124e-01
9.99412456e-01
9.99360893e-01
9.99313422e-01
9.99269934e-01
9.99230302e-01
9.99194402e-01
9.99161980e-01
9.99132718e-01
9.99106460e-01
9.99082998e-01
9.99061832e-01
9.99042741e-01
9.99025804e-01
9.99010505e-01
9.98996603e-01
9.98983685e-01
9.98971428e-01
9.98959364e-01
1.00185829e+00
1.00184139e+00
1.00181989e+00
1.00179410e+00
1.00176320e+00
1.00172755e+00
1.00168749e+00
1.00164316e+00
1.00159476e+00
1.00154257e+00
1.00148690e+00
1.00142795e+00
1.00136575e+00
1.00130045e+00
1.00123214e+00
1.00116085e+00
1.00108656e+00
1.00100930e+00
1.00092910e+00
1.00084603e+00
1.00076020e+00
1.00067180e+00
1.00058112e+00
1.00048854e+00
1.00039454e+00
1.00029970e+00
1.00020471e+00
1.00011034e+00
1.00001741e+00
9.99926782e-01
9.99839348e-01
9.99755972e-01
9.99677480e-01
9.99604631e-01
9.99538094e-01
9.99478429e-01
9.99426076e-01
9.99381349e-01
9.99344427e-01
9.99315366e-01
9.99294100e-01
9.99280454e-01
9.99274158e-01
9.99274861e-01
9.99282152e-01
9.99295569e-01
9.99314621e-01
9.99338797e-01
9.99367585e-01
9.99400477e-01
9.99436984e-01
9.99476637e-01
9.99519000e-01
9.99563669e-01
9.99610277e-01
9.99658493e-01
9.99708028e-01
9.99758626e-01
9.99810070e-01
9.99862175e-01
9.99914786e-01
9.99967774e-01
1.00002103e+00
1.00007446e+00
1.00012799e+00
1.00018153e+00
1.00023500e+00
1.00028831e+00
1.00034133e+00
1.00039394e+00
1.00044596e+00
1.00049718e+00
1.00054735e+00
1.00059617e+00
1.00064330e+00
1.00068834e+00
1.00073087e+00
1.00077040e+00
1.00080644e+00
1.00083845e+00
1.00086591e+00
1.00088829e+00
1.00090507e+00
1.00091580e+00
1.00092006e+00
1.00091750e+00
1.00090787e+00
1.00089101e+00
1.00086686e+00
1.00083548e+00
1.00079706e+00
1.00075188e+00
1.00070036e+00
1.00064301e+00
1.00058042e+00
1.00051327e+00
1.00044230e+00
1.00036828e+00
1.00029200e+00
1.00021428e+00
1.00013589e+00
1.00005759e+00
9.99980094e-01
9.99904041e-01
9.99830019e-01
9.99758537e-01
9.99690028e-01
9.99624840e-01
9.99563242e-01
9.99505431e-01
9.99451524e-01
9.99401560e-01
9.99355526e-01
9.99313363e-01
9.99274931e-01
9.99240042e-01
9.99208525e-01
9.99180168e-01
9.99154667e-01
9.99131749e-01
9.99111193e-01
9.99092790e-01
9.99076306e-01
9.99061339e-01
9.99047752e-01
9.99035468e-01
9.99023447e-01
9.99012022e-01
1.00178485e+00
1.00176876e+00
1.00174815e+00
1.00172382e+00
1.00169476e+00
1.00166085e+00
1.00162269e+00
1.00158059e+00
1.00153449e+00
1.00148467e+00
1.00143150e+00
1.00137503e+00
1.00131530e+00
1.00125251e+00
1.00118670e+00
1.00111786e+00
1.00104600e+00
1.00097117e+00
1.00089339e+00
1.00081272e+00
1.00072928e+00
1.00064328e+00
1.00055499e+00
1.00046479e+00
1.00037315e+00
1.00028065e+00
1.00018795e+00
1.00009579e+00
1.00000499e+00
9.99916382e-01
9.99830835e-01
9.99749196e-01
9.99672276e-01
9.99600820e-01
9.99535491e-01
9.99476847e-01
9.99425332e-01
9.99381265e-01
9.99344837e-01
9.99316117e-01
9.99295057e-01
9.99281500e-01
9.99275195e-01
9.99275812e-01
9.99282959e-01
9.99296194e-01
9.99315043e-01
9.99339012e-01
9.99367604e-01
9.99400324e-01
9.99436693e-01
9.99476253e-01
9.99518573e-01
9.99563254e-01
9.99609931e-01
9.99658272e-01
9.99707985e-01
9.99758809e-01
9.99810519e-01
9.99862921e-01
9.99915847e-01
9.99969154e-01
1.00002272e+00
1.00007644e+00
1.00013021e+00
1.00018394e+00
1.00023752e+00
1.00029086e+00
1.00034381e+00
1.00039624e+00
1.00044797e+00
1.00049878e+00
1.00054842e+00
1.00059661e+00
1.00064301e+00
1.00068724e+00
1.00072888e+00
1.00076749e+00
1.00080259e+00
1.00083369e+00
1.00086028e+00
1.00088188e+00
1.00089801e+00
1.00090823e+00
1.00091217e+00
1.00090951e+00
1.00090002e+00
1.00088357e+00
1.00086010e+00
1.00082970e+00
1.00079254e+00
1.00074892e+00
1.00069923e+00
1.00064396e+00
1.00058369e+00
1.00051906e+00
1.00045079e+00
1.00037961e+00
1.00030628e+00
1.00023157e+00
1.00015623e+00
1.00008097e+00
1.00000647e+00
9.99933358e-01
9.99862180e-01
9.99793427e-01
9.99727511e-01
9.99664770e-01
9.99605459e-01
9.99549765e-01
9.99497810e-01
9.99449633e-01
9.99405212e-01
9.99364498e-01
9.99327382e-01
9.99293665e-01
9.99263165e-01
9.99235730e-01
9.99211062e-01
9.99188851e-01
9.99168982e-01
9.99151224e-01
9.99135143e-01
9.99120664e-01
9.99107752e-01
9.99095997e-01
9.99084386e-01
9.99073481e-01
1.00170146e+00
1.00168656e+00
1.00166753e+00
1.00164436e+00
1.00161689e+00
1.00158525e+00
1.00154936e+00
1.00150945e+00
1.00146588e+00
1.00141884e+00
1.00136832e+00
1.00131450e+00
1.00125758e+00
1.00119757e+00
1.00113445e+00
1.00106831e+00
1.00099915e+00
1.00092698e+00
1.00085182e+00
1.00077377e+00
1.00069295e+00
1.00060955e+00
1.00052386e+00
1.00043625e+00
1.00034718e+00
1.00025721e+00
1.00016699e+00
1.00007725e+00
9.99988774e-01
9.99902382e-01
9.99818915e-01
9.99739201e-01
9.99664034e-01
9.99594148e-01
9.99530198e-01
9.99472737e-01
9.99422212e-01
9.99378948e-01
9.99343147e-01
9.99314892e-01
9.99294151e-01
9.99280787e-01
9.99274570e-01
9.99275190e-01
9.99282275e-01
9.99295404e-01
9.99314123e-01
9.99337955e-01
9.99366419e-01
9.99399034e-01
9.99435335e-01
9.99474871e-01
9.99517221e-01
9.99561989e-01
9.99608813e-01
9.99657361e-01
9.99707336e-01
9.99758474e-01
9.99810540e-01
9.99863330e-01
9.99916664e-01
9.99970385e-01
1.00002436e+00
1.00007845e+00
1.00013255e+00
1.00018655e+00
1.00024032e+00
1.00029376e+00
1.00034671e+00
1.00039902e+00
1.00045050e+00
1.00050095e+00
1.00055011e+00
1.00059770e+00
1.00064339e+00
1.00068683e+00
1.00072761e+00
1.00076533e+00
1.00079952e+00
1.00082973e+00
1.00085550e+00
1.00087636e+00
1.00089188e+00
1.00090168e+00
1.00090539e+00
1.00090273e+00
1.00089351e+00
1.00087761e+00
1.00085499e+00
1.00082575e+00
1.00079006e+00
1.00074821e+00
1.00070059e+00
1.00064765e+00
1.00058997e+00
1.00052815e+00
1.00046287e+00
1.00039482e+00
1.00032473e+00
1.00025332e+00
1.00018131e+00
1.00010937e+00
1.00003815e+00
9.99968226e-01
9.99900138e-01
9.99834345e-01
9.99771237e-01
9.99711138e-01
9.99654298e-01
9.99600891e-01
9.99551025e-01
9.99504762e-01
9.99462090e-01
9.99422925e-01
9.99387174e-01
9.99354723e-01
9.99325358e-01
9.99298841e-01
9.99275012e-01
9.99253671e-01
9.99234498e-01
9.99217243e-01
9.99201787e-01
9.99188024e-01
9.99175560e-01
9.99164122e-01
9.99153326e-01
9.99143182e-01
1.00160952e+00
1.00159563e+00
1.00157803e+00
1.00155642e+00
1.00153084e+00
1.00150137e+00
1.00146784e+00
1.00143051e+00
1.00138970e+00
1.00134544e+00
1.00129779e+00
1.00124696e+00
1.00119300e+00
1.00113590e+00
1.00107571e+00
1.00101249e+00
1.00094620e+00
1.00087686e+00
1.00080453e+00
1.00072928e+00
1.00065124e+00
1.00057062e+00
1.00048770e+00
1.00040284e+00
1.00031650e+00
1.00022923e+00
1.00014166e+00
1.00005451e+00
9.99968522e-01
9.99884510e-01
9.99803286e-01
9.99725658e-01
9.99652404e-01
9.99584243e-01
9.99521820e-01
9.99465686e-01
9.99416289e-01
9.99373958e-01
9.99338908e-01
9.99311234e-01
9.99290923e-01
9.99277856e-01
9.99271824e-01
9.99272540e-01
9.99279652e-01
9.99292760e-01
9.99311431e-01
9.99335207e-01
9.99363624e-01
9.99396217e-01
9.99432532e-01
9.99472130e-01
9.99514598e-01
9.99559545e-01
9.99606610e-01
9.99655464e-01
9.99705806e-01
9.99757365e-01
9.99809899e-01
9.99863192e-01
9.99917050e-01
9.99971303e-01
1.00002579e+00
1.00008038e+00
1.00013493e+00
1.00018932e+00
1.00024340e+00
1.00029704e+00
1.00035009e+00
1.00040239e+00
1.00045373e+00
1.00050390e+00
1.00055266e+00
1.00059973e+00
1.00064480e+00
1.00068752e+00
1.00072752e+00
1.00076441e+00
1.00079776e+00
1.00082716e+00
1.00085217e+00
1.00087238e+00
1.00088740e+00
1.00089685e+00
1.00090043e+00
1.00089790e+00
1.00088908e+00
1.00087386e+00
1.00085225e+00
1.00082434e+00
1.00079030e+00
1.00075042e+00
1.00070506e+00
1.00065469e+00
1.00059982e+00
1.00054104e+00
1.00047897e+00
1.00041430e+00
1.00034769e+00
1.00027983e+00
1.00021138e+00
1.00014298e+00
1.00007525e+00
1.00000873e+00
9.99943917e-01
9.99881258e-01
9.99821120e-01
9.99763807e-01
9.99709559e-01
9.99658550e-01
9.99610881e-01
9.99566603e-01
9.99525725e-01
9.99488185e-01
9.99453869e-01
9.99422668e-01
9.99394432e-01
9.99368930e-01
9.99345970e-01
9.99325397e-01
9.99306931e-01
9.99290326e-01
9.99275489e-01
9.99262293e-01
9.99250374e-01
9.99239485e-01
9.99229361e-01
9.99219920e-01
1.00150981e+00
1.00149694e+00
1.00148050e+00
1.00146079e+00
1.00143732e+00
1.00140992e+00
1.00137889e+00
1.00134442e+00
1.00130643e+00
1.00126506e+00
1.00122052e+00
1.00117282e+00
1.00112192e+00
1.00106792e+00
1.00101085e+00
1.00095067e+00
1.00088738e+00
1.00082103e+00
1.00075166e+00
1.00067934e+00
1.00060422e+00
1.00052651e+00
1.00044648e+00
1.00036450e+00
1.00028102e+00
1.00019658e+00
1.00011180e+00
1.00002736e+00
9.99943999e-01
9.99862500e-01
9.99783653e-01
9.99708247e-01
9.99637039e-01
9.99570736e-01
9.99509971e-01
9.99455293e-01
9.99407148e-01
9.99365872e-01
9.99331690e-01
9.99304711e-01
9.99284938e-01
9.99272272e-01
9.99266526e-01
9.99267435e-01
9.99274669e-01
9.99287851e-01
9.99306567e-01
9.99330380e-01
9.99358843e-01
9.99391509e-01
9.99427935e-01
9.99467696e-01
9.99510384e-01
9.99555618e-01
9.99603038e-01
9.99652314e-01
9.99703143e-01
9.99755249e-01
9.99808380e-01
9.99862310e-01
9.99916830e-01
9.99971755e-01
1.00002691e+00
1.00008214e+00
1.00013729e+00
1.00019220e+00
1.00024674e+00
1.00030074e+00
1.00035403e+00
1.00040645e+00
1.00045779e+00
1.00050783e+00
1.00055632e+00
1.00060300e+00
1.00064757e+00
1.00068970e+00
1.00072904e+00
1.00076521e+00
1.00079785e+00
1.00082655e+00
1.00085093e+00
1.00087060e+00
1.00088521e+00
1.00089444e+00
1.00089803e+00
1.00089574e+00
1.00088744e+00
1.00087306e+00
1.00085260e+00
1.00082616e+00
1.00079393e+00
1.00075618e+00
1.00071327e+00
1.00066563e+00
1.00061376e+00
1.00055820e+00
1.00049955e+00
1.00043844e+00
1.00037549e+00
1.00031135e+00
1.00024664e+00
1.00018196e+00
1.00011787e+00
1.00005489e+00
9.99993496e-01
9.99934088e-01
9.99877023e-01
9.99822587e-01
9.99771004e-01
9.99722443e-01
9.99677018e-01
9.99634769e-01
9.99595693e-01
9.99559770e-01
9.99526911e-01
9.99496965e-01
9.99469805e-01
9.99445308e-01
9.99423239e-01
9.99403367e-01
9.99385571e-01
9.99369697e-01
9.99355440e-01
9.99342673e-01
9.99331400e-01
9.99321234e-01
9.99311584e-01
9.99302826e-01
1.00140275e+00
1.00139110e+00
1.00137616e+00
1.00135821e+00
1.00133677e+00
1.00131176e+00
1.00128340e+00
1.00125168e+00
1.00121664e+00
1.00117842e+00
1.00113705e+00
1.00109250e+00
1.00104484e+00
1.00099407e+00
1.00094018e+00
1.00088314e+00
1.00082298e+00
1.00075972e+00
1.00069340e+00
1.00062411e+00
1.00055200e+00
1.00047728e+00
1.00040024e+00
1.00032123e+00
1.00024071e+00
1.00015919e+00
1.00007729e+00
9.99995658e-01
9.99915025e-01
9.99836141e-01
9.99759779e-01
9.99686703e-01
9.99617651e-01
9.99553316e-01
9.99494321e-01
9.99441210e-01
9.99394428e-01
9.99354317e-01
9.99321110e-01
9.99294933e-01
9.99275803e-01
9.99263644e-01
9.99258287e-01
9.99259491e-01
9.99266949e-01
9.99280305e-01
9.99299168e-01
9.99323122e-01
9.99351737e-01
9.99384581e-01
9.99421229e-01
9.99461265e-01
9.99504292e-01
9.99549933e-01
9.99597834e-01
9.99647664e-01
9.99699117e-01
9.99751911e-01
9.99805786e-01
9.99860504e-01
9.99915844e-01
9.99971603e-01
1.00002759e+00
1.00008363e+00
1.00013954e+00
1.00019517e+00
1.00025034e+00
1.00030487e+00
1.00035860e+00
1.00041132e+00
1.00046284e+00
1.00051292e+00
1.00056133e+00
1.00060780e+00
1.00065204e+00
1.00069375e+00
1.00073259e+00
1.00076822e+00
1.00080030e+00
1.00082845e+00
1.00085234e+00
1.00087162e+00
1.00088597e+00
1.00089513e+00
1.00089884e+00
1.00089694e+00
1.00088930e+00
1.00087587e+00
1.00085669e+00
1.00083186e+00
1.00080158e+00
1.00076610e+00
1.00072578e+00
1.00068101e+00
1.00063227e+00
1.00058008e+00
1.00052498e+00
1.00046756e+00
1.00040841e+00
1.00034812e+00
1.00028726e+00
1.00022640e+00
1.00016606e+00
1.00010672e+00
1.00004881e+00
9.99992715e-01
9.99938769e-01
9.99887244e-01
9.99838354e-01
9.99792254e-01
9.99749056e-01
9.99708821e-01
9.99671546e-01
9.99637197e-01
9.99605720e-01
9.99577012e-01
9.99550918e-01
9.99527315e-01
9.99506055e-01
9.99486933e-01
9.99469771e-01
9.99454454e-01
9.99440783e-01
9.99428591e-01
9.99417842e-01
9.99408255e-01
9.99399290e-01
9.99391332e-01
1.00128937e+00
1.00127902e+00
1.00126572e+00
1.00124949e+00
1.00123014e+00
1.00120767e+00
1.00118196e+00
1.00115305e+00
1.00112109e+00
1.00108605e+00
1.00104787e+00
1.00100660e+00
1.00096225e+00
1.00091476e+00
1.00086409e+00
1.00081028e+00
1.00075331e+00
1.00069318e+00
1.00062996e+00
1.00056376e+00
1.00049471e+00
1.00042304e+00
1.00034904e+00
1.00027306e+00
1.00019555e+00
1.00011701e+00
1.00003805e+00
9.99959300e-01
9.99881463e-01
9.99805272e-01
9.99731473e-01
9.99660809e-01
9.99594001e-01
9.99531725e-01
9.99474595e-01
9.99423146e-01
9.99377826e-01
9.99338979e-01
9.99306851e-01
9.99281577e-01
9.99263195e-01
9.99251646e-01
9.99246784e-01
9.99248389e-01
9.99256178e-01
9.99269818e-01
9.99288939e-01
9.99313145e-01
9.99342027e-01
9.99375168e-01
9.99412158e-01
9.99452594e-01
9.99496088e-01
9.99542270e-01
9.99590788e-01
9.99641314e-01
9.99693539e-01
9.99747175e-01
9.99801954e-01
9.99857626e-01
9.99913958e-01
9.99970729e-01
1.00002773e+00
1.00008477e+00
1.00014165e+00
1.00019819e+00
1.00025419e+00
1.00030948e+00
1.00036384e+00
1.00041709e+00
1.00046900e+00
1.00051935e+00
1.00056790e+00
1.00061438e+00
1.00065851e+00
1.00070001e+00
1.00073856e+00
1.00077385e+00
1.00080556e+00
1.00083336e+00
1.00085694e+00
1.00087600e+00
1.00089027e+00
1.00089950e+00
1.00090349e+00
1.00090211e+00
1.00089526e+00
1.00088292e+00
1.00086514e+00
1.00084204e+00
1.00081381e+00
1.00078070e+00
1.00074306e+00
1.00070127e+00
1.00065576e+00
1.00060702e+00
1.00055556e+00
1.00050192e+00
1.00044664e+00
1.00039027e+00
1.00033333e+00
1.00027635e+00
1.00021980e+00
1.00016412e+00
1.00010972e+00
1.00005696e+00
1.00000613e+00
9.99957503e-01
9.99911279e-01
9.99867611e-01
9.99826599e-01
9.99788310e-01
9.99752770e-01
9.99719944e-01
9.99689771e-01
9.99662197e-01
9.99637109e-01
9.99614342e-01
9.99593785e-01
9.99575333e-01
9.99558777e-01
9.99543938e-01
9.99530775e-01
9.99519176e-01
9.99508910e-01
9.99499820e-01
9.99491623e-01
9.99484491e-01
1.00117071e+00
1.00116159e+00
1.00114984e+00
1.00113550e+00
1.00111835e+00
1.00109830e+00
1.00107526e+00
1.00104931e+00
1.00102042e+00
1.00098852e+00
1.00095361e+00
1.00091567e+00
1.00087462e+00
1.00083041e+00
1.00078304e+00
1.00073247e+00
1.00067868e+00
1.00062171e+00
1.00056162e+00
1.00049852e+00
1.00043255e+00
1.00036395e+00
1.00029300e+00
1.00022007e+00
1.00014559e+00
1.00007007e+00
9.99994083e-01
9.99918251e-01
9.99843255e-01
9.99769805e-01
9.99698624e-01
9.99630434e-01
9.99565936e-01
9.99505791e-01
9.99450601e-01
9.99400897e-01
9.99357125e-01
9.99319634e-01
9.99288677e-01
9.99264405e-01
9.99246872e-01
9.99236036e-01
9.99231776e-01
9.99233892e-01
9.99242124e-01
9.99256162e-01
9.99275658e-01
9.99300237e-01
9.99329507e-01
9.99363071e-01
9.99400532e-01
9.99441500e-01
9.99485597e-01
9.99532460e-01
9.99581742e-01
9.99633115e-01
9.99686268e-01
9.99740908e-01
9.99796760e-01
9.99853562e-01
9.99911068e-01
9.99969042e-01
1.00002726e+00
1.00008551e+00
1.00014357e+00
1.00020124e+00
1.00025831e+00
1.00031457e+00
1.00036982e+00
1.00042384e+00
1.00047641e+00
1.00052728e+00
1.00057621e+00
1.00062296e+00
1.00066724e+00
1.00070878e+00
1.00074729e+00
1.00078248e+00
1.00081406e+00
1.00084172e+00
1.00086521e+00
1.00088425e+00
1.00089860e+00
1.00090808e+00
1.00091251e+00
1.00091179e+00
1.00090586e+00
1.00089473e+00
1.00087845e+00
1.00085717e+00
1.00083107e+00
1.00080042e+00
1.00076552e+00
1.00072676e+00
1.00068453e+00
1.00063929e+00
1.00059150e+00
1.00054167e+00
1.00049029e+00
1.00043786e+00
1.00038485e+00
1.00033175e+00
1.00027898e+00
1.00022696e+00
1.00017604e+00
1.00012657e+00
1.00007882e+00
1.00003304e+00
9.99989413e-01
9.99948097e-01
9.99909198e-01
9.99872773e-01
9.99838857e-01
9.99807452e-01
9.99778508e-01
9.99751955e-01
9.99727731e-01
9.99705732e-01
9.99685817e-01
9.99667882e-01
9.99651824e-01
9.99637487e-01
9.99624754e-01
9.99613576e-01
9.99603824e-01
9.99595311e-01
9.99587773e-01
9.99581387e-01
1.00104751e+00
1.00103966e+00
1.00102947e+00
1.00101706e+00
1.00100209e+00
1.00098444e+00
1.00096413e+00
1.00094112e+00
1.00091526e+00
1.00088653e+00
1.00085489e+00
1.00082023e+00
1.00078246e+00
1.00074155e+00
1.00069745e+00
1.00065009e+00
1.00059948e+00
1.00054566e+00
1.00048868e+00
1.00042865e+00
1.00036575e+00
1.00030020e+00
1.00023231e+00
1.00016242e+00
1.00009097e+00
1.00001847e+00
9.99945455e-01
9.99872554e-01
9.99800419e-01
9.99729735e-01
9.99661205e-01
9.99595529e-01
9.99533390e-01
9.99475430e-01
9.99422244e-01
9.99374354e-01
9.99332205e-01
9.99296151e-01
9.99266454e-01
9.99243277e-01
9.99226690e-01
9.99216672e-01
9.99213120e-01
9.99215858e-01
9.99224648e-01
9.99239202e-01
9.99259195e-01
9.99284270e-01
9.99314056e-01
9.99348173e-01
9.99386239e-01
9.99427876e-01
9.99472717e-01
9.99520406e-01
9.99570600e-01
9.99622973e-01
9.99677214e-01
9.99733024e-01
9.99790121e-01
9.99848234e-01
9.99907103e-01
9.99966478e-01
1.00002612e+00
1.00008579e+00
1.00014525e+00
1.00020429e+00
1.00026268e+00
1.00032018e+00
1.00037658e+00
1.00043164e+00
1.00048513e+00
1.00053681e+00
1.00058642e+00
1.00063372e+00
1.00067843e+00
1.00072030e+00
1.00075905e+00
1.00079440e+00
1.00082610e+00
1.00085389e+00
1.00087751e+00
1.00089674e+00
1.00091139e+00
1.00092129e+00
1.00092632e+00
1.00092641e+00
1.00092153e+00
1.00091170e+00
1.00089702e+00
1.00087763e+00
1.00085372e+00
1.00082556e+00
1.00079345e+00
1.00075773e+00
1.00071879e+00
1.00067704e+00
1.00063292e+00
1.00058689e+00
1.00053938e+00
1.00049085e+00
1.00044174e+00
1.00039247e+00
1.00034343e+00
1.00029500e+00
1.00024750e+00
1.00020125e+00
1.00015649e+00
1.00011346e+00
1.00007234e+00
1.00003327e+00
9.99996365e-01
9.99961697e-01
9.99929294e-01
9.99899174e-01
9.99871329e-01
9.99845699e-01
9.99822218e-01
9.99800841e-01
9.99781470e-01
9.99763976e-01
9.99748292e-01
9.99734356e-01
9.99722010e-01
9.99711185e-01
9.99701882e-01
9.99693925e-01
9.99687020e-01
9.99681381e-01
1.00092057e+00
1.00091405e+00
1.00090551e+00
1.00089493e+00
1.00088211e+00
1.00086692e+00
1.00084931e+00
1.00082913e+00
1.00080630e+00
1.00078073e+00
1.00075229e+00
1.00072085e+00
1.00068635e+00
1.00064868e+00
1.00060777e+00
1.00056358e+00
1.00051612e+00
1.00046539e+00
1.00041147e+00
1.00035448e+00
1.00029461e+00
1.00023208e+00
1.00016719e+00
1.00010032e+00
1.00003188e+00
9.99962366e-01
9.99892321e-01
9.99822343e-01
9.99753065e-01
9.99685155e-01
9.99619291e-01
9.99556152e-01
9.99496401e-01
9.99440668e-01
9.99389534e-01
9.99343515e-01
9.99303055e-01
9.99268512e-01
9.99240156e-01
9.99218162e-01
9.99202616e-01
9.99193515e-01
9.99190777e-01
9.99194248e-01
9.99203712e-01
9.99218902e-01
9.99239513e-01
9.99265211e-01
9.99295643e-01
9.99330444e-01
9.99369249e-01
9.99411693e-01
9.99457418e-01
9.99506076e-01
9.99557331e-01
9.99610857e-01
9.99666343e-01
9.99723488e-01
9.99782003e-01
9.99841606e-01
9.99902027e-01
9.99963002e-01
1.00002427e+00
1.00008558e+00
1.00014669e+00
1.00020734e+00
1.00026730e+00
1.00032631e+00
1.00038414e+00
1.00044053e+00
1.00049524e+00
1.00054802e+00
1.00059862e+00
1.00064678e+00
1.00069223e+00
1.00073473e+00
1.00077402e+00
1.00080984e+00
1.00084194e+00
1.00087010e+00
1.00089411e+00
1.00091377e+00
1.00092892e+00
1.00093944e+00
1.00094524e+00
1.00094628e+00
1.00094256e+00
1.00093413e+00
1.00092112e+00
1.00090366e+00
1.00088198e+00
1.00085632e+00
1.00082699e+00
1.00079429e+00
1.00075861e+00
1.00072032e+00
1.00067981e+00
1.00063750e+00
1.00059380e+00
1.00054910e+00
1.00050380e+00
1.00045827e+00
1.00041287e+00
1.00036793e+00
1.00032375e+00
1.00028060e+00
1.00023872e+00
1.00019833e+00
1.00015958e+00
1.00012264e+00
1.00008759e+00
1.00005454e+00
1.00002352e+00
9.99994563e-01
9.99967665e-01
9.99942821e-01
9.99919982e-01
9.99899093e-01
9.99880115e-01
9.99862981e-01
9.99847596e-01
9.99833913e-01
9.99821873e-01
9.99811398e-01
9.99802455e-01
9.99794957e-01
9.99788726e-01
9.99783849e-01
1.00079082e+00
1.00078560e+00
1.00077869e+00
1.00076995e+00
1.00075924e+00
1.00074647e+00
1.00073147e+00
1.00071409e+00
1.00069424e+00
1.00067173e+00
1.00064641e+00
1.00061815e+00
1.00058683e+00
1.00055231e+00
1.00051453e+00
1.00047345e+00
1.00042904e+00
1.00038133e+00
1.00033041e+00
1.00027640e+00
1.00021948e+00
1.00015991e+00
1.00009799e+00
1.00003407e+00
9.99968594e-01
9.99902033e-01
9.99834921e-01
9.99767839e-01
9.99701402e-01
9.99636255e-01
9.99573056e-01
9.99512463e-01
9.99455119e-01
9.99401640e-01
9.99352594e-01
9.99308493e-01
9.99269779e-01
9.99236812e-01
9.99209871e-01
9.99189142e-01
9.99174727e-01
9.99166641e-01
9.99164820e-01
9.99169132e-01
9.99179383e-01
9.99195326e-01
9.99216677e-01
9.99243122e-01
9.99274326e-01
9.99309941e-01
9.99349616e-01
9.99393000e-01
9.99439744e-01
9.99489511e-01
9.99541968e-01
9.99596794e-01
9.99653678e-01
9.99712316e-01
9.99772412e-01
9.99833680e-01
9.99895837e-01
9.99958606e-01
1.00002171e+00
1.00008489e+00
1.00014787e+00