# vtk DataFile Version 2.0
LBM Flow Field - Timestep 740
ASCII
DATASET STRUCTURED_POINTS
DIMENSIONS 128 128 1
ORIGIN 0.0 0.0 0.0
SPACING 1.0 1.0 1.0
POINT_DATA 16384
SCALARS density double 1
LOOKUP_TABLE default
1.00616602e+00
1.00616252e+00
1.00614706e+00
1.00609010e+00
1.00601477e+00
1.00593046e+00
1.00582893e+00
1.00571050e+00
1.00558083e+00
1.00544003e+00
1.00528700e+00
1.00512375e+00
1.00495231e+00
1.00477345e+00
1.00458851e+00
1.00439954e+00
1.00420845e+00
1.00401708e+00
1.00382748e+00
1.00364173e+00
1.00346172e+00
1.00328915e+00
1.00312551e+00
1.00297195e+00
1.00282926e+00
1.00269785e+00
1.00257777e+00
1.00246874e+00
1.00237017e+00
1.00228124e+00
1.00220096e+00
1.00212821e+00
1.00206183e+00
1.00200066e+00
1.00194356e+00
1.00188950e+00
1.00183752e+00
1.00178678e+00
1.00173656e+00
1.00168626e+00
1.00163538e+00
1.00158351e+00
1.00153036e+00
1.00147569e+00
1.00141934e+00
1.00136120e+00
1.00130122e+00
1.00123936e+00
1.00117564e+00
1.00111010e+00
1.00104279e+00
1.00097379e+00
1.00090319e+00
1.00083111e+00
1.00075764e+00
1.00068293e+00
1.00060711e+00
1.00053032e+00
1.00045271e+00
1.00037444e+00
1.00029565e+00
1.00021652e+00
1.00013720e+00
1.00005786e+00
9.99978655e-01
9.99899746e-01
9.99821291e-01
9.99743442e-01
9.99666347e-01
9.99590148e-01
9.99514980e-01
9.99440969e-01
9.99368231e-01
9.99296875e-01
9.99226991e-01
9.99158660e-01
9.99091943e-01
9.99026881e-01
9.98963492e-01
9.98901764e-01
9.98841651e-01
9.98783067e-01
9.98725875e-01
9.98669886e-01
9.98614840e-01
9.98560409e-01
9.98506179e-01
9.98451652e-01
9.98396236e-01
9.98339253e-01
9.98279938e-01
9.98217459e-01
9.98150931e-01
9.98079448e-01
9.98002122e-01
9.97918123e-01
9.97826729e-01
9.97727382e-01
9.97619735e-01
9.97503705e-01
9.97379505e-01
9.97247675e-01
9.97109088e-01
9.96964938e-01
9.96816715e-01
9.96666148e-01
9.96515133e-01
9.96365667e-01
9.96219757e-01
9.96079282e-01
9.95945948e-01
9.95821270e-01
9.95706413e-01
9.95602048e-01
9.95508627e-01
9.95426460e-01
9.95355114e-01
9.95293627e-01
9.95241800e-01
9.95199337e-01
9.95163828e-01
9.95133770e-01
9.95111525e-01
9.95096168e-01
9.95080644e-01
9.95069809e-01
9.95085112e-01
9.95100653e-01
1.00616385e+00
1.00614560e+00
1.00611868e+00
1.00606600e+00
1.00599479e+00
1.00590986e+00
1.00580964e+00
1.00569441e+00
1.00556634e+00
1.00542666e+00
1.00527571e+00
1.00511461e+00
1.00494482e+00
1.00476769e+00
1.00458466e+00
1.00439744e+00
1.00420791e+00
1.00401798e+00
1.00382965e+00
1.00364488e+00
1.00346555e+00
1.00329338e+00
1.00312981e+00
1.00297601e+00
1.00283279e+00
1.00270062e+00
1.00257958e+00
1.00246945e+00
1.00236970e+00
1.00227958e+00
1.00219812e+00
1.00212427e+00
1.00205690e+00
1.00199486e+00
1.00193704e+00
1.00188242e+00
1.00183002e+00
1.00177902e+00
1.00172868e+00
1.00167837e+00
1.00162759e+00
1.00157593e+00
1.00152306e+00
1.00146873e+00
1.00141278e+00
1.00135507e+00
1.00129554e+00
1.00123416e+00
1.00117093e+00
1.00110588e+00
1.00103906e+00
1.00097054e+00
1.00090041e+00
1.00082878e+00
1.00075575e+00
1.00068147e+00
1.00060605e+00
1.00052964e+00
1.00045240e+00
1.00037448e+00
1.00029603e+00
1.00021722e+00
1.00013822e+00
1.00005918e+00
9.99980265e-01
9.99901646e-01
9.99823476e-01
9.99745911e-01
9.99669101e-01
9.99593188e-01
9.99518309e-01
9.99444590e-01
9.99372149e-01
9.99301092e-01
9.99231511e-01
9.99163482e-01
9.99097066e-01
9.99032299e-01
9.98969194e-01
9.98907733e-01
9.98847864e-01
9.98789490e-01
9.98732468e-01
9.98676593e-01
9.98621599e-01
9.98567142e-01
9.98512800e-01
9.98458061e-01
9.98402330e-01
9.98344920e-01
9.98285071e-01
9.98221953e-01
9.98154698e-01
9.98082420e-01
9.98004261e-01
9.97919425e-01
9.97827235e-01
9.97727178e-01
9.97618957e-01
9.97502531e-01
9.97378155e-01
9.97246399e-01
9.97108152e-01
9.96964612e-01
9.96817253e-01
9.96667771e-01
9.96518024e-01
9.96369945e-01
9.96225459e-01
9.96086393e-01
9.95954403e-01
9.95830892e-01
9.95716951e-01
9.95613323e-01
9.95520444e-01
9.95438401e-01
9.95366873e-01
9.95305335e-01
9.95253261e-01
9.95209823e-01
9.95173644e-01
9.95144062e-01
9.95121152e-01
9.95103781e-01
9.95090013e-01
9.95081561e-01
9.95086069e-01
9.95086330e-01
1.00615587e+00
1.00612638e+00
1.00607912e+00
1.00603306e+00
1.00596962e+00
1.00588220e+00
1.00578177e+00
1.00567078e+00
1.00554517e+00
1.00540633e+00
1.00525742e+00
1.00509879e+00
1.00493077e+00
1.00475527e+00
1.00457404e+00
1.00438843e+00
1.00420021e+00
1.00401142e+00
1.00382400e+00
1.00363984e+00
1.00346081e+00
1.00328865e+00
1.00312479e+00
1.00297042e+00
1.00282640e+00
1.00269323e+00
1.00257106e+00
1.00245972e+00
1.00235874e+00
1.00226740e+00
1.00218482e+00
1.00210996e+00
1.00204172e+00
1.00197898e+00
1.00192066e+00
1.00186571e+00
1.00181318e+00
1.00176221e+00
1.00171207e+00
1.00166212e+00
1.00161183e+00
1.00156076e+00
1.00150858e+00
1.00145503e+00
1.00139991e+00
1.00134308e+00
1.00128447e+00
1.00122402e+00
1.00116174e+00
1.00109763e+00
1.00103174e+00
1.00096414e+00
1.00089490e+00
1.00082414e+00
1.00075196e+00
1.00067848e+00
1.00060384e+00
1.00052819e+00
1.00045166e+00
1.00037442e+00
1.00029664e+00
1.00021846e+00
1.00014007e+00
1.00006162e+00
9.99983285e-01
9.99905232e-01
9.99827621e-01
9.99750611e-01
9.99674354e-01
9.99598997e-01
9.99524676e-01
9.99451523e-01
9.99379654e-01
9.99309175e-01
9.99240178e-01
9.99172739e-01
9.99106914e-01
9.99042735e-01
9.98980211e-01
9.98919316e-01
9.98859991e-01
9.98802128e-01
9.98745573e-01
9.98690112e-01
9.98635461e-01
9.98581267e-01
9.98527092e-01
9.98472415e-01
9.98416627e-01
9.98359039e-01
9.98298886e-01
9.98235343e-01
9.98167550e-01
9.98094643e-01
9.98015785e-01
9.97930215e-01
9.97837294e-01
9.97736553e-01
9.97627739e-01
9.97510857e-01
9.97386200e-01
9.97254370e-01
9.97116278e-01
9.96973130e-01
9.96826389e-01
9.96677731e-01
9.96528979e-01
9.96382011e-01
9.96238685e-01
9.96100782e-01
9.95969905e-01
9.95847347e-01
9.95734145e-01
9.95631138e-01
9.95538669e-01
9.95456574e-01
9.95384823e-01
9.95323318e-01
9.95270776e-01
9.95225937e-01
9.95189446e-01
9.95160740e-01
9.95135727e-01
9.95114839e-01
9.95105339e-01
9.95101027e-01
9.95085005e-01
9.95074031e-01
1.00611533e+00
1.00608998e+00
1.00604789e+00
1.00599623e+00
1.00592886e+00
1.00584645e+00
1.00574964e+00
1.00563858e+00
1.00551451e+00
1.00537873e+00
1.00523177e+00
1.00507455e+00
1.00490847e+00
1.00473489e+00
1.00455514e+00
1.00437089e+00
1.00418399e+00
1.00399627e+00
1.00380963e+00
1.00362602e+00
1.00344728e+00
1.00327509e+00
1.00311092e+00
1.00295598e+00
1.00281115e+00
1.00267697e+00
1.00255365e+00
1.00244107e+00
1.00233882e+00
1.00224626e+00
1.00216252e+00
1.00208664e+00
1.00201755e+00
1.00195415e+00
1.00189538e+00
1.00184019e+00
1.00178764e+00
1.00173687e+00
1.00168712e+00
1.00163774e+00
1.00158819e+00
1.00153800e+00
1.00148683e+00
1.00143438e+00
1.00138045e+00
1.00132488e+00
1.00126756e+00
1.00120845e+00
1.00114751e+00
1.00108476e+00
1.00102022e+00
1.00095396e+00
1.00088605e+00
1.00081658e+00
1.00074566e+00
1.00067341e+00
1.00059996e+00
1.00052546e+00
1.00045005e+00
1.00037390e+00
1.00029716e+00
1.00022000e+00
1.00014259e+00
1.00006510e+00
9.99987707e-01
9.99910574e-01
9.99833869e-01
9.99757753e-01
9.99682383e-01
9.99607908e-01
9.99534468e-01
9.99462194e-01
9.99391206e-01
9.99321609e-01
9.99253494e-01
9.99186935e-01
9.99121985e-01
9.99058672e-01
9.98996997e-01
9.98936929e-01
9.98878396e-01
9.98821284e-01
9.98765422e-01
9.98710585e-01
9.98656475e-01
9.98602724e-01
9.98548879e-01
9.98494409e-01
9.98438696e-01
9.98381043e-01
9.98320686e-01
9.98256807e-01
9.98188561e-01
9.98115101e-01
9.98035623e-01
9.97949401e-01
9.97855839e-01
9.97754512e-01
9.97645213e-01
9.97527989e-01
9.97403172e-01
9.97271389e-01
9.97133566e-01
9.96990906e-01
9.96844861e-01
9.96697073e-01
9.96549310e-01
9.96403406e-01
9.96261162e-01
9.96124271e-01
9.95994257e-01
9.95872426e-01
9.95759766e-01
9.95656949e-01
9.95564387e-01
9.95482177e-01
9.95410027e-01
9.95347507e-01
9.95294138e-01
9.95249104e-01
9.95211332e-01
9.95180324e-01
9.95155776e-01
9.95136349e-01
9.95121303e-01
9.95111249e-01
9.95099568e-01
9.95090761e-01
1.00606200e+00
1.00603887e+00
1.00600427e+00
1.00594874e+00
1.00588014e+00
1.00580204e+00
1.00570731e+00
1.00559688e+00
1.00547527e+00
1.00534233e+00
1.00519720e+00
1.00504179e+00
1.00487788e+00
1.00470620e+00
1.00452805e+00
1.00434536e+00
1.00415986e+00
1.00397326e+00
1.00378751e+00
1.00360453e+00
1.00342612e+00
1.00325393e+00
1.00308947e+00
1.00293395e+00
1.00278827e+00
1.00265303e+00
1.00252850e+00
1.00241461e+00
1.00231102e+00
1.00221715e+00
1.00213221e+00
1.00205526e+00
1.00198529e+00
1.00192123e+00
1.00186202e+00
1.00180665e+00
1.00175417e+00
1.00170369e+00
1.00165447e+00
1.00160583e+00
1.00155720e+00
1.00150811e+00
1.00145817e+00
1.00140709e+00
1.00135462e+00
1.00130059e+00
1.00124489e+00
1.00118743e+00
1.00112819e+00
1.00106714e+00
1.00100431e+00
1.00093976e+00
1.00087355e+00
1.00080576e+00
1.00073649e+00
1.00066587e+00
1.00059402e+00
1.00052108e+00
1.00044721e+00
1.00037255e+00
1.00029726e+00
1.00022153e+00
1.00014552e+00
1.00006940e+00
9.99993339e-01
9.99917519e-01
9.99842105e-01
9.99767261e-01
9.99693146e-01
9.99619912e-01
9.99547700e-01
9.99476643e-01
9.99406862e-01
9.99338461e-01
9.99271531e-01
9.99206143e-01
9.99142346e-01
9.99080164e-01
9.99019591e-01
9.98960588e-01
9.98903074e-01
9.98846922e-01
9.98791950e-01
9.98737916e-01
9.98684511e-01
9.98631348e-01
9.98577963e-01
9.98523810e-01
9.98468262e-01
9.98410620e-01
9.98350118e-01
9.98285948e-01
9.98217280e-01
9.98143294e-01
9.98063217e-01
9.97976365e-01
9.97882188e-01
9.97780310e-01
9.97670576e-01
9.97553078e-01
9.97428184e-01
9.97296551e-01
9.97159116e-01
9.97017077e-01
9.96871863e-01
9.96725079e-01
9.96578437e-01
9.96433699e-01
9.96292606e-01
9.96156770e-01
9.96027625e-01
9.95906439e-01
9.95794193e-01
9.95691450e-01
9.95598588e-01
9.95515916e-01
9.95443121e-01
9.95379423e-01
9.95324717e-01
9.95278918e-01
9.95240059e-01
9.95206727e-01
9.95180924e-01
9.95162367e-01
9.95144500e-01
9.95128929e-01
9.95121209e-01
9.95114117e-01
1.00600372e+00
1.00597875e+00
1.00594117e+00
1.00589022e+00
1.00582584e+00
1.00574606e+00
1.00565235e+00
1.00554649e+00
1.00542751e+00
1.00529579e+00
1.00515318e+00
1.00500066e+00
1.00483877e+00
1.00466892e+00
1.00449282e+00
1.00431195e+00
1.00412791e+00
1.00394260e+00
1.00375793e+00
1.00357571e+00
1.00339772e+00
1.00322565e+00
1.00306099e+00
1.00290494e+00
1.00275846e+00
1.00262220e+00
1.00249646e+00
1.00238126e+00
1.00227633e+00
1.00218114e+00
1.00209496e+00
1.00201693e+00
1.00194606e+00
1.00188132e+00
1.00182169e+00
1.00176615e+00
1.00171376e+00
1.00166364e+00
1.00161501e+00
1.00156718e+00
1.00151958e+00
1.00147170e+00
1.00142314e+00
1.00137357e+00
1.00132274e+00
1.00127045e+00
1.00121657e+00
1.00116099e+00
1.00110368e+00
1.00104460e+00
1.00098378e+00
1.00092124e+00
1.00085705e+00
1.00079129e+00
1.00072404e+00
1.00065543e+00
1.00058557e+00
1.00051460e+00
1.00044267e+00
1.00036994e+00
1.00029655e+00
1.00022269e+00
1.00014852e+00
1.00007421e+00
9.99999932e-01
9.99925864e-01
9.99852172e-01
9.99779022e-01
9.99706571e-01
9.99634973e-01
9.99564370e-01
9.99494894e-01
9.99426665e-01
9.99359787e-01
9.99294349e-01
9.99230420e-01
9.99168044e-01
9.99107241e-01
9.99047999e-01
9.98990270e-01
9.98933964e-01
9.98878942e-01
9.98825011e-01
9.98771914e-01
9.98719327e-01
9.98666849e-01
9.98614003e-01
9.98560232e-01
9.98504901e-01
9.98447306e-01
9.98386687e-01
9.98322247e-01
9.98253174e-01
9.98178678e-01
9.98098023e-01
9.98010570e-01
9.97915818e-01
9.97813446e-01
9.97703348e-01
9.97585665e-01
9.97460803e-01
9.97329442e-01
9.97192530e-01
9.97051256e-01
9.96907018e-01
9.96761375e-01
9.96615987e-01
9.96472531e-01
9.96332655e-01
9.96197922e-01
9.96069706e-01
9.95949136e-01
9.95837150e-01
9.95734455e-01
9.95641337e-01
9.95557814e-01
9.95483937e-01
9.95419464e-01
9.95363498e-01
9.95315400e-01
9.95275204e-01
9.95241995e-01
9.95213855e-01
9.95191199e-01
9.95174216e-01
9.95160225e-01
9.95148901e-01
9.95139623e-01
1.00593055e+00
1.00590594e+00
1.00586764e+00
1.00582008e+00
1.00575783e+00
1.00567913e+00
1.00558849e+00
1.00548559e+00
1.00536874e+00
1.00523977e+00
1.00510025e+00
1.00495024e+00
1.00479066e+00
1.00462327e+00
1.00444945e+00
1.00427053e+00
1.00408827e+00
1.00390457e+00
1.00372119e+00
1.00353993e+00
1.00336259e+00
1.00319084e+00
1.00302612e+00
1.00286970e+00
1.00272254e+00
1.00258534e+00
1.00245847e+00
1.00234201e+00
1.00223576e+00
1.00213926e+00
1.00205185e+00
1.00197272e+00
1.00190094e+00
1.00183552e+00
1.00177544e+00
1.00171971e+00
1.00166740e+00
1.00161761e+00
1.00156957e+00
1.00152258e+00
1.00147601e+00
1.00142937e+00
1.00138223e+00
1.00133423e+00
1.00128511e+00
1.00123465e+00
1.00118269e+00
1.00112914e+00
1.00107392e+00
1.00101700e+00
1.00095839e+00
1.00089811e+00
1.00083621e+00
1.00077277e+00
1.00070787e+00
1.00064161e+00
1.00057413e+00
1.00050554e+00
1.00043599e+00
1.00036562e+00
1.00029460e+00
1.00022308e+00
1.00015123e+00
1.00007921e+00
1.00000721e+00
9.99935373e-01
9.99863879e-01
9.99792886e-01
9.99722550e-01
9.99653021e-01
9.99584440e-01
9.99516936e-01
9.99450626e-01
9.99385614e-01
9.99321984e-01
9.99259802e-01
9.99199109e-01
9.99139921e-01
9.99082218e-01
9.99025946e-01
9.98971005e-01
9.98917248e-01
9.98864469e-01
9.98812399e-01
9.98760700e-01
9.98708959e-01
9.98656688e-01
9.98603319e-01
9.98548213e-01
9.98490665e-01
9.98429922e-01
9.98365201e-01
9.98295714e-01
9.98220704e-01
9.98139475e-01
9.98051438e-01
9.97956145e-01
9.97853331e-01
9.97742945e-01
9.97625174e-01
9.97500465e-01
9.97369518e-01
9.97233287e-01
9.97092950e-01
9.96949870e-01
9.96805549e-01
9.96661578e-01
9.96519565e-01
9.96381058e-01
9.96247519e-01
9.96120277e-01
9.96000406e-01
9.95888725e-01
9.95785932e-01
9.95692446e-01
9.95608213e-01
9.95533132e-01
9.95467281e-01
9.95410071e-01
9.95360368e-01
9.95318127e-01
9.95283537e-01
9.95254385e-01
9.95229454e-01
9.95211235e-01
9.95197779e-01
9.95184628e-01
9.95174754e-01
1.00584177e+00
1.00581951e+00
1.00578502e+00
1.00573742e+00
1.00567592e+00
1.00560195e+00
1.00551445e+00
1.00541295e+00
1.00529941e+00
1.00517441e+00
1.00503761e+00
1.00489017e+00
1.00473372e+00
1.00456921e+00
1.00439778e+00
1.00422119e+00
1.00404118e+00
1.00385939e+00
1.00367758e+00
1.00349762e+00
1.00332125e+00
1.00315007e+00
1.00298555e+00
1.00282898e+00
1.00268134e+00
1.00254336e+00
1.00241550e+00
1.00229788e+00
1.00219038e+00
1.00209262e+00
1.00200401e+00
1.00192378e+00
1.00185107e+00
1.00178492e+00
1.00172435e+00
1.00166838e+00
1.00161608e+00
1.00156657e+00
1.00151905e+00
1.00147280e+00
1.00142721e+00
1.00138175e+00
1.00133597e+00
1.00128951e+00
1.00124207e+00
1.00119343e+00
1.00114343e+00
1.00109194e+00
1.00103889e+00
1.00098424e+00
1.00092798e+00
1.00087013e+00
1.00081075e+00
1.00074988e+00
1.00068762e+00
1.00062405e+00
1.00055930e+00
1.00049349e+00
1.00042674e+00
1.00035919e+00
1.00029100e+00
1.00022232e+00
1.00015329e+00
1.00008409e+00
1.00001487e+00
9.99945785e-01
9.99876997e-01
9.99808660e-01
9.99740922e-01
9.99673926e-01
9.99607807e-01
9.99542689e-01
9.99478685e-01
9.99415892e-01
9.99354394e-01
9.99294250e-01
9.99235498e-01
9.99178147e-01
9.99122175e-01
9.99067520e-01
9.99014075e-01
9.98961683e-01
9.98910130e-01
9.98859136e-01
9.98808353e-01
9.98757358e-01
9.98705652e-01
9.98652663e-01
9.98597749e-01
9.98540209e-01
9.98479301e-01
9.98414260e-01
9.98344327e-01
9.98268781e-01
9.98186973e-01
9.98098366e-01
9.98002570e-01
9.97899379e-01
9.97788796e-01
9.97671057e-01
9.97546645e-01
9.97416284e-01
9.97280924e-01
9.97141726e-01
9.97000015e-01
9.96857233e-01
9.96714883e-01
9.96574492e-01
9.96437536e-01
9.96305358e-01
9.96179168e-01
9.96060049e-01
9.95948807e-01
9.95845946e-01
9.95751897e-01
9.95666968e-01
9.95590942e-01
9.95523402e-01
9.95464379e-01
9.95413626e-01
9.95369847e-01
9.95332444e-01
9.95301961e-01
9.95277275e-01
9.95256887e-01
9.95241238e-01
9.95229309e-01
9.95220262e-01
1.00574156e+00
1.00572012e+00
1.00568794e+00
1.00564212e+00
1.00558342e+00
1.00551258e+00
1.00542768e+00
1.00532978e+00
1.00522012e+00
1.00509829e+00
1.00496476e+00
1.00482102e+00
1.00466795e+00
1.00450643e+00
1.00433801e+00
1.00416434e+00
1.00398691e+00
1.00380740e+00
1.00362764e+00
1.00344940e+00
1.00327433e+00
1.00310407e+00
1.00294008e+00
1.00278364e+00
1.00263576e+00
1.00249722e+00
1.00236853e+00
1.00224989e+00
1.00214125e+00
1.00204229e+00
1.00195250e+00
1.00187118e+00
1.00179751e+00
1.00173058e+00
1.00166944e+00
1.00161313e+00
1.00156073e+00
1.00151136e+00
1.00146423e+00
1.00141860e+00
1.00137385e+00
1.00132943e+00
1.00128488e+00
1.00123983e+00
1.00119398e+00
1.00114709e+00
1.00109899e+00
1.00104954e+00
1.00099867e+00
1.00094633e+00
1.00089251e+00
1.00083723e+00
1.00078052e+00
1.00072244e+00
1.00066307e+00
1.00060250e+00
1.00054082e+00
1.00047815e+00
1.00041462e+00
1.00035034e+00
1.00028545e+00
1.00022010e+00
1.00015441e+00
1.00008854e+00
1.00002263e+00
9.99956827e-01
9.99891271e-01
9.99826104e-01
9.99761464e-01
9.99697480e-01
9.99634279e-01
9.99571975e-01
9.99510674e-01
9.99450466e-01
9.99391427e-01
9.99333613e-01
9.99277056e-01
9.99221762e-01
9.99167702e-01
9.99114808e-01
9.99062970e-01
9.99012023e-01
9.98961744e-01
9.98911848e-01
9.98861978e-01
9.98811703e-01
9.98760521e-01
9.98707856e-01
9.98653069e-01
9.98595468e-01
9.98534325e-01
9.98468899e-01
9.98398465e-01
9.98322344e-01
9.98239937e-01
9.98150764e-01
9.98054497e-01
9.97950989e-01
9.97840302e-01
9.97722721e-01
9.97598761e-01
9.97469166e-01
9.97334887e-01
9.97197054e-01
9.97056945e-01
9.96915942e-01
9.96775466e-01
9.96636930e-01
9.96501716e-01
9.96371102e-01
9.96246183e-01
9.96127920e-01
9.96017142e-01
9.95914398e-01
9.95819965e-01
9.95734125e-01
9.95657010e-01
9.95588254e-01
9.95527503e-01
9.95474812e-01
9.95429593e-01
9.95390708e-01
9.95358282e-01
9.95332395e-01
9.95311151e-01
9.95294490e-01
9.95282595e-01
9.95273313e-01
1.00562872e+00
1.00560787e+00
1.00557662e+00
1.00553432e+00
1.00547916e+00
1.00541038e+00
1.00532905e+00
1.00523581e+00
1.00512973e+00
1.00501142e+00
1.00488221e+00
1.00474254e+00
1.00459302e+00
1.00443518e+00
1.00427045e+00
1.00410011e+00
1.00392572e+00
1.00374908e+00
1.00357188e+00
1.00339578e+00
1.00322247e+00
1.00305355e+00
1.00289047e+00
1.00273448e+00
1.00258667e+00
1.00244783e+00
1.00231851e+00
1.00219901e+00
1.00208933e+00
1.00198925e+00
1.00189831e+00
1.00181588e+00
1.00174121e+00
1.00167342e+00
1.00161160e+00
1.00155482e+00
1.00150217e+00
1.00145278e+00
1.00140584e+00
1.00136064e+00
1.00131653e+00
1.00127296e+00
1.00122947e+00
1.00118567e+00
1.00114125e+00
1.00109598e+00
1.00104966e+00
1.00100219e+00
1.00095346e+00
1.00090343e+00
1.00085209e+00
1.00079946e+00
1.00074556e+00
1.00069045e+00
1.00063419e+00
1.00057687e+00
1.00051858e+00
1.00045941e+00
1.00039947e+00
1.00033888e+00
1.00027775e+00
1.00021619e+00
1.00015434e+00
1.00009231e+00
1.00003024e+00
9.99968233e-01
9.99906427e-01
9.99844942e-01
9.99783896e-01
9.99723404e-01
9.99663578e-01
9.99604518e-01
9.99546318e-01
9.99489060e-01
9.99432811e-01
9.99377620e-01
9.99323513e-01
9.99270490e-01
9.99218518e-01
9.99167525e-01
9.99117395e-01
9.99067959e-01
9.99018990e-01
9.98970197e-01
9.98921217e-01
9.98871619e-01
9.98820897e-01
9.98768479e-01
9.98713732e-01
9.98655978e-01
9.98594509e-01
9.98528615e-01
9.98457609e-01
9.98380859e-01
9.98297823e-01
9.98208082e-01
9.98111372e-01
9.98007609e-01
9.97896915e-01
9.97779622e-01
9.97656281e-01
9.97527648e-01
9.97394667e-01
9.97258444e-01
9.97120198e-01
9.96981233e-01
9.96842891e-01
9.96706485e-01
9.96573264e-01
9.96444412e-01
9.96320983e-01
9.96203820e-01
9.96093626e-01
9.95991045e-01
9.95896447e-01
9.95809892e-01
9.95731535e-01
9.95661548e-01
9.95599494e-01
9.95544823e-01
9.95497688e-01
9.95457823e-01
9.95423943e-01
9.95395942e-01
9.95374168e-01
9.95357637e-01
9.95344760e-01
9.95334983e-01
1.00550090e+00
1.00548186e+00
1.00545303e+00
1.00541347e+00
1.00536122e+00
1.00529621e+00
1.00521925e+00
1.00512988e+00
1.00502797e+00
1.00491448e+00
1.00478981e+00
1.00465434e+00
1.00450927e+00
1.00435587e+00
1.00419522e+00
1.00402874e+00
1.00385811e+00
1.00368493e+00
1.00351078e+00
1.00333736e+00
1.00316632e+00
1.00299921e+00
1.00283743e+00
1.00268228e+00
1.00253484e+00
1.00239596e+00
1.00226625e+00
1.00214605e+00
1.00203545e+00
1.00193430e+00
1.00184223e+00
1.00175867e+00
1.00168293e+00
1.00161418e+00
1.00155155e+00
1.00149414e+00
1.00144105e+00
1.00139143e+00
1.00134448e+00
1.00129949e+00
1.00125579e+00
1.00121285e+00
1.00117020e+00
1.00112745e+00
1.00108428e+00
1.00104047e+00
1.00099582e+00
1.00095021e+00
1.00090356e+00
1.00085583e+00
1.00080699e+00
1.00075706e+00
1.00070607e+00
1.00065407e+00
1.00060112e+00
1.00054729e+00
1.00049265e+00
1.00043730e+00
1.00038131e+00
1.00032479e+00
1.00026782e+00
1.00021051e+00
1.00015295e+00
1.00009523e+00
1.00003747e+00
9.99979756e-01
9.99922189e-01
9.99864868e-01
9.99807890e-01
9.99751349e-01
9.99695336e-01
9.99639936e-01
9.99585227e-01
9.99531278e-01
9.99478145e-01
9.99425867e-01
9.99374464e-01
9.99323930e-01
9.99274225e-01
9.99225275e-01
9.99176958e-01
9.99129103e-01
9.99081480e-01
9.99033793e-01
9.98985682e-01
9.98936712e-01
9.98886383e-01
9.98834128e-01
9.98779328e-01
9.98721322e-01
9.98659430e-01
9.98592976e-01
9.98521319e-01
9.98443880e-01
9.98360177e-01
9.98269859e-01
9.98172728e-01
9.98068768e-01
9.97958159e-01
9.97841284e-01
9.97718725e-01
9.97591250e-01
9.97459792e-01
9.97325422e-01
9.97189306e-01
9.97052661e-01
9.96916724e-01
9.96782720e-01
9.96651790e-01
9.96524972e-01
9.96403229e-01
9.96287397e-01
9.96178093e-01
9.96075826e-01
9.95981074e-01
9.95894079e-01
9.95814828e-01
9.95743426e-01
9.95679941e-01
9.95623954e-01
9.95575105e-01
9.95533482e-01
9.95498489e-01
9.95469437e-01
9.95446570e-01
9.95429517e-01
9.95416637e-01
9.95407157e-01
1.00535910e+00
1.00534224e+00
1.00531657e+00
1.00527957e+00
1.00523060e+00
1.00517017e+00
1.00509749e+00
1.00501237e+00
1.00491560e+00
1.00480725e+00
1.00468736e+00
1.00455694e+00
1.00441706e+00
1.00426853e+00
1.00411257e+00
1.00395075e+00
1.00378451e+00
1.00361532e+00
1.00344484e+00
1.00327470e+00
1.00310645e+00
1.00294160e+00
1.00278157e+00
1.00262765e+00
1.00248091e+00
1.00234226e+00
1.00221236e+00
1.00209162e+00
1.00198021e+00
1.00187805e+00
1.00178485e+00
1.00170012e+00
1.00162321e+00
1.00155338e+00
1.00148979e+00
1.00143156e+00
1.00137784e+00
1.00132778e+00
1.00128059e+00
1.00123556e+00
1.00119206e+00
1.00114953e+00
1.00110750e+00
1.00106559e+00
1.00102350e+00
1.00098099e+00
1.00093788e+00
1.00089405e+00
1.00084942e+00
1.00080395e+00
1.00075762e+00
1.00071045e+00
1.00066246e+00
1.00061370e+00
1.00056422e+00
1.00051407e+00
1.00046333e+00
1.00041206e+00
1.00036033e+00
1.00030821e+00
1.00025576e+00
1.00020307e+00
1.00015019e+00
1.00009721e+00
1.00004418e+00
9.99991188e-01
9.99938293e-01
9.99885569e-01
9.99833085e-01
9.99780912e-01
9.99729116e-01
9.99677762e-01
9.99626909e-01
9.99576611e-01
9.99526908e-01
9.99477830e-01
9.99429385e-01
9.99381560e-01
9.99334310e-01
9.99287555e-01
9.99241170e-01
9.99194980e-01
9.99148754e-01
9.99102197e-01
9.99054946e-01
9.99006572e-01
9.98956581e-01
9.98904418e-01
9.98849480e-01
9.98791131e-01
9.98728724e-01
9.98661624e-01
9.98589240e-01
9.98511052e-01
9.98426646e-01
9.98335740e-01
9.98238209e-01
9.98134106e-01
9.98023673e-01
9.97907340e-01
9.97785720e-01
9.97659594e-01
9.97529880e-01
9.97397605e-01
9.97263875e-01
9.97129829e-01
9.96996593e-01
9.96865264e-01
9.96736893e-01
9.96612416e-01
9.96492648e-01
9.96378346e-01
9.96270162e-01
9.96168533e-01
9.96073820e-01
9.95986434e-01
9.95906553e-01
9.95834074e-01
9.95769110e-01
9.95711812e-01
9.95661701e-01
9.95618399e-01
9.95582103e-01
9.95552430e-01
9.95528616e-01
9.95510829e-01
9.95498412e-01
9.95489456e-01
1.00520456e+00
1.00518970e+00
1.00516681e+00
1.00513325e+00
1.00508831e+00
1.00503205e+00
1.00496393e+00
1.00488417e+00
1.00479279e+00
1.00468968e+00
1.00457544e+00
1.00445086e+00
1.00431654e+00
1.00417348e+00
1.00402306e+00
1.00386653e+00
1.00370524e+00
1.00354072e+00
1.00337456e+00
1.00320825e+00
1.00304330e+00
1.00288121e+00
1.00272337e+00
1.00257103e+00
1.00242531e+00
1.00228715e+00
1.00215726e+00
1.00203612e+00
1.00192398e+00
1.00182084e+00
1.00172649e+00
1.00164052e+00
1.00156236e+00
1.00149131e+00
1.00142659e+00
1.00136737e+00
1.00131280e+00
1.00126209e+00
1.00121444e+00
1.00116917e+00
1.00112565e+00
1.00108332e+00
1.00104173e+00
1.00100050e+00
1.00095934e+00
1.00091801e+00
1.00087634e+00
1.00083422e+00
1.00079157e+00
1.00074835e+00
1.00070455e+00
1.00066019e+00
1.00061529e+00
1.00056988e+00
1.00052401e+00
1.00047773e+00
1.00043108e+00
1.00038411e+00
1.00033688e+00
1.00028943e+00
1.00024179e+00
1.00019403e+00
1.00014616e+00
1.00009824e+00
1.00005029e+00
1.00000237e+00
9.99954506e-01
9.99906739e-01
9.99859110e-01
9.99811661e-01
9.99764432e-01
9.99717465e-01
9.99670797e-01
9.99624462e-01
9.99578484e-01
9.99532879e-01
9.99487644e-01
9.99442754e-01
9.99398157e-01
9.99353767e-01
9.99309454e-01
9.99265041e-01
9.99220293e-01
9.99174915e-01
9.99128550e-01
9.99080771e-01
9.99031096e-01
9.98978982e-01
9.98923851e-01
9.98865093e-01
9.98802101e-01
9.98734287e-01
9.98661115e-01
9.98582132e-01
9.98496994e-01
9.98405495e-01
9.98307586e-01
9.98203393e-01
9.98093219e-01
9.97977544e-01
9.97857011e-01
9.97732409e-01
9.97604641e-01
9.97474692e-01
9.97343594e-01
9.97212399e-01
9.97082137e-01
9.96953779e-01
9.96828233e-01
9.96706352e-01
9.96588869e-01
9.96476396e-01
9.96369521e-01
9.96268762e-01
9.96174452e-01
9.96086875e-01
9.96006389e-01
9.95933157e-01
9.95867115e-01
9.95808378e-01
9.95757009e-01
9.95712662e-01
9.95675142e-01
9.95644442e-01
9.95620125e-01
9.95602175e-01
9.95589920e-01
9.95581334e-01
1.00503757e+00
1.00502510e+00
1.00500516e+00
1.00497533e+00
1.00493455e+00
1.00488269e+00
1.00481977e+00
1.00474562e+00
1.00465982e+00
1.00456267e+00
1.00445473e+00
1.00433631e+00
1.00420815e+00
1.00407139e+00
1.00392710e+00
1.00377642e+00
1.00362077e+00
1.00346160e+00
1.00330031e+00
1.00313836e+00
1.00297725e+00
1.00281839e+00
1.00266312e+00
1.00251271e+00
1.00236831e+00
1.00223086e+00
1.00210114e+00
1.00197971e+00
1.00186689e+00
1.00176278e+00
1.00166725e+00
1.00157996e+00
1.00150043e+00
1.00142803e+00
1.00136202e+00
1.00130162e+00
1.00124604e+00
1.00119448e+00
1.00114620e+00
1.00110051e+00
1.00105679e+00
1.00101451e+00
1.00097323e+00
1.00093257e+00
1.00089224e+00
1.00085201e+00
1.00081174e+00
1.00077130e+00
1.00073063e+00
1.00068969e+00
1.00064847e+00
1.00060699e+00
1.00056525e+00
1.00052331e+00
1.00048118e+00
1.00043890e+00
1.00039650e+00
1.00035402e+00
1.00031147e+00
1.00026888e+00
1.00022627e+00
1.00018365e+00
1.00014103e+00
1.00009841e+00
1.00005580e+00
1.00001321e+00
9.99970638e-01
9.99928101e-01
9.99885603e-01
9.99843158e-01
9.99800778e-01
9.99758479e-01
9.99716274e-01
9.99674175e-01
9.99632189e-01
9.99590313e-01
9.99548529e-01
9.99506802e-01
9.99465069e-01
9.99423233e-01
9.99381160e-01
9.99338667e-01
9.99295516e-01
9.99251413e-01
9.99206001e-01
9.99158863e-01
9.99109526e-01
9.99057466e-01
9.99002128e-01
9.98942938e-01
9.98879328e-01
9.98810766e-01
9.98736776e-01
9.98656975e-01
9.98571096e-01
9.98479012e-01
9.98380756e-01
9.98276526e-01
9.98166690e-01
9.98051780e-01
9.97932468e-01
9.97809548e-01
9.97683904e-01
9.97556481e-01
9.97428240e-01
9.97300130e-01
9.97173075e-01
9.97047941e-01
9.96925502e-01
9.96806467e-01
9.96691497e-01
9.96581148e-01
9.96475883e-01
9.96376178e-01
9.96282480e-01
9.96195064e-01
9.96114200e-01
9.96040266e-01
9.95973414e-01
9.95913585e-01
9.95860962e-01
9.95815642e-01
9.95777235e-01
9.95745604e-01
9.95720838e-01
9.95702894e-01
9.95690890e-01
9.95682942e-01
1.00485931e+00
1.00484971e+00
1.00483316e+00
1.00480690e+00
1.00477032e+00
1.00472345e+00
1.00466596e+00
1.00459741e+00
1.00451772e+00
1.00442712e+00
1.00432572e+00
1.00421395e+00
1.00409268e+00
1.00396275e+00
1.00382509e+00
1.00368093e+00
1.00353157e+00
1.00337827e+00
1.00322238e+00
1.00306534e+00
1.00290852e+00
1.00275328e+00
1.00260095e+00
1.00245278e+00
1.00230993e+00
1.00217337e+00
1.00204396e+00
1.00192232e+00
1.00180885e+00
1.00170375e+00
1.00160697e+00
1.00151829e+00
1.00143728e+00
1.00136339e+00
1.00129595e+00
1.00123423e+00
1.00117748e+00
1.00112494e+00
1.00107589e+00
1.00102965e+00
1.00098564e+00
1.00094333e+00
1.00090229e+00
1.00086215e+00
1.00082263e+00
1.00078352e+00
1.00074465e+00
1.00070594e+00
1.00066730e+00
1.00062870e+00
1.00059014e+00
1.00055163e+00
1.00051317e+00
1.00047479e+00
1.00043651e+00
1.00039835e+00
1.00036032e+00
1.00032244e+00
1.00028471e+00
1.00024712e+00
1.00020966e+00
1.00017231e+00
1.00013507e+00
1.00009790e+00
1.00006077e+00
1.00002367e+00
9.99986558e-01
9.99949423e-01
9.99912240e-01
9.99874991e-01
9.99837662e-01
9.99800240e-01
9.99762716e-01
9.99725077e-01
9.99687310e-01
9.99649392e-01
9.99611288e-01
9.99572948e-01
9.99534295e-01
9.99495222e-01
9.99455584e-01
9.99415190e-01
9.99373799e-01
9.99331113e-01
9.99286777e-01
9.99240381e-01
9.99191462e-01
9.99139517e-01
9.99084017e-01
9.99024424e-01
9.98960218e-01
9.98890920e-01
9.98816124e-01
9.98735518e-01
9.98648919e-01
9.98556282e-01
9.98457723e-01
9.98353517e-01
9.98244100e-01
9.98130051e-01
9.98012075e-01
9.97890973e-01
9.97767608e-01
9.97642873e-01
9.97517665e-01
9.97392841e-01
9.97269199e-01
9.97147486e-01
9.97028374e-01
9.96912437e-01
9.96800200e-01
9.96692171e-01
9.96588786e-01
9.96490416e-01
9.96397489e-01
9.96310430e-01
9.96229528e-01
9.96155072e-01
9.96087445e-01
9.96026826e-01
9.95973238e-01
9.95926852e-01
9.95887680e-01
9.95855517e-01
9.95830296e-01
9.95812231e-01
9.95800819e-01
9.95793857e-01
1.00467205e+00
1.00466539e+00
1.00465226e+00
1.00462967e+00
1.00459749e+00
1.00455568e+00
1.00450364e+00
1.00444101e+00
1.00436780e+00
1.00428387e+00
1.00418936e+00
1.00408481e+00
1.00397084e+00
1.00384813e+00
1.00371768e+00
1.00358060e+00
1.00343798e+00
1.00329103e+00
1.00314106e+00
1.00298936e+00
1.00283721e+00
1.00268593e+00
1.00253684e+00
1.00239115e+00
1.00225002e+00
1.00211450e+00
1.00198548e+00
1.00186367e+00
1.00174955e+00
1.00164342e+00
1.00154535e+00
1.00145517e+00
1.00137259e+00
1.00129710e+00
1.00122812e+00
1.00116498e+00
1.00110697e+00
1.00105336e+00
1.00100347e+00
1.00095665e+00
1.00091232e+00
1.00086998e+00
1.00082920e+00
1.00078962e+00
1.00075097e+00
1.00071305e+00
1.00067569e+00
1.00063879e+00
1.00060230e+00
1.00056617e+00
1.00053039e+00
1.00049496e+00
1.00045989e+00
1.00042519e+00
1.00039086e+00
1.00035691e+00
1.00032334e+00
1.00029014e+00
1.00025728e+00
1.00022473e+00
1.00019247e+00
1.00016046e+00
1.00012863e+00
1.00009694e+00
1.00006535e+00