# vtk DataFile Version 2.0
LBM Flow Field - Timestep 2990
ASCII
DATASET STRUCTURED_POINTS
DIMENSIONS 128 128 1
ORIGIN 0.0 0.0 0.0
SPACING 1.0 1.0 1.0
POINT_DATA 16384
SCALARS density double 1
LOOKUP_TABLE default
1.00334533e+00
1.00335099e+00
1.00335555e+00
1.00334757e+00
1.00333707e+00
1.00332599e+00
1.00331166e+00
1.00329409e+00
1.00327461e+00
1.00325300e+00
1.00322889e+00
1.00320247e+00
1.00317391e+00
1.00314313e+00
1.00311012e+00
1.00307496e+00
1.00303771e+00
1.00299837e+00
1.00295701e+00
1.00291369e+00
1.00286848e+00
1.00282143e+00
1.00277262e+00
1.00272215e+00
1.00267008e+00
1.00261651e+00
1.00256155e+00
1.00250527e+00
1.00244780e+00
1.00238922e+00
1.00232965e+00
1.00226919e+00
1.00220795e+00
1.00214602e+00
1.00208353e+00
1.00202056e+00
1.00195722e+00
1.00189360e+00
1.00182981e+00
1.00176593e+00
1.00170205e+00
1.00163825e+00
1.00157460e+00
1.00151117e+00
1.00144803e+00
1.00138524e+00
1.00132284e+00
1.00126088e+00
1.00119940e+00
1.00113841e+00
1.00107795e+00
1.00101804e+00
1.00095866e+00
1.00089984e+00
1.00084157e+00
1.00078383e+00
1.00072662e+00
1.00066991e+00
1.00061369e+00
1.00055793e+00
1.00050262e+00
1.00044772e+00
1.00039322e+00
1.00033908e+00
1.00028531e+00
1.00023187e+00
1.00017875e+00
1.00012594e+00
1.00007344e+00
1.00002124e+00
9.99969352e-01
9.99917774e-01
9.99866518e-01
9.99815599e-01
9.99765032e-01
9.99714839e-01
9.99665041e-01
9.99615662e-01
9.99566726e-01
9.99518260e-01
9.99470289e-01
9.99422838e-01
9.99375932e-01
9.99329592e-01
9.99283842e-01
9.99238701e-01
9.99194186e-01
9.99150313e-01
9.99107097e-01
9.99064551e-01
9.99022684e-01
9.98981508e-01
9.98941030e-01
9.98901259e-01
9.98862202e-01
9.98823868e-01
9.98786265e-01
9.98749402e-01
9.98713289e-01
9.98677939e-01
9.98643366e-01
9.98609583e-01
9.98576609e-01
9.98544464e-01
9.98513168e-01
9.98482746e-01
9.98453223e-01
9.98424628e-01
9.98396992e-01
9.98370345e-01
9.98344718e-01
9.98320154e-01
9.98296693e-01
9.98274353e-01
9.98253178e-01
9.98233253e-01
9.98214589e-01
9.98197134e-01
9.98181056e-01
9.98166558e-01
9.98153330e-01
9.98141232e-01
9.98131434e-01
9.98124003e-01
9.98116599e-01
9.98110840e-01
9.98115424e-01
9.98120573e-01
1.00335109e+00
1.00335062e+00
1.00335129e+00
1.00334445e+00
1.00333501e+00
1.00332330e+00
1.00330901e+00
1.00329195e+00
1.00327259e+00
1.00325095e+00
1.00322698e+00
1.00320072e+00
1.00317223e+00
1.00314152e+00
1.00310862e+00
1.00307356e+00
1.00303639e+00
1.00299716e+00
1.00295591e+00
1.00291270e+00
1.00286759e+00
1.00282066e+00
1.00277197e+00
1.00272161e+00
1.00266967e+00
1.00261624e+00
1.00256140e+00
1.00250525e+00
1.00244791e+00
1.00238946e+00
1.00233001e+00
1.00226967e+00
1.00220855e+00
1.00214674e+00
1.00208435e+00
1.00202148e+00
1.00195824e+00
1.00189471e+00
1.00183100e+00
1.00176719e+00
1.00170337e+00
1.00163961e+00
1.00157600e+00
1.00151261e+00
1.00144949e+00
1.00138670e+00
1.00132430e+00
1.00126233e+00
1.00120082e+00
1.00113980e+00
1.00107930e+00
1.00101933e+00
1.00095990e+00
1.00090101e+00
1.00084266e+00
1.00078485e+00
1.00072755e+00
1.00067076e+00
1.00061446e+00
1.00055861e+00
1.00050321e+00
1.00044823e+00
1.00039365e+00
1.00033944e+00
1.00028559e+00
1.00023208e+00
1.00017890e+00
1.00012603e+00
1.00007348e+00
1.00002124e+00
9.99969303e-01
9.99917688e-01
9.99866400e-01
9.99815453e-01
9.99764863e-01
9.99714648e-01
9.99664831e-01
9.99615435e-01
9.99566484e-01
9.99518003e-01
9.99470017e-01
9.99422551e-01
9.99375628e-01
9.99329273e-01
9.99283505e-01
9.99238346e-01
9.99193812e-01
9.99149921e-01
9.99106687e-01
9.99064122e-01
9.99022238e-01
9.98981046e-01
9.98940555e-01
9.98900774e-01
9.98861710e-01
9.98823373e-01
9.98785772e-01
9.98748917e-01
9.98712818e-01
9.98677488e-01
9.98642941e-01
9.98609192e-01
9.98576259e-01
9.98544162e-01
9.98512922e-01
9.98482564e-01
9.98453112e-01
9.98424596e-01
9.98397045e-01
9.98370490e-01
9.98344967e-01
9.98320509e-01
9.98297153e-01
9.98274936e-01
9.98253900e-01
9.98234087e-01
9.98215532e-01
9.98198268e-01
9.98182379e-01
9.98167904e-01
9.98154840e-01
9.98143234e-01
9.98133513e-01
9.98125534e-01
9.98119005e-01
9.98114309e-01
9.98115527e-01
9.98115318e-01
1.00335684e+00
1.00335238e+00
1.00334478e+00
1.00334018e+00
1.00333244e+00
1.00331956e+00
1.00330484e+00
1.00328844e+00
1.00326926e+00
1.00324748e+00
1.00322363e+00
1.00319755e+00
1.00316913e+00
1.00313849e+00
1.00310571e+00
1.00307078e+00
1.00303372e+00
1.00299461e+00
1.00295350e+00
1.00291042e+00
1.00286545e+00
1.00281867e+00
1.00277014e+00
1.00271994e+00
1.00266815e+00
1.00261488e+00
1.00256020e+00
1.00250422e+00
1.00244704e+00
1.00238875e+00
1.00232947e+00
1.00226929e+00
1.00220831e+00
1.00214665e+00
1.00208440e+00
1.00202167e+00
1.00195855e+00
1.00189514e+00
1.00183154e+00
1.00176783e+00
1.00170409e+00
1.00164042e+00
1.00157687e+00
1.00151353e+00
1.00145046e+00
1.00138770e+00
1.00132532e+00
1.00126336e+00
1.00120185e+00
1.00114082e+00
1.00108030e+00
1.00102030e+00
1.00096084e+00
1.00090191e+00
1.00084351e+00
1.00078565e+00
1.00072830e+00
1.00067145e+00
1.00061508e+00
1.00055918e+00
1.00050373e+00
1.00044869e+00
1.00039406e+00
1.00033980e+00
1.00028591e+00
1.00023236e+00
1.00017915e+00
1.00012626e+00
1.00007369e+00
1.00002143e+00
9.99969486e-01
9.99917866e-01
9.99866578e-01
9.99815634e-01
9.99765051e-01
9.99714846e-01
9.99665041e-01
9.99615658e-01
9.99566721e-01
9.99518254e-01
9.99470283e-01
9.99422831e-01
9.99375922e-01
9.99329579e-01
9.99283823e-01
9.99238674e-01
9.99194151e-01
9.99150270e-01
9.99107046e-01
9.99064492e-01
9.99022620e-01
9.98981441e-01
9.98940966e-01
9.98901203e-01
9.98862162e-01
9.98823852e-01
9.98786283e-01
9.98749465e-01
9.98713409e-01
9.98678128e-01
9.98643637e-01
9.98609951e-01
9.98577088e-01
9.98545068e-01
9.98513913e-01
9.98483645e-01
9.98454292e-01
9.98425880e-01
9.98398438e-01
9.98372000e-01
9.98346600e-01
9.98322267e-01
9.98299035e-01
9.98276958e-01
9.98256072e-01
9.98236372e-01
9.98217936e-01
9.98200887e-01
9.98185146e-01
9.98170616e-01
9.98157761e-01
9.98146773e-01
9.98136718e-01
9.98127758e-01
9.98122742e-01
9.98119950e-01
9.98113946e-01
9.98110244e-01
1.00335212e+00
1.00334866e+00
1.00334274e+00
1.00333618e+00
1.00332640e+00
1.00331441e+00
1.00330022e+00
1.00328339e+00
1.00326412e+00
1.00324265e+00
1.00321889e+00
1.00319281e+00
1.00316451e+00
1.00313402e+00
1.00310135e+00
1.00306654e+00
1.00302963e+00
1.00299066e+00
1.00294970e+00
1.00290679e+00
1.00286199e+00
1.00281538e+00
1.00276703e+00
1.00271702e+00
1.00266543e+00
1.00261235e+00
1.00255787e+00
1.00250209e+00
1.00244511e+00
1.00238702e+00
1.00232793e+00
1.00226794e+00
1.00220715e+00
1.00214567e+00
1.00208360e+00
1.00202104e+00
1.00195808e+00
1.00189482e+00
1.00183136e+00
1.00176778e+00
1.00170416e+00
1.00164060e+00
1.00157715e+00
1.00151389e+00
1.00145089e+00
1.00138820e+00
1.00132587e+00
1.00126395e+00
1.00120247e+00
1.00114147e+00
1.00108096e+00
1.00102096e+00
1.00096149e+00
1.00090256e+00
1.00084415e+00
1.00078626e+00
1.00072889e+00
1.00067202e+00
1.00061563e+00
1.00055971e+00
1.00050423e+00
1.00044917e+00
1.00039452e+00
1.00034025e+00
1.00028635e+00
1.00023280e+00
1.00017959e+00
1.00012670e+00
1.00007414e+00
1.00002189e+00
9.99969970e-01
9.99918375e-01
9.99867115e-01
9.99816203e-01
9.99765654e-01
9.99715487e-01
9.99665721e-01
9.99616378e-01
9.99567483e-01
9.99519058e-01
9.99471127e-01
9.99423716e-01
9.99376848e-01
9.99330544e-01
9.99284828e-01
9.99239717e-01
9.99195232e-01
9.99151389e-01
9.99108203e-01
9.99065688e-01
9.99023857e-01
9.98982721e-01
9.98942291e-01
9.98902576e-01
9.98863588e-01
9.98825335e-01
9.98787828e-01
9.98751077e-01
9.98715094e-01
9.98679894e-01
9.98645489e-01
9.98611896e-01
9.98579132e-01
9.98547218e-01
9.98516175e-01
9.98486027e-01
9.98456798e-01
9.98428516e-01
9.98401212e-01
9.98374913e-01
9.98349653e-01
9.98325468e-01
9.98302392e-01
9.98280454e-01
9.98259703e-01
9.98240182e-01
9.98221906e-01
9.98204918e-01
9.98189320e-01
9.98175114e-01
9.98162242e-01
9.98150931e-01
9.98141383e-01
9.98133218e-01
9.98126458e-01
9.98122003e-01
9.98117601e-01
9.98114760e-01
1.00334604e+00
1.00334297e+00
1.00333855e+00
1.00332992e+00
1.00331948e+00
1.00330824e+00
1.00329387e+00
1.00327667e+00
1.00325756e+00
1.00323629e+00
1.00321252e+00
1.00318650e+00
1.00315835e+00
1.00312799e+00
1.00309543e+00
1.00306076e+00
1.00302402e+00
1.00298522e+00
1.00294443e+00
1.00290171e+00
1.00285712e+00
1.00281072e+00
1.00276258e+00
1.00271280e+00
1.00266144e+00
1.00260859e+00
1.00255435e+00
1.00249881e+00
1.00244206e+00
1.00238421e+00
1.00232536e+00
1.00226560e+00
1.00220504e+00
1.00214379e+00
1.00208193e+00
1.00201957e+00
1.00195681e+00
1.00189374e+00
1.00183046e+00
1.00176704e+00
1.00170359e+00
1.00164016e+00
1.00157685e+00
1.00151371e+00
1.00145082e+00
1.00138823e+00
1.00132598e+00
1.00126413e+00
1.00120272e+00
1.00114176e+00
1.00108130e+00
1.00102134e+00
1.00096190e+00
1.00090298e+00
1.00084459e+00
1.00078672e+00
1.00072935e+00
1.00067249e+00
1.00061611e+00
1.00056019e+00
1.00050472e+00
1.00044968e+00
1.00039504e+00
1.00034079e+00
1.00028691e+00
1.00023338e+00
1.00018020e+00
1.00012735e+00
1.00007483e+00
1.00002263e+00
9.99970756e-01
9.99919216e-01
9.99868015e-01
9.99817166e-01
9.99766683e-01
9.99716583e-01
9.99666886e-01
9.99617614e-01
9.99568788e-01
9.99520434e-01
9.99472574e-01
9.99425233e-01
9.99378433e-01
9.99332198e-01
9.99286548e-01
9.99241504e-01
9.99197084e-01
9.99153307e-01
9.99110187e-01
9.99067739e-01
9.99025977e-01
9.98984912e-01
9.98944555e-01
9.98904918e-01
9.98866010e-01
9.98827843e-01
9.98790426e-01
9.98753772e-01
9.98717892e-01
9.98682800e-01
9.98648511e-01
9.98615040e-01
9.98582406e-01
9.98550627e-01
9.98519725e-01
9.98489724e-01
9.98460648e-01
9.98432523e-01
9.98405380e-01
9.98379246e-01
9.98354150e-01
9.98330132e-01
9.98307228e-01
9.98285458e-01
9.98264855e-01
9.98245500e-01
9.98227410e-01
9.98210532e-01
9.98194995e-01
9.98181025e-01
9.98168360e-01
9.98156787e-01
9.98147135e-01
9.98139676e-01
9.98132397e-01
9.98126152e-01
9.98123086e-01
9.98120702e-01
1.00334007e+00
1.00333596e+00
1.00333020e+00
1.00332223e+00
1.00331246e+00
1.00330009e+00
1.00328531e+00
1.00326864e+00
1.00324961e+00
1.00322812e+00
1.00320444e+00
1.00317863e+00
1.00315056e+00
1.00312029e+00
1.00308790e+00
1.00305341e+00
1.00301683e+00
1.00297822e+00
1.00293765e+00
1.00289515e+00
1.00285078e+00
1.00280463e+00
1.00275675e+00
1.00270722e+00
1.00265613e+00
1.00260355e+00
1.00254959e+00
1.00249433e+00
1.00243787e+00
1.00238030e+00
1.00232173e+00
1.00226224e+00
1.00220196e+00
1.00214096e+00
1.00207936e+00
1.00201725e+00
1.00195473e+00
1.00189189e+00
1.00182883e+00
1.00176562e+00
1.00170236e+00
1.00163911e+00
1.00157597e+00
1.00151299e+00
1.00145024e+00
1.00138778e+00
1.00132565e+00
1.00126391e+00
1.00120259e+00
1.00114172e+00
1.00108133e+00
1.00102144e+00
1.00096205e+00
1.00090319e+00
1.00084484e+00
1.00078701e+00
1.00072969e+00
1.00067287e+00
1.00061652e+00
1.00056064e+00
1.00050521e+00
1.00045021e+00
1.00039561e+00
1.00034141e+00
1.00028758e+00
1.00023411e+00
1.00018099e+00
1.00012821e+00
1.00007576e+00
1.00002364e+00
9.99971847e-01
9.99920394e-01
9.99869283e-01
9.99818527e-01
9.99768140e-01
9.99718139e-01
9.99668542e-01
9.99619370e-01
9.99570646e-01
9.99522392e-01
9.99474633e-01
9.99427391e-01
9.99380690e-01
9.99334552e-01
9.99288998e-01
9.99244050e-01
9.99199726e-01
9.99156043e-01
9.99113019e-01
9.99070667e-01
9.99029002e-01
9.98988037e-01
9.98947783e-01
9.98908252e-01
9.98869455e-01
9.98831403e-01
9.98794107e-01
9.98757579e-01
9.98721832e-01
9.98686879e-01
9.98652735e-01
9.98619416e-01
9.98586940e-01
9.98555326e-01
9.98524595e-01
9.98494769e-01
9.98465873e-01
9.98437932e-01
9.98410974e-01
9.98385029e-01
9.98360128e-01
9.98336295e-01
9.98313569e-01
9.98291994e-01
9.98271587e-01
9.98252365e-01
9.98234411e-01
9.98217782e-01
9.98202397e-01
9.98188304e-01
9.98175776e-01
9.98164731e-01
9.98154780e-01
9.98146395e-01
9.98139757e-01
9.98134153e-01
9.98129956e-01
9.98126720e-01
1.00333137e+00
1.00332706e+00
1.00332063e+00
1.00331299e+00
1.00330297e+00
1.00329014e+00
1.00327558e+00
1.00325894e+00
1.00323972e+00
1.00321829e+00
1.00319479e+00
1.00316905e+00
1.00314106e+00
1.00311095e+00
1.00307874e+00
1.00304442e+00
1.00300803e+00
1.00296965e+00
1.00292931e+00
1.00288706e+00
1.00284296e+00
1.00279708e+00
1.00274949e+00
1.00270027e+00
1.00264948e+00
1.00259723e+00
1.00254358e+00
1.00248865e+00
1.00243251e+00
1.00237526e+00
1.00231701e+00
1.00225785e+00
1.00219788e+00
1.00213719e+00
1.00207589e+00
1.00201407e+00
1.00195183e+00
1.00188926e+00
1.00182645e+00
1.00176349e+00
1.00170046e+00
1.00163744e+00
1.00157450e+00
1.00151171e+00
1.00144914e+00
1.00138684e+00
1.00132487e+00
1.00126327e+00
1.00120208e+00
1.00114132e+00
1.00108104e+00
1.00102125e+00
1.00096196e+00
1.00090318e+00
1.00084491e+00
1.00078715e+00
1.00072990e+00
1.00067314e+00
1.00061687e+00
1.00056106e+00
1.00050569e+00
1.00045076e+00
1.00039624e+00
1.00034212e+00
1.00028837e+00
1.00023499e+00
1.00018196e+00
1.00012928e+00
1.00007693e+00
1.00002492e+00
9.99973246e-01
9.99921910e-01
9.99870921e-01
9.99820290e-01
9.99770030e-01
9.99720157e-01
9.99670691e-01
9.99621650e-01
9.99573058e-01
9.99524935e-01
9.99477306e-01
9.99430194e-01
9.99383621e-01
9.99337610e-01
9.99292182e-01
9.99247359e-01
9.99203159e-01
9.99159601e-01
9.99116701e-01
9.99074475e-01
9.99032937e-01
9.98992101e-01
9.98951979e-01
9.98912584e-01
9.98873927e-01
9.98836020e-01
9.98798874e-01
9.98762502e-01
9.98726917e-01
9.98692133e-01
9.98658164e-01
9.98625026e-01
9.98592738e-01
9.98561317e-01
9.98530784e-01
9.98501161e-01
9.98472473e-01
9.98444743e-01
9.98417997e-01
9.98392262e-01
9.98367573e-01
9.98343956e-01
9.98321433e-01
9.98300047e-01
9.98279847e-01
9.98260828e-01
9.98243008e-01
9.98226509e-01
9.98211351e-01
9.98197387e-01
9.98184766e-01
9.98173822e-01
9.98164132e-01
9.98155410e-01
9.98148605e-01
9.98143352e-01
9.98138621e-01
9.98135241e-01
1.00332006e+00
1.00331601e+00
1.00330997e+00
1.00330174e+00
1.00329123e+00
1.00327884e+00
1.00326428e+00
1.00324723e+00
1.00322810e+00
1.00320690e+00
1.00318341e+00
1.00315769e+00
1.00312988e+00
1.00309996e+00
1.00306790e+00
1.00303377e+00
1.00299763e+00
1.00295950e+00
1.00291941e+00
1.00287744e+00
1.00283364e+00
1.00278808e+00
1.00274081e+00
1.00269192e+00
1.00264149e+00
1.00258959e+00
1.00253630e+00
1.00248173e+00
1.00242596e+00
1.00236909e+00
1.00231120e+00
1.00225240e+00
1.00219278e+00
1.00213245e+00
1.00207149e+00
1.00201001e+00
1.00194809e+00
1.00188583e+00
1.00182332e+00
1.00176065e+00
1.00169789e+00
1.00163513e+00
1.00157243e+00
1.00150987e+00
1.00144752e+00
1.00138542e+00
1.00132363e+00
1.00126221e+00
1.00120118e+00
1.00114058e+00
1.00108044e+00
1.00102077e+00
1.00096161e+00
1.00090294e+00
1.00084478e+00
1.00078713e+00
1.00072998e+00
1.00067333e+00
1.00061715e+00
1.00056144e+00
1.00050618e+00
1.00045135e+00
1.00039693e+00
1.00034292e+00
1.00028929e+00
1.00023603e+00
1.00018313e+00
1.00013057e+00
1.00007836e+00
1.00002649e+00
9.99974957e-01
9.99923770e-01
9.99872933e-01
9.99822457e-01
9.99772355e-01
9.99722643e-01
9.99673337e-01
9.99624458e-01
9.99576027e-01
9.99528066e-01
9.99480598e-01
9.99433645e-01
9.99387230e-01
9.99341376e-01
9.99296105e-01
9.99251437e-01
9.99207391e-01
9.99163987e-01
9.99121242e-01
9.99079172e-01
9.99037791e-01
9.98997114e-01
9.98957155e-01
9.98917926e-01
9.98879439e-01
9.98841707e-01
9.98804742e-01
9.98768557e-01
9.98733164e-01
9.98698578e-01
9.98664814e-01
9.98631887e-01
9.98599815e-01
9.98568616e-01
9.98538311e-01
9.98508919e-01
9.98480463e-01
9.98452969e-01
9.98426461e-01
9.98400964e-01
9.98376504e-01
9.98353117e-01
9.98330832e-01
9.98309658e-01
9.98289640e-01
9.98270842e-01
9.98253251e-01
9.98236847e-01
9.98221764e-01
9.98208087e-01
9.98195613e-01
9.98184387e-01
9.98174771e-01
9.98166507e-01
9.98159343e-01
9.98153630e-01
9.98149306e-01
9.98146191e-01
1.00330737e+00
1.00330315e+00
1.00329707e+00
1.00328859e+00
1.00327810e+00
1.00326569e+00
1.00325089e+00
1.00323389e+00
1.00321490e+00
1.00319367e+00
1.00317021e+00
1.00314467e+00
1.00311703e+00
1.00308724e+00
1.00305538e+00
1.00302149e+00
1.00298560e+00
1.00294772e+00
1.00290793e+00
1.00286628e+00
1.00282281e+00
1.00277759e+00
1.00273069e+00
1.00268218e+00
1.00263213e+00
1.00258062e+00
1.00252774e+00
1.00247358e+00
1.00241822e+00
1.00236176e+00
1.00230428e+00
1.00224589e+00
1.00218667e+00
1.00212673e+00
1.00206616e+00
1.00200505e+00
1.00194350e+00
1.00188160e+00
1.00181943e+00
1.00175708e+00
1.00169463e+00
1.00163216e+00
1.00156975e+00
1.00150746e+00
1.00144535e+00
1.00138350e+00
1.00132193e+00
1.00126072e+00
1.00119988e+00
1.00113947e+00
1.00107951e+00
1.00102001e+00
1.00096100e+00
1.00090248e+00
1.00084447e+00
1.00078695e+00
1.00072994e+00
1.00067341e+00
1.00061737e+00
1.00056179e+00
1.00050666e+00
1.00045197e+00
1.00039769e+00
1.00034382e+00
1.00029033e+00
1.00023722e+00
1.00018448e+00
1.00013208e+00
1.00008004e+00
1.00002834e+00
9.99976982e-01
9.99925974e-01
9.99875320e-01
9.99825031e-01
9.99775117e-01
9.99725595e-01
9.99676481e-01
9.99627794e-01
9.99579555e-01
9.99531785e-01
9.99484507e-01
9.99437744e-01
9.99391518e-01
9.99345851e-01
9.99300765e-01
9.99256282e-01
9.99212420e-01
9.99169200e-01
9.99126639e-01
9.99084754e-01
9.99043561e-01
9.99003073e-01
9.98963306e-01
9.98924273e-01
9.98885986e-01
9.98848459e-01
9.98811705e-01
9.98775735e-01
9.98740565e-01
9.98706207e-01
9.98672676e-01
9.98639989e-01
9.98608162e-01
9.98577213e-01
9.98547161e-01
9.98518027e-01
9.98489831e-01
9.98462596e-01
9.98436348e-01
9.98411112e-01
9.98386910e-01
9.98363767e-01
9.98341722e-01
9.98320800e-01
9.98301005e-01
9.98282384e-01
9.98265001e-01
9.98248830e-01
9.98233853e-01
9.98220223e-01
9.98207959e-01
9.98196857e-01
9.98187104e-01
9.98178901e-01
9.98171821e-01
9.98165949e-01
9.98161641e-01
9.98158450e-01
1.00329303e+00
1.00328851e+00
1.00328208e+00
1.00327370e+00
1.00326326e+00
1.00325053e+00
1.00323570e+00
1.00321890e+00
1.00319985e+00
1.00317860e+00
1.00315531e+00
1.00312993e+00
1.00310240e+00
1.00307280e+00
1.00304119e+00
1.00300754e+00
1.00297191e+00
1.00293434e+00
1.00289487e+00
1.00285356e+00
1.00281045e+00
1.00276562e+00
1.00271912e+00
1.00267102e+00
1.00262139e+00
1.00257033e+00
1.00251789e+00
1.00246418e+00
1.00240927e+00
1.00235326e+00
1.00229624e+00
1.00223830e+00
1.00217953e+00
1.00212002e+00
1.00205988e+00
1.00199919e+00
1.00193805e+00
1.00187654e+00
1.00181475e+00
1.00175277e+00
1.00169067e+00
1.00162854e+00
1.00156645e+00
1.00150446e+00
1.00144265e+00
1.00138107e+00
1.00131976e+00
1.00125879e+00
1.00119820e+00
1.00113800e+00
1.00107825e+00
1.00101895e+00
1.00096013e+00
1.00090180e+00
1.00084396e+00
1.00078662e+00
1.00072977e+00
1.00067341e+00
1.00061753e+00
1.00056211e+00
1.00050715e+00
1.00045262e+00
1.00039851e+00
1.00034481e+00
1.00029151e+00
1.00023858e+00
1.00018602e+00
1.00013382e+00
1.00008197e+00
1.00003047e+00
9.99979323e-01
9.99928525e-01
9.99878085e-01
9.99828012e-01
9.99778318e-01
9.99729016e-01
9.99680124e-01
9.99631659e-01
9.99583642e-01
9.99536094e-01
9.99489037e-01
9.99442493e-01
9.99396486e-01
9.99351036e-01
9.99306166e-01
9.99261898e-01
9.99218252e-01
9.99175246e-01
9.99132900e-01
9.99091231e-01
9.99050255e-01
9.99009988e-01
9.98970444e-01
9.98931638e-01
9.98893582e-01
9.98856291e-01
9.98819777e-01
9.98784054e-01
9.98749135e-01
9.98715035e-01
9.98681767e-01
9.98649349e-01
9.98617795e-01
9.98587124e-01
9.98557353e-01
9.98528501e-01
9.98500591e-01
9.98473643e-01
9.98447676e-01
9.98422719e-01
9.98398797e-01
9.98375928e-01
9.98354134e-01
9.98333458e-01
9.98313926e-01
9.98295527e-01
9.98278303e-01
9.98262341e-01
9.98247600e-01
9.98234029e-01
9.98221795e-01
9.98210940e-01
9.98201249e-01
9.98192839e-01
9.98185871e-01
9.98180159e-01
9.98175607e-01
9.98172212e-01
1.00327661e+00
1.00327199e+00
1.00326543e+00
1.00325694e+00
1.00324635e+00
1.00323359e+00
1.00321884e+00
1.00320197e+00
1.00318291e+00
1.00316182e+00
1.00313866e+00
1.00311337e+00
1.00308602e+00
1.00305667e+00
1.00302528e+00
1.00299189e+00
1.00295656e+00
1.00291932e+00
1.00288021e+00
1.00283927e+00
1.00279656e+00
1.00275215e+00
1.00270608e+00
1.00265843e+00
1.00260928e+00
1.00255868e+00
1.00250674e+00
1.00245352e+00
1.00239910e+00
1.00234359e+00
1.00228706e+00
1.00222962e+00
1.00217133e+00
1.00211231e+00
1.00205264e+00
1.00199242e+00
1.00193172e+00
1.00187065e+00
1.00180928e+00
1.00174771e+00
1.00168601e+00
1.00162425e+00
1.00156252e+00
1.00150088e+00
1.00143939e+00
1.00137812e+00
1.00131712e+00
1.00125643e+00
1.00119610e+00
1.00113617e+00
1.00107666e+00
1.00101759e+00
1.00095900e+00
1.00090088e+00
1.00084325e+00
1.00078612e+00
1.00072947e+00
1.00067331e+00
1.00061762e+00
1.00056240e+00
1.00050764e+00
1.00045331e+00
1.00039940e+00
1.00034591e+00
1.00029281e+00
1.00024010e+00
1.00018776e+00
1.00013578e+00
1.00008416e+00
1.00003289e+00
9.99981980e-01
9.99931423e-01
9.99881227e-01
9.99831401e-01
9.99781956e-01
9.99732905e-01
9.99684265e-01
9.99636053e-01
9.99588288e-01
9.99540992e-01
9.99494186e-01
9.99447892e-01
9.99402133e-01
9.99356931e-01
9.99312308e-01
9.99268285e-01
9.99224884e-01
9.99182123e-01
9.99140023e-01
9.99098600e-01
9.99057873e-01
9.99017856e-01
9.98978566e-01
9.98940016e-01
9.98902222e-01
9.98865196e-01
9.98828953e-01
9.98793505e-01
9.98758868e-01
9.98725054e-01
9.98692078e-01
9.98659956e-01
9.98628702e-01
9.98598335e-01
9.98568871e-01
9.98540328e-01
9.98512726e-01
9.98486086e-01
9.98460428e-01
9.98435771e-01
9.98412140e-01
9.98389564e-01
9.98368057e-01
9.98347636e-01
9.98328345e-01
9.98310210e-01
9.98293214e-01
9.98277399e-01
9.98262839e-01
9.98249489e-01
9.98237328e-01
9.98226498e-01
9.98216958e-01
9.98208598e-01
9.98201571e-01
9.98195839e-01
9.98191235e-01
9.98187815e-01
1.00325826e+00
1.00325354e+00
1.00324691e+00
1.00323824e+00
1.00322753e+00
1.00321484e+00
1.00320006e+00
1.00318314e+00
1.00316420e+00
1.00314323e+00
1.00312015e+00
1.00309502e+00
1.00306791e+00
1.00303877e+00
1.00300763e+00
1.00297455e+00
1.00293955e+00
1.00290266e+00
1.00286392e+00
1.00282340e+00
1.00278112e+00
1.00273716e+00
1.00269156e+00
1.00264441e+00
1.00259576e+00
1.00254568e+00
1.00249426e+00
1.00244158e+00
1.00238771e+00
1.00233273e+00
1.00227675e+00
1.00221983e+00
1.00216208e+00
1.00210359e+00
1.00204443e+00
1.00198471e+00
1.00192451e+00
1.00186392e+00
1.00180302e+00
1.00174189e+00
1.00168062e+00
1.00161929e+00
1.00155796e+00
1.00149670e+00
1.00143558e+00
1.00137466e+00
1.00131399e+00
1.00125363e+00
1.00119360e+00
1.00113396e+00
1.00107473e+00
1.00101594e+00
1.00095760e+00
1.00089974e+00
1.00084236e+00
1.00078546e+00
1.00072904e+00
1.00067311e+00
1.00061766e+00
1.00056267e+00
1.00050813e+00
1.00045403e+00
1.00040036e+00
1.00034711e+00
1.00029425e+00
1.00024178e+00
1.00018969e+00
1.00013797e+00
1.00008660e+00
1.00003560e+00
9.99984955e-01
9.99934670e-01
9.99884749e-01
9.99835201e-01
9.99786035e-01
9.99737266e-01
9.99688908e-01
9.99640978e-01
9.99593496e-01
9.99546483e-01
9.99499958e-01
9.99453945e-01
9.99408466e-01
9.99363542e-01
9.99319197e-01
9.99275451e-01
9.99232326e-01
9.99189842e-01
9.99148019e-01
9.99106875e-01
9.99066427e-01
9.99026692e-01
9.98987687e-01
9.98949426e-01
9.98911924e-01
9.98875195e-01
9.98839253e-01
9.98804112e-01
9.98769786e-01
9.98736288e-01
9.98703633e-01
9.98671835e-01
9.98640910e-01
9.98610873e-01
9.98581741e-01
9.98553532e-01
9.98526262e-01
9.98499951e-01
9.98474620e-01
9.98450288e-01
9.98426971e-01
9.98404694e-01
9.98383486e-01
9.98363357e-01
9.98344319e-01
9.98326421e-01
9.98309685e-01
9.98294081e-01
9.98279655e-01
9.98266487e-01
9.98254513e-01
9.98243715e-01
9.98234223e-01
9.98226004e-01
9.98218956e-01
9.98213129e-01
9.98208546e-01
9.98205100e-01
1.00323806e+00
1.00323314e+00
1.00322636e+00
1.00321760e+00
1.00320687e+00
1.00319413e+00
1.00317932e+00
1.00316248e+00
1.00314364e+00
1.00312273e+00
1.00309980e+00
1.00307489e+00
1.00304798e+00
1.00301908e+00
1.00298824e+00
1.00295549e+00
1.00292083e+00
1.00288433e+00
1.00284601e+00
1.00280592e+00
1.00276411e+00
1.00272064e+00
1.00267556e+00
1.00262893e+00
1.00258083e+00
1.00253131e+00
1.00248046e+00
1.00242835e+00
1.00237506e+00
1.00232067e+00
1.00226527e+00
1.00220894e+00
1.00215176e+00
1.00209384e+00
1.00203524e+00
1.00197607e+00
1.00191640e+00
1.00185633e+00
1.00179594e+00
1.00173531e+00
1.00167451e+00
1.00161363e+00
1.00155274e+00
1.00149191e+00
1.00143120e+00
1.00137067e+00
1.00131038e+00
1.00125037e+00
1.00119069e+00
1.00113138e+00
1.00107247e+00
1.00101398e+00
1.00095594e+00
1.00089836e+00
1.00084126e+00
1.00078463e+00
1.00072849e+00
1.00067283e+00
1.00061763e+00
1.00056290e+00
1.00050863e+00
1.00045480e+00
1.00040139e+00
1.00034841e+00
1.00029582e+00
1.00024363e+00
1.00019182e+00
1.00014038e+00
1.00008931e+00
1.00003860e+00
9.99988252e-01
9.99938268e-01
9.99888652e-01
9.99839412e-01
9.99790556e-01
9.99742098e-01
9.99694053e-01
9.99646437e-01
9.99599268e-01
9.99552567e-01
9.99506355e-01
9.99460653e-01
9.99415484e-01
9.99370870e-01
9.99326834e-01
9.99283396e-01
9.99240579e-01
9.99198403e-01
9.99156888e-01
9.99116053e-01
9.99075917e-01
9.99036496e-01
9.98997806e-01
9.98959865e-01
9.98922686e-01
9.98886284e-01
9.98850673e-01
9.98815868e-01
9.98781882e-01
9.98748728e-01
9.98716421e-01
9.98684974e-01
9.98654403e-01
9.98624722e-01
9.98595947e-01
9.98568094e-01
9.98541180e-01
9.98515221e-01
9.98490234e-01
9.98466242e-01
9.98443262e-01
9.98421307e-01
9.98400401e-01
9.98380572e-01
9.98361828e-01
9.98344177e-01
9.98327665e-01
9.98312310e-01
9.98298087e-01
9.98285040e-01
9.98273221e-01
9.98262581e-01
9.98253135e-01
9.98244944e-01
9.98237950e-01
9.98232127e-01
9.98227475e-01
9.98223935e-01
1.00321586e+00
1.00321076e+00
1.00320382e+00
1.00319501e+00
1.00318424e+00
1.00317145e+00
1.00315667e+00
1.00313992e+00
1.00312114e+00
1.00310035e+00
1.00307762e+00
1.00305290e+00
1.00302621e+00
1.00299761e+00
1.00296709e+00
1.00293467e+00
1.00290040e+00
1.00286431e+00
1.00282644e+00
1.00278683e+00
1.00274552e+00
1.00270258e+00
1.00265805e+00
1.00261199e+00
1.00256447e+00
1.00251555e+00
1.00246531e+00
1.00241382e+00
1.00236115e+00
1.00230739e+00
1.00225262e+00
1.00219691e+00
1.00214036e+00
1.00208304e+00
1.00202505e+00
1.00196647e+00
1.00190738e+00
1.00184788e+00
1.00178804e+00
1.00172794e+00
1.00166766e+00
1.00160728e+00
1.00154688e+00
1.00148651e+00
1.00142624e+00
1.00136615e+00
1.00130627e+00
1.00124665e+00
1.00118736e+00
1.00112841e+00
1.00106986e+00
1.00101171e+00
1.00095400e+00
1.00089675e+00
1.00083996e+00
1.00078365e+00
1.00072781e+00
1.00067244e+00
1.00061755e+00
1.00056311e+00
1.00050914e+00
1.00045560e+00
1.00040250e+00
1.00034981e+00
1.00029753e+00
1.00024565e+00
1.00019415e+00
1.00014303e+00
1.00009227e+00
1.00004189e+00
9.99991872e-01
9.99942221e-01
9.99892941e-01
9.99844039e-01
9.99795524e-01
9.99747408e-01
9.99699706e-01
9.99652434e-01
9.99605610e-01
9.99559253e-01
9.99513384e-01
9.99468025e-01
9.99423199e-01
9.99378926e-01
9.99335230e-01
9.99292133e-01
9.99249656e-01
9.99207820e-01
9.99166647e-01
9.99126154e-01
9.99086362e-01
9.99047286e-01
9.99008946e-01
9.98971356e-01
9.98934532e-01
9.98898489e-01
9.98863241e-01
9.98828801e-01
9.98795185e-01
9.98762404e-01
9.98730473e-01
9.98699405e-01
9.98669214e-01
9.98639915e-01
9.98611521e-01
9.98584046e-01
9.98557508e-01
9.98531922e-01
9.98507303e-01
9.98483666e-01
9.98461034e-01
9.98439422e-01
9.98418839e-01
9.98399310e-01
9.98380862e-01
9.98363496e-01
9.98347221e-01
9.98332082e-01
9.98318089e-01
9.98305216e-01
9.98293513e-01
9.98283017e-01
9.98273679e-01
9.98265512e-01
9.98258553e-01
9.98252756e-01
9.98248041e-01
9.98244419e-01
1.00319157e+00
1.00318635e+00
1.00317930e+00
1.00317040e+00
1.00315957e+00
1.00314680e+00
1.00313207e+00
1.00311536e+00
1.00309669e+00
1.00307608e+00
1.00305353e+00
1.00302902e+00
1.00300262e+00
1.00297432e+00
1.00294413e+00
1.00291209e+00
1.00287824e+00
1.00284260e+00
1.00280520e+00
1.00276610e+00
1.00272533e+00
1.00268295e+00
1.00263901e+00
1.00259356e+00
1.00254666e+00
1.00249839e+00
1.00244880e+00
1.00239797e+00
1.00234597e+00
1.00229288e+00
1.00223878e+00
1.00218374e+00
1.00212785e+00
1.00207119e+00
1.00201385e+00
1.00195591e+00
1.00189744e+00
1.00183855e+00
1.00177930e+00
1.00171978e+00
1.00166006e+00
1.00160022e+00
1.00154034e+00
1.00148048e+00
1.00142070e+00
1.00136107e+00
1.00130165e+00
1.00124247e+00
1.00118360e+00
1.00112506e+00
1.00106690e+00
1.00100913e+00
1.00095180e+00
1.00089490e+00
1.00083847e+00
1.00078249e+00
1.00072699e+00
1.00067196e+00
1.00061740e+00
1.00056330e+00
1.00050965e+00
1.00045644e+00
1.00040367e+00
1.00035132e+00
1.00029938e+00
1.00024783e+00
1.00019668e+00
1.00014590e+00
1.00009551e+00
1.00004548e+00
9.99995820e-01
9.99946532e-01
9.99897618e-01
9.99849085e-01
9.99800941e-01
9.99753198e-01
9.99705870e-01
9.99658973e-01
9.99612524e-01
9.99566542e-01
9.99521048e-01
9.99476064e-01
9.99431611e-01
9.99387711e-01
9.99344388e-01
9.99301663e-01
9.99259559e-01
9.99218096e-01
9.99177295e-01
9.99137177e-01
9.99097760e-01
9.99059063e-01
9.99021103e-01
9.98983896e-01
9.98947457e-01
9.98911803e-01
9.98876947e-01
9.98842903e-01
9.98809685e-01
9.98777305e-01
9.98745777e-01
9.98715113e-01
9.98685327e-01
9.98656432e-01
9.98628441e-01
9.98601368e-01
9.98575226e-01
9.98550030e-01
9.98525795e-01
9.98502535e-01
9.98480264e-01
9.98459001e-01
9.98438763e-01
9.98419555e-01
9.98401398e-01
9.98384320e-01
9.98368319e-01
9.98353403e-01
9.98339611e-01
9.98326948e-01
9.98315401e-01
9.98305007e-01
9.98295780e-01
9.98287700e-01
9.98280765e-01
9.98274956e-01
9.98270220e-01
9.98266562e-01
1.00316521e+00
1.00315985e+00
1.00315270e+00
1.00314372e+00
1.00313287e+00
1.00312013e+00
1.00310544e+00
1.00308882e+00
1.00307030e+00
1.00304986e+00
1.00302750e+00
1.00300326e+00
1.00297715e+00
1.00294917e+00
1.00291935e+00
1.00288773e+00
1.00285432e+00
1.00281915e+00
1.00278228e+00
1.00274372e+00
1.00270353e+00
1.00266175e+00
1.00261843e+00
1.00257363e+00
1.00252740e+00
1.00247981e+00
1.00243092e+00
1.00238079e+00
1.00232950e+00
1.00227713e+00
1.00222374e+00
1.00216941e+00
1.00211423e+00
1.00205828e+00
1.00200162e+00
1.00194436e+00
1.00188657e+00
1.00182832e+00
1.00176971e+00
1.00171081e+00
1.00165169e+00
1.00159244e+00
1.00153313e+00
1.00147381e+00
1.00141457e+00
1.00135545e+00
1.00129652e+00
1.00123782e+00
1.00117941e+00
1.00112131e+00
1.00106358e+00
1.00100624e+00
1.00094931e+00
1.00089281e+00
1.00083676e+00
1.00078117e+00
1.00072605e+00
1.00067139e+00
1.00061719e+00
1.00056346e+00
1.00051017e+00
1.00045733e+00
1.00040492e+00
1.00035294e+00
1.00030137e+00