# vtk DataFile Version 2.0
LBM Flow Field - Timestep 2630
ASCII
DATASET STRUCTURED_POINTS
DIMENSIONS 128 128 1
ORIGIN 0.0 0.0 0.0
SPACING 1.0 1.0 1.0
POINT_DATA 16384
SCALARS density double 1
LOOKUP_TABLE default
1.00461923e+00
1.00461560e+00
1.00460905e+00
1.00459844e+00
1.00458415e+00
1.00456686e+00
1.00454619e+00
1.00452226e+00
1.00449545e+00
1.00446579e+00
1.00443317e+00
1.00439770e+00
1.00435944e+00
1.00431841e+00
1.00427460e+00
1.00422809e+00
1.00417894e+00
1.00412717e+00
1.00407285e+00
1.00401604e+00
1.00395681e+00
1.00389523e+00
1.00383139e+00
1.00376535e+00
1.00369722e+00
1.00362709e+00
1.00355505e+00
1.00348120e+00
1.00340567e+00
1.00332855e+00
1.00324997e+00
1.00317004e+00
1.00308889e+00
1.00300663e+00
1.00292339e+00
1.00283930e+00
1.00275447e+00
1.00266904e+00
1.00258311e+00
1.00249682e+00
1.00241026e+00
1.00232354e+00
1.00223677e+00
1.00215004e+00
1.00206343e+00
1.00197702e+00
1.00189087e+00
1.00180505e+00
1.00171959e+00
1.00163454e+00
1.00154992e+00
1.00146574e+00
1.00138200e+00
1.00129871e+00
1.00121584e+00
1.00113337e+00
1.00105126e+00
1.00096948e+00
1.00088798e+00
1.00080671e+00
1.00072560e+00
1.00064461e+00
1.00056365e+00
1.00048268e+00
1.00040163e+00
1.00032043e+00
1.00023902e+00
1.00015735e+00
1.00007537e+00
9.99993021e-01
9.99910272e-01
9.99827092e-01
9.99743458e-01
9.99659361e-01
9.99574800e-01
9.99489788e-01
9.99404351e-01
9.99318527e-01
9.99232367e-01
9.99145938e-01
9.99059317e-01
9.98972597e-01
9.98885881e-01
9.98799284e-01
9.98712934e-01
9.98626964e-01
9.98541516e-01
9.98456739e-01
9.98372784e-01
9.98289805e-01
9.98207957e-01
9.98127391e-01
9.98048254e-01
9.97970689e-01
9.97894829e-01
9.97820798e-01
9.97748711e-01
9.97678669e-01
9.97610762e-01
9.97545065e-01
9.97481642e-01
9.97420541e-01
9.97361797e-01
9.97305435e-01
9.97251467e-01
9.97199893e-01
9.97150704e-01
9.97103884e-01
9.97059413e-01
9.97017260e-01
9.96977391e-01
9.96939779e-01
9.96904389e-01
9.96871178e-01
9.96840113e-01
9.96811189e-01
9.96784361e-01
9.96759568e-01
9.96736838e-01
9.96716222e-01
9.96697582e-01
9.96680938e-01
9.96666625e-01
9.96654743e-01
9.96644848e-01
9.96637488e-01
9.96633737e-01
9.96632015e-01
1.00461680e+00
1.00461272e+00
1.00460537e+00
1.00459465e+00
1.00458043e+00
1.00456316e+00
1.00454259e+00
1.00451890e+00
1.00449218e+00
1.00446258e+00
1.00443004e+00
1.00439464e+00
1.00435641e+00
1.00431540e+00
1.00427163e+00
1.00422516e+00
1.00417603e+00
1.00412430e+00
1.00407002e+00
1.00401325e+00
1.00395407e+00
1.00389255e+00
1.00382877e+00
1.00376281e+00
1.00369476e+00
1.00362472e+00
1.00355278e+00
1.00347905e+00
1.00340364e+00
1.00332666e+00
1.00324821e+00
1.00316843e+00
1.00308743e+00
1.00300533e+00
1.00292225e+00
1.00283832e+00
1.00275366e+00
1.00266839e+00
1.00258263e+00
1.00249648e+00
1.00241007e+00
1.00232350e+00
1.00223686e+00
1.00215025e+00
1.00206376e+00
1.00197744e+00
1.00189139e+00
1.00180564e+00
1.00172024e+00
1.00163523e+00
1.00155064e+00
1.00146648e+00
1.00138275e+00
1.00129945e+00
1.00121656e+00
1.00113406e+00
1.00105191e+00
1.00097008e+00
1.00088852e+00
1.00080719e+00
1.00072601e+00
1.00064494e+00
1.00056392e+00
1.00048288e+00
1.00040175e+00
1.00032048e+00
1.00023901e+00
1.00015728e+00
1.00007524e+00
9.99992853e-01
9.99910070e-01
9.99826866e-01
9.99743221e-01
9.99659125e-01
9.99574578e-01
9.99489595e-01
9.99404199e-01
9.99318430e-01
9.99232339e-01
9.99145990e-01
9.99059462e-01
9.98972844e-01
9.98886241e-01
9.98799764e-01
9.98713538e-01
9.98627697e-01
9.98542379e-01
9.98457732e-01
9.98373904e-01
9.98291048e-01
9.98209315e-01
9.98128855e-01
9.98049814e-01
9.97972332e-01
9.97896543e-01
9.97822570e-01
9.97750525e-01
9.97680512e-01
9.97612620e-01
9.97546925e-01
9.97483491e-01
9.97422368e-01
9.97363593e-01
9.97307191e-01
9.97253177e-01
9.97201553e-01
9.97152312e-01
9.97105443e-01
9.97060922e-01
9.97018724e-01
9.96978819e-01
9.96941178e-01
9.96905764e-01
9.96872546e-01
9.96841492e-01
9.96812581e-01
9.96785770e-01
9.96761051e-01
9.96738401e-01
9.96717850e-01
9.96699327e-01
9.96682930e-01
9.96668713e-01
9.96656830e-01
9.96647056e-01
9.96639663e-01
9.96635005e-01
9.96632485e-01
1.00461414e+00
1.00460931e+00
1.00460116e+00
1.00459034e+00
1.00457638e+00
1.00455889e+00
1.00453832e+00
1.00451485e+00
1.00448825e+00
1.00445860e+00
1.00442611e+00
1.00439078e+00
1.00435256e+00
1.00431155e+00
1.00426781e+00
1.00422136e+00
1.00417224e+00
1.00412052e+00
1.00406626e+00
1.00400952e+00
1.00395036e+00
1.00388888e+00
1.00382514e+00
1.00375923e+00
1.00369125e+00
1.00362128e+00
1.00354942e+00
1.00347578e+00
1.00340047e+00
1.00332360e+00
1.00324528e+00
1.00316562e+00
1.00308476e+00
1.00300280e+00
1.00291988e+00
1.00283610e+00
1.00275159e+00
1.00266648e+00
1.00258087e+00
1.00249489e+00
1.00240863e+00
1.00232221e+00
1.00223571e+00
1.00214924e+00
1.00206287e+00
1.00197668e+00
1.00189073e+00
1.00180509e+00
1.00171978e+00
1.00163486e+00
1.00155034e+00
1.00146624e+00
1.00138256e+00
1.00129930e+00
1.00121644e+00
1.00113397e+00
1.00105184e+00
1.00097003e+00
1.00088848e+00
1.00080715e+00
1.00072598e+00
1.00064491e+00
1.00056389e+00
1.00048284e+00
1.00040172e+00
1.00032046e+00
1.00023900e+00
1.00015728e+00
1.00007527e+00
9.99992907e-01
9.99910162e-01
9.99827005e-01
9.99743417e-01
9.99659388e-01
9.99574919e-01
9.99490024e-01
9.99404728e-01
9.99319068e-01
9.99233096e-01
9.99146876e-01
9.99060483e-01
9.98974008e-01
9.98887551e-01
9.98801225e-01
9.98715151e-01
9.98629459e-01
9.98544290e-01
9.98459785e-01
9.98376092e-01
9.98293362e-01
9.98211745e-01
9.98131388e-01
9.98052436e-01
9.97975029e-01
9.97899298e-01
9.97825366e-01
9.97753348e-01
9.97683344e-01
9.97615444e-01
9.97549727e-01
9.97486257e-01
9.97425086e-01
9.97366252e-01
9.97309783e-01
9.97255695e-01
9.97203992e-01
9.97154671e-01
9.97107720e-01
9.97063119e-01
9.97020847e-01
9.96980876e-01
9.96943172e-01
9.96907703e-01
9.96874449e-01
9.96843375e-01
9.96814432e-01
9.96787612e-01
9.96762936e-01
9.96740327e-01
9.96719743e-01
9.96701321e-01
9.96685135e-01
9.96670928e-01
9.96658813e-01
9.96649279e-01
9.96641913e-01
9.96636046e-01
9.96632628e-01
1.00461069e+00
1.00460561e+00
1.00459700e+00
1.00458561e+00
1.00457139e+00
1.00455404e+00
1.00453357e+00
1.00451000e+00
1.00448341e+00
1.00445388e+00
1.00442142e+00
1.00438607e+00
1.00434788e+00
1.00430690e+00
1.00426316e+00
1.00421671e+00
1.00416760e+00
1.00411589e+00
1.00406164e+00
1.00400491e+00
1.00394578e+00
1.00388432e+00
1.00382061e+00
1.00375473e+00
1.00368679e+00
1.00361687e+00
1.00354507e+00
1.00347150e+00
1.00339626e+00
1.00331947e+00
1.00324124e+00
1.00316169e+00
1.00308093e+00
1.00299909e+00
1.00291629e+00
1.00283264e+00
1.00274827e+00
1.00266329e+00
1.00257782e+00
1.00249198e+00
1.00240587e+00
1.00231959e+00
1.00223323e+00
1.00214690e+00
1.00206067e+00
1.00197462e+00
1.00188880e+00
1.00180328e+00
1.00171810e+00
1.00163329e+00
1.00154889e+00
1.00146489e+00
1.00138132e+00
1.00129816e+00
1.00121540e+00
1.00113302e+00
1.00105098e+00
1.00096926e+00
1.00088780e+00
1.00080655e+00
1.00072546e+00
1.00064448e+00
1.00056354e+00
1.00048258e+00
1.00040154e+00
1.00032037e+00
1.00023901e+00
1.00015739e+00
1.00007548e+00
9.99993224e-01
9.99910593e-01
9.99827557e-01
9.99744096e-01
9.99660201e-01
9.99575873e-01
9.99491126e-01
9.99405984e-01
9.99320485e-01
9.99234678e-01
9.99148628e-01
9.99062408e-01
9.98976108e-01
9.98889827e-01
9.98803674e-01
9.98717772e-01
9.98632247e-01
9.98547237e-01
9.98462883e-01
9.98379332e-01
9.98296731e-01
9.98215229e-01
9.98134972e-01
9.98056104e-01
9.97978763e-01
9.97903080e-01
9.97829179e-01
9.97757172e-01
9.97687162e-01
9.97619239e-01
9.97553483e-01
9.97489958e-01
9.97428718e-01
9.97369804e-01
9.97313245e-01
9.97259058e-01
9.97207252e-01
9.97157823e-01
9.97110763e-01
9.97066056e-01
9.97023679e-01
9.96983606e-01
9.96945810e-01
9.96910262e-01
9.96876927e-01
9.96845782e-01
9.96816800e-01
9.96789953e-01
9.96765216e-01
9.96742596e-01
9.96722077e-01
9.96703647e-01
9.96687334e-01
9.96673208e-01
9.96661214e-01
9.96651328e-01
9.96643393e-01
9.96637189e-01
9.96633508e-01
1.00460597e+00
1.00460050e+00
1.00459204e+00
1.00458036e+00
1.00456577e+00
1.00454845e+00
1.00452799e+00
1.00450434e+00
1.00447779e+00
1.00444831e+00
1.00441585e+00
1.00438049e+00
1.00434233e+00
1.00430136e+00
1.00425761e+00
1.00421116e+00
1.00416206e+00
1.00411035e+00
1.00405609e+00
1.00399937e+00
1.00394024e+00
1.00387879e+00
1.00381509e+00
1.00374924e+00
1.00368131e+00
1.00361142e+00
1.00353966e+00
1.00346614e+00
1.00339096e+00
1.00331423e+00
1.00323607e+00
1.00315660e+00
1.00307593e+00
1.00299419e+00
1.00291149e+00
1.00282795e+00
1.00274370e+00
1.00265885e+00
1.00257351e+00
1.00248781e+00
1.00240183e+00
1.00231570e+00
1.00222949e+00
1.00214331e+00
1.00205723e+00
1.00197133e+00
1.00188567e+00
1.00180030e+00
1.00171527e+00
1.00163062e+00
1.00154636e+00
1.00146252e+00
1.00137910e+00
1.00129609e+00
1.00121349e+00
1.00113126e+00
1.00104937e+00
1.00096780e+00
1.00088649e+00
1.00080539e+00
1.00072446e+00
1.00064363e+00
1.00056285e+00
1.00048206e+00
1.00040118e+00
1.00032018e+00
1.00023898e+00
1.00015754e+00
1.00007580e+00
9.99993728e-01
9.99911282e-01
9.99828435e-01
9.99745168e-01
9.99661472e-01
9.99577347e-01
9.99492807e-01
9.99407876e-01
9.99322590e-01
9.99237000e-01
9.99151166e-01
9.99065164e-01
9.98979080e-01
9.98893011e-01
9.98807068e-01
9.98721367e-01
9.98636036e-01
9.98551210e-01
9.98467028e-01
9.98383634e-01
9.98301176e-01
9.98219799e-01
9.98139648e-01
9.98060868e-01
9.97983593e-01
9.97907956e-01
9.97834079e-01
9.97762075e-01
9.97692047e-01
9.97624086e-01
9.97558272e-01
9.97494673e-01
9.97433343e-01
9.97374324e-01
9.97317649e-01
9.97263336e-01
9.97211397e-01
9.97161830e-01
9.97114629e-01
9.97069781e-01
9.97027265e-01
9.96987056e-01
9.96949131e-01
9.96913465e-01
9.96880017e-01
9.96848763e-01
9.96819697e-01
9.96792783e-01
9.96767965e-01
9.96745271e-01
9.96724745e-01
9.96706289e-01
9.96689857e-01
9.96675676e-01
9.96663696e-01
9.96653450e-01
9.96645118e-01
9.96639026e-01
9.96634995e-01
1.00460044e+00
1.00459468e+00
1.00458585e+00
1.00457418e+00
1.00455956e+00
1.00454198e+00
1.00452141e+00
1.00449787e+00
1.00447132e+00
1.00444176e+00
1.00440932e+00
1.00437400e+00
1.00433582e+00
1.00429483e+00
1.00425109e+00
1.00420464e+00
1.00415553e+00
1.00410381e+00
1.00404955e+00
1.00399282e+00
1.00393368e+00
1.00387223e+00
1.00380853e+00
1.00374268e+00
1.00367477e+00
1.00360490e+00
1.00353316e+00
1.00345967e+00
1.00338452e+00
1.00330785e+00
1.00322974e+00
1.00315034e+00
1.00306974e+00
1.00298808e+00
1.00290548e+00
1.00282204e+00
1.00273790e+00
1.00265317e+00
1.00256796e+00
1.00248239e+00
1.00239656e+00
1.00231058e+00
1.00222453e+00
1.00213851e+00
1.00205260e+00
1.00196687e+00
1.00188138e+00
1.00179619e+00
1.00171135e+00
1.00162688e+00
1.00154282e+00
1.00145917e+00
1.00137595e+00
1.00129314e+00
1.00121074e+00
1.00112871e+00
1.00104704e+00
1.00096568e+00
1.00088458e+00
1.00080371e+00
1.00072300e+00
1.00064239e+00
1.00056184e+00
1.00048127e+00
1.00040064e+00
1.00031986e+00
1.00023891e+00
1.00015771e+00
1.00007622e+00
9.99994391e-01
9.99912197e-01
9.99829606e-01
9.99746597e-01
9.99663162e-01
9.99579301e-01
9.99495027e-01
9.99410363e-01
9.99325345e-01
9.99240022e-01
9.99154455e-01
9.99068716e-01
9.98982890e-01
9.98897075e-01
9.98811377e-01
9.98725912e-01
9.98640805e-01
9.98556190e-01
9.98472204e-01
9.98388989e-01
9.98306690e-01
9.98225452e-01
9.98145419e-01
9.98066733e-01
9.97989529e-01
9.97913938e-01
9.97840082e-01
9.97768075e-01
9.97698021e-01
9.97630011e-01
9.97564126e-01
9.97500435e-01
9.97438995e-01
9.97379851e-01
9.97323036e-01
9.97268572e-01
9.97216471e-01
9.97166738e-01
9.97119367e-01
9.97074345e-01
9.97031658e-01
9.96991285e-01
9.96953196e-01
9.96917368e-01
9.96883780e-01
9.96852399e-01
9.96823191e-01
9.96796149e-01
9.96771264e-01
9.96748487e-01
9.96727802e-01
9.96709265e-01
9.96692866e-01
9.96678507e-01
9.96666210e-01
9.96655913e-01
9.96647541e-01
9.96641085e-01
9.96636759e-01
1.00459353e+00
1.00458764e+00
1.00457863e+00
1.00456694e+00
1.00455230e+00
1.00453458e+00
1.00451395e+00
1.00449041e+00
1.00446381e+00
1.00443424e+00
1.00440181e+00
1.00436648e+00
1.00432829e+00
1.00428729e+00
1.00424355e+00
1.00419708e+00
1.00414795e+00
1.00409622e+00
1.00404195e+00
1.00398520e+00
1.00392606e+00
1.00386459e+00
1.00380089e+00
1.00373504e+00
1.00366713e+00
1.00359726e+00
1.00352554e+00
1.00345206e+00
1.00337695e+00
1.00330030e+00
1.00322225e+00
1.00314290e+00
1.00306237e+00
1.00298078e+00
1.00289826e+00
1.00281493e+00
1.00273089e+00
1.00264628e+00
1.00256120e+00
1.00247577e+00
1.00239009e+00
1.00230426e+00
1.00221838e+00
1.00213254e+00
1.00204681e+00
1.00196127e+00
1.00187598e+00
1.00179100e+00
1.00170638e+00
1.00162213e+00
1.00153830e+00
1.00145489e+00
1.00137190e+00
1.00128935e+00
1.00120719e+00
1.00112543e+00
1.00104402e+00
1.00096293e+00
1.00088211e+00
1.00080151e+00
1.00072109e+00
1.00064077e+00
1.00056051e+00
1.00048024e+00
1.00039990e+00
1.00031944e+00
1.00023879e+00
1.00015789e+00
1.00007672e+00
9.99995206e-01
9.99913329e-01
9.99831057e-01
9.99748369e-01
9.99665256e-01
9.99581718e-01
9.99497766e-01
9.99413425e-01
9.99328728e-01
9.99243723e-01
9.99158470e-01
9.99073040e-01
9.98987517e-01
9.98901994e-01
9.98816579e-01
9.98731384e-01
9.98646533e-01
9.98562157e-01
9.98478392e-01
9.98395377e-01
9.98313256e-01
9.98232172e-01
9.98152269e-01
9.98073685e-01
9.97996557e-01
9.97921014e-01
9.97847179e-01
9.97775166e-01
9.97705078e-01
9.97637009e-01
9.97571041e-01
9.97507245e-01
9.97445679e-01
9.97386389e-01
9.97329413e-01
9.97274775e-01
9.97222489e-01
9.97172563e-01
9.97124994e-01
9.97079772e-01
9.97036883e-01
9.96996311e-01
9.96958031e-01
9.96922015e-01
9.96888245e-01
9.96856699e-01
9.96827338e-01
9.96800138e-01
9.96775111e-01
9.96752225e-01
9.96731419e-01
9.96712737e-01
9.96696235e-01
9.96681753e-01
9.96669247e-01
9.96658851e-01
9.96650422e-01
9.96643753e-01
9.96639293e-01
1.00458527e+00
1.00457943e+00
1.00457049e+00
1.00455860e+00
1.00454383e+00
1.00452617e+00
1.00450552e+00
1.00448184e+00
1.00445522e+00
1.00442570e+00
1.00439323e+00
1.00435787e+00
1.00431968e+00
1.00427869e+00
1.00423493e+00
1.00418844e+00
1.00413930e+00
1.00408756e+00
1.00403327e+00
1.00397651e+00
1.00391735e+00
1.00385587e+00
1.00379215e+00
1.00372629e+00
1.00365837e+00
1.00358850e+00
1.00351679e+00
1.00344332e+00
1.00336823e+00
1.00329161e+00
1.00321359e+00
1.00313429e+00
1.00305382e+00
1.00297231e+00
1.00288987e+00
1.00280662e+00
1.00272269e+00
1.00263820e+00
1.00255325e+00
1.00246796e+00
1.00238243e+00
1.00229677e+00
1.00221107e+00
1.00212542e+00
1.00203990e+00
1.00195457e+00
1.00186951e+00
1.00178477e+00
1.00170038e+00
1.00161640e+00
1.00153283e+00
1.00144969e+00
1.00136700e+00
1.00128473e+00
1.00120288e+00
1.00112143e+00
1.00104034e+00
1.00095957e+00
1.00087909e+00
1.00079883e+00
1.00071875e+00
1.00063879e+00
1.00055888e+00
1.00047898e+00
1.00039900e+00
1.00031890e+00
1.00023862e+00
1.00015811e+00
1.00007731e+00
9.99996175e-01
9.99914679e-01
9.99832787e-01
9.99750481e-01
9.99667749e-01
9.99584591e-01
9.99501019e-01
9.99417053e-01
9.99332729e-01
9.99248092e-01
9.99163200e-01
9.99078123e-01
9.98992944e-01
9.98907754e-01
9.98822657e-01
9.98737766e-01
9.98653202e-01
9.98569093e-01
9.98485573e-01
9.98402780e-01
9.98320856e-01
9.98239943e-01
9.98160181e-01
9.98081710e-01
9.98004664e-01
9.97929174e-01
9.97855361e-01
9.97783339e-01
9.97713214e-01
9.97645079e-01
9.97579018e-01
9.97515104e-01
9.97453397e-01
9.97393947e-01
9.97336791e-01
9.97281959e-01
9.97229467e-01
9.97179324e-01
9.97131532e-01
9.97086086e-01
9.97042971e-01
9.97002171e-01
9.96963670e-01
9.96927445e-01
9.96893465e-01
9.96861710e-01
9.96832172e-01
9.96804813e-01
9.96779594e-01
9.96756530e-01
9.96735628e-01
9.96716813e-01
9.96700073e-01
9.96685471e-01
9.96672938e-01
9.96662341e-01
9.96653685e-01
9.96647030e-01
9.96642570e-01
1.00457591e+00
1.00456999e+00
1.00456105e+00
1.00454911e+00
1.00453429e+00
1.00451660e+00
1.00449589e+00
1.00447219e+00
1.00444558e+00
1.00441602e+00
1.00438353e+00
1.00434817e+00
1.00430998e+00
1.00426897e+00
1.00422519e+00
1.00417870e+00
1.00412955e+00
1.00407779e+00
1.00402348e+00
1.00396670e+00
1.00390753e+00
1.00384603e+00
1.00378230e+00
1.00371642e+00
1.00364850e+00
1.00357863e+00
1.00350691e+00
1.00343345e+00
1.00335837e+00
1.00328178e+00
1.00320379e+00
1.00312453e+00
1.00304412e+00
1.00296267e+00
1.00288031e+00
1.00279716e+00
1.00271334e+00
1.00262896e+00
1.00254415e+00
1.00245901e+00
1.00237364e+00
1.00228816e+00
1.00220265e+00
1.00211721e+00
1.00203191e+00
1.00194682e+00
1.00186201e+00
1.00177753e+00
1.00169342e+00
1.00160972e+00
1.00152646e+00
1.00144364e+00
1.00136127e+00
1.00127934e+00
1.00119784e+00
1.00111675e+00
1.00103603e+00
1.00095564e+00
1.00087555e+00
1.00079569e+00
1.00071601e+00
1.00063646e+00
1.00055697e+00
1.00047749e+00
1.00039794e+00
1.00031827e+00
1.00023843e+00
1.00015835e+00
1.00007798e+00
9.99997293e-01
9.99916237e-01
9.99834786e-01
9.99752920e-01
9.99670626e-01
9.99587905e-01
9.99504765e-01
9.99421228e-01
9.99337327e-01
9.99253105e-01
9.99168621e-01
9.99083941e-01
9.98999147e-01
9.98914329e-01
9.98829588e-01
9.98745035e-01
9.98660788e-01
9.98576974e-01
9.98493725e-01
9.98411177e-01
9.98329469e-01
9.98248742e-01
9.98169136e-01
9.98090788e-01
9.98013833e-01
9.97938400e-01
9.97864611e-01
9.97792581e-01
9.97722415e-01
9.97654208e-01
9.97588047e-01
9.97524004e-01
9.97462144e-01
9.97402519e-01
9.97345168e-01
9.97290123e-01
9.97237405e-01
9.97187026e-01
9.97138989e-01
9.97093293e-01
9.97049928e-01
9.97008880e-01
9.96970130e-01
9.96933663e-01
9.96899456e-01
9.96867478e-01
9.96837716e-01
9.96810158e-01
9.96784764e-01
9.96761512e-01
9.96740421e-01
9.96721461e-01
9.96704574e-01
9.96689802e-01
9.96677142e-01
9.96666426e-01
9.96657648e-01
9.96650942e-01
9.96646380e-01
1.00456538e+00
1.00455937e+00
1.00455032e+00
1.00453841e+00
1.00452360e+00
1.00450581e+00
1.00448507e+00
1.00446140e+00
1.00443475e+00
1.00440515e+00
1.00437268e+00
1.00433733e+00
1.00429912e+00
1.00425810e+00
1.00421432e+00
1.00416782e+00
1.00411865e+00
1.00406688e+00
1.00401257e+00
1.00395577e+00
1.00389658e+00
1.00383507e+00
1.00377132e+00
1.00370544e+00
1.00363750e+00
1.00356763e+00
1.00349591e+00
1.00342246e+00
1.00334739e+00
1.00327082e+00
1.00319287e+00
1.00311365e+00
1.00303328e+00
1.00295190e+00
1.00286962e+00
1.00278657e+00
1.00270285e+00
1.00261860e+00
1.00253393e+00
1.00244895e+00
1.00236376e+00
1.00227847e+00
1.00219317e+00
1.00210795e+00
1.00202289e+00
1.00193806e+00
1.00185352e+00
1.00176933e+00
1.00168553e+00
1.00160216e+00
1.00151923e+00
1.00143676e+00
1.00135476e+00
1.00127321e+00
1.00119211e+00
1.00111142e+00
1.00103112e+00
1.00095117e+00
1.00087151e+00
1.00079210e+00
1.00071288e+00
1.00063380e+00
1.00055479e+00
1.00047578e+00
1.00039672e+00
1.00031754e+00
1.00023819e+00
1.00015861e+00
1.00007874e+00
9.99998550e-01
9.99917993e-01
9.99837040e-01
9.99755670e-01
9.99673871e-01
9.99591639e-01
9.99508985e-01
9.99425927e-01
9.99342498e-01
9.99258740e-01
9.99174708e-01
9.99090469e-01
9.99006102e-01
9.98921694e-01
9.98837345e-01
9.98753164e-01
9.98669266e-01
9.98585776e-01
9.98502824e-01
9.98420545e-01
9.98339074e-01
9.98258552e-01
9.98179117e-01
9.98100906e-01
9.98024051e-01
9.97948683e-01
9.97874923e-01
9.97802886e-01
9.97732678e-01
9.97664397e-01
9.97598130e-01
9.97533952e-01
9.97471929e-01
9.97412116e-01
9.97354557e-01
9.97299285e-01
9.97246324e-01
9.97195691e-01
9.97147392e-01
9.97101425e-01
9.97057788e-01
9.97016470e-01
9.96977454e-01
9.96940719e-01
9.96906256e-01
9.96874042e-01
9.96844043e-01
9.96816245e-01
9.96790651e-01
9.96767219e-01
9.96745911e-01
9.96726757e-01
9.96709756e-01
9.96694826e-01
9.96681960e-01
9.96671163e-01
9.96662339e-01
9.96655472e-01
9.96650794e-01
1.00455348e+00
1.00454744e+00
1.00453836e+00
1.00452643e+00
1.00451159e+00
1.00449378e+00
1.00447305e+00
1.00444935e+00
1.00442268e+00
1.00439310e+00
1.00436063e+00
1.00432526e+00
1.00428705e+00
1.00424605e+00
1.00420227e+00
1.00415576e+00
1.00410659e+00
1.00405482e+00
1.00400049e+00
1.00394369e+00
1.00388449e+00
1.00382297e+00
1.00375922e+00
1.00369332e+00
1.00362538e+00
1.00355550e+00
1.00348379e+00
1.00341035e+00
1.00333530e+00
1.00325875e+00
1.00318083e+00
1.00310165e+00
1.00302135e+00
1.00294004e+00
1.00285784e+00
1.00277489e+00
1.00269129e+00
1.00260718e+00
1.00252265e+00
1.00243784e+00
1.00235284e+00
1.00226775e+00
1.00218268e+00
1.00209770e+00
1.00201290e+00
1.00192835e+00
1.00184411e+00
1.00176024e+00
1.00167677e+00
1.00159375e+00
1.00151119e+00
1.00142912e+00
1.00134752e+00
1.00126639e+00
1.00118572e+00
1.00110549e+00
1.00102565e+00
1.00094617e+00
1.00086701e+00
1.00078810e+00
1.00070939e+00
1.00063083e+00
1.00055234e+00
1.00047387e+00
1.00039535e+00
1.00031672e+00
1.00023792e+00
1.00015889e+00
1.00007957e+00
9.99999936e-01
9.99919933e-01
9.99839532e-01
9.99758713e-01
9.99677460e-01
9.99595770e-01
9.99513652e-01
9.99431123e-01
9.99348214e-01
9.99264965e-01
9.99181431e-01
9.99097676e-01
9.99013776e-01
9.98929817e-01
9.98845897e-01
9.98762122e-01
9.98678605e-01
9.98595469e-01
9.98512842e-01
9.98430855e-01
9.98349644e-01
9.98269346e-01
9.98190099e-01
9.98112038e-01
9.98035296e-01
9.97960001e-01
9.97886275e-01
9.97814235e-01
9.97743988e-01
9.97675632e-01
9.97609255e-01
9.97544937e-01
9.97482744e-01
9.97422734e-01
9.97364955e-01
9.97309444e-01
9.97256227e-01
9.97205323e-01
9.97156744e-01
9.97110493e-01
9.97066565e-01
9.97024955e-01
9.96985654e-01
9.96948641e-01
9.96913899e-01
9.96881416e-01
9.96851172e-01
9.96823137e-01
9.96797299e-01
9.96773653e-01
9.96752163e-01
9.96732813e-01
9.96715622e-01
9.96700552e-01
9.96687553e-01
9.96676622e-01
9.96667699e-01
9.96660749e-01
9.96656007e-01
1.00454021e+00
1.00453415e+00
1.00452509e+00
1.00451311e+00
1.00449824e+00
1.00448046e+00
1.00445972e+00
1.00443599e+00
1.00440935e+00
1.00437979e+00
1.00434731e+00
1.00431195e+00
1.00427376e+00
1.00423276e+00
1.00418899e+00
1.00414250e+00
1.00409334e+00
1.00404156e+00
1.00398724e+00
1.00393044e+00
1.00387124e+00
1.00380972e+00
1.00374596e+00
1.00368007e+00
1.00361214e+00
1.00354226e+00
1.00347056e+00
1.00339713e+00
1.00332210e+00
1.00324559e+00
1.00316771e+00
1.00308858e+00
1.00300834e+00
1.00292711e+00
1.00284501e+00
1.00276216e+00
1.00267869e+00
1.00259472e+00
1.00251036e+00
1.00242573e+00
1.00234093e+00
1.00225606e+00
1.00217123e+00
1.00208651e+00
1.00200200e+00
1.00191775e+00
1.00183383e+00
1.00175030e+00
1.00166720e+00
1.00158457e+00
1.00150241e+00
1.00142075e+00
1.00133959e+00
1.00125893e+00
1.00117873e+00
1.00109899e+00
1.00101966e+00
1.00094070e+00
1.00086207e+00
1.00078371e+00
1.00070556e+00
1.00062756e+00
1.00054966e+00
1.00047177e+00
1.00039384e+00
1.00031581e+00
1.00023761e+00
1.00015918e+00
1.00008047e+00
1.00000144e+00
9.99922044e-01
9.99842248e-01
9.99762029e-01
9.99681374e-01
9.99600276e-01
9.99518743e-01
9.99436791e-01
9.99354448e-01
9.99271755e-01
9.99188762e-01
9.99105533e-01
9.99022140e-01
9.98938670e-01
9.98855215e-01
9.98771881e-01
9.98688778e-01
9.98606026e-01
9.98523752e-01
9.98442084e-01
9.98361156e-01
9.98281104e-01
9.98202063e-01
9.98124169e-01
9.98047553e-01
9.97972343e-01
9.97898662e-01
9.97826626e-01
9.97756344e-01
9.97687915e-01
9.97621429e-01
9.97556968e-01
9.97494601e-01
9.97434390e-01
9.97376384e-01
9.97320623e-01
9.97267140e-01
9.97215955e-01
9.97167083e-01
9.97120532e-01
9.97076303e-01
9.97034387e-01
9.96994780e-01
9.96957473e-01
9.96922444e-01
9.96889675e-01
9.96859160e-01
9.96830879e-01
9.96804797e-01
9.96780908e-01
9.96759220e-01
9.96739688e-01
9.96722292e-01
9.96707059e-01
9.96693954e-01
9.96682888e-01
9.96673838e-01
9.96666839e-01
9.96662040e-01
1.00452555e+00
1.00451945e+00
1.00451037e+00
1.00449840e+00
1.00448354e+00
1.00446576e+00
1.00444501e+00
1.00442131e+00
1.00439469e+00
1.00436513e+00
1.00433267e+00
1.00429735e+00
1.00425919e+00
1.00421820e+00
1.00417446e+00
1.00412799e+00
1.00407885e+00
1.00402709e+00
1.00397278e+00
1.00391600e+00
1.00385681e+00
1.00379530e+00
1.00373156e+00
1.00366568e+00
1.00359776e+00
1.00352790e+00
1.00345621e+00
1.00338281e+00
1.00330782e+00
1.00323134e+00
1.00315352e+00
1.00307446e+00
1.00299429e+00
1.00291315e+00
1.00283115e+00
1.00274843e+00
1.00266510e+00
1.00258128e+00
1.00249710e+00
1.00241267e+00
1.00232808e+00
1.00224346e+00
1.00215889e+00
1.00207445e+00
1.00199024e+00
1.00190632e+00
1.00182275e+00
1.00173959e+00
1.00165688e+00
1.00157465e+00
1.00149293e+00
1.00141173e+00
1.00133104e+00
1.00125086e+00
1.00117118e+00
1.00109197e+00
1.00101318e+00
1.00093478e+00
1.00085673e+00
1.00077896e+00
1.00070141e+00
1.00062403e+00
1.00054674e+00
1.00046949e+00
1.00039220e+00
1.00031481e+00
1.00023726e+00
1.00015948e+00
1.00008143e+00
1.00000306e+00
9.99924313e-01
9.99845171e-01
9.99765603e-01
9.99685592e-01
9.99605135e-01
9.99524233e-01
9.99442904e-01
9.99361173e-01
9.99279079e-01
9.99196670e-01
9.99114008e-01
9.99031164e-01
9.98948220e-01
9.98865268e-01
9.98782409e-01
9.98699753e-01
9.98617417e-01
9.98535524e-01
9.98454202e-01
9.98373582e-01
9.98293798e-01
9.98214984e-01
9.98137275e-01
9.98060800e-01
9.97985689e-01
9.97912063e-01
9.97840040e-01
9.97769729e-01
9.97701231e-01
9.97634638e-01
9.97570035e-01
9.97507493e-01
9.97447077e-01
9.97388839e-01
9.97332824e-01
9.97279066e-01
9.97227591e-01
9.97178418e-01
9.97131555e-01
9.97087010e-01
9.97044781e-01
9.97004859e-01
9.96967238e-01
9.96931910e-01
9.96898854e-01
9.96868052e-01
9.96839499e-01
9.96813176e-01
9.96789056e-01
9.96767134e-01
9.96747406e-01
9.96729845e-01
9.96714440e-01
9.96701183e-01
9.96690013e-01
9.96680882e-01
9.96673802e-01
9.96668922e-01
1.00450941e+00
1.00450328e+00
1.00449419e+00
1.00448224e+00
1.00446740e+00
1.00444961e+00
1.00442889e+00
1.00440524e+00
1.00437863e+00
1.00434910e+00
1.00431669e+00
1.00428141e+00
1.00424328e+00
1.00420234e+00
1.00415863e+00
1.00411220e+00
1.00406309e+00
1.00401137e+00
1.00395710e+00
1.00390034e+00
1.00384118e+00
1.00377970e+00
1.00371599e+00
1.00365013e+00
1.00358224e+00
1.00351242e+00
1.00344077e+00
1.00336741e+00
1.00329246e+00
1.00321604e+00
1.00313828e+00
1.00305930e+00
1.00297923e+00
1.00289819e+00
1.00281631e+00
1.00273373e+00
1.00265055e+00
1.00256691e+00
1.00248293e+00
1.00239871e+00
1.00231436e+00
1.00223000e+00
1.00214570e+00
1.00206157e+00
1.00197769e+00
1.00189411e+00
1.00181092e+00
1.00172815e+00
1.00164586e+00
1.00156407e+00
1.00148281e+00
1.00140209e+00
1.00132191e+00
1.00124226e+00
1.00116312e+00
1.00108446e+00
1.00100626e+00
1.00092846e+00
1.00085102e+00
1.00077387e+00
1.00069697e+00
1.00062024e+00
1.00054362e+00
1.00046704e+00
1.00039043e+00
1.00031373e+00
1.00023687e+00
1.00015980e+00
1.00008245e+00
1.00000477e+00
9.99926731e-01
9.99848288e-01
9.99769416e-01
9.99690098e-01
9.99610325e-01
9.99530101e-01
9.99449439e-01
9.99368365e-01
9.99286912e-01
9.99205130e-01
9.99123077e-01
9.99040820e-01
9.98958441e-01
9.98876029e-01
9.98793681e-01
9.98711506e-01
9.98629618e-01
9.98548137e-01
9.98467189e-01
9.98386903e-01
9.98307412e-01
9.98228847e-01
9.98151343e-01
9.98075028e-01
9.98000031e-01
9.97926475e-01
9.97854477e-01
9.97784147e-01
9.97715588e-01
9.97648895e-01
9.97584153e-01
9.97521439e-01
9.97460818e-01
9.97402348e-01
9.97346076e-01
9.97292040e-01
9.97240270e-01
9.97190789e-01
9.97143610e-01
9.97098741e-01
9.97056187e-01
9.97015946e-01
9.96978006e-01
9.96942363e-01
9.96909008e-01
9.96877923e-01
9.96849089e-01
9.96822506e-01
9.96798154e-01
9.96776006e-01
9.96756065e-01
9.96738332e-01
9.96722770e-01
9.96709360e-01
9.96698084e-01
9.96688883e-01
9.96681722e-01
9.96676775e-01
1.00449171e+00
1.00448557e+00
1.00447649e+00
1.00446456e+00
1.00444974e+00
1.00443200e+00
1.00441132e+00
1.00438769e+00
1.00436113e+00
1.00433167e+00
1.00429931e+00
1.00426407e+00
1.00422600e+00
1.00418512e+00
1.00414147e+00
1.00409509e+00
1.00404605e+00
1.00399438e+00
1.00394016e+00
1.00388345e+00
1.00382434e+00
1.00376291e+00
1.00369924e+00
1.00363343e+00
1.00356559e+00
1.00349581e+00
1.00342422e+00
1.00335092e+00
1.00327604e+00
1.00319970e+00
1.00312203e+00
1.00304314e+00
1.00296318e+00
1.00288226e+00
1.00280053e+00
1.00271810e+00
1.00263510e+00
1.00255165e+00
1.00246788e+00
1.00238390e+00
1.00229981e+00
1.00221573e+00
1.00213174e+00
1.00204793e+00
1.00196440e+00
1.00188120e+00
1.00179840e+00
1.00171605e+00
1.00163420e+00
1.00155288e+00
1.00147211e+00
1.00139190e+00
1.00131225e+00
1.00123315e+00
1.00115458e+00
1.00107652e+00
1.00099893e+00
1.00092176e+00
1.00084497e+00
1.00076849e+00
1.00069226e+00
1.00061622e+00
1.00054031e+00
1.00046444e+00
1.00038855e+00
1.00031258e+00
1.00023646e+00
1.00016012e+00
1.00008351e+00
1.00000658e+00
9.99929287e-01
9.99851587e-01
9.99773455e-01
9.99694872e-01
9.99615828e-01
9.99536325e-01
9.99456374e-01
9.99375997e-01
9.99295229e-01
9.99214115e-01
9.99132710e-01
9.99051080e-01
9.98969304e-01
9.98887468e-01
9.98805667e-01
9.98724007e-01
9.98642599e-01
9.98561560e-01
9.98481016e-01
9.98401091e-01
9.98321918e-01
9.98243626e-01
9.98166348e-01
9.98090213e-01
9.98015348e-01
9.97941876e-01
9.97869916e-01
9.97799579e-01
9.97730970e-01
9.97664184e-01
9.97599310e-01
9.97536428e-01
9.97475606e-01
9.97416904e-01
9.97360375e-01
9.97306061e-01
9.97253995e-01
9.97204202e-01
9.97156704e-01
9.97111509e-01
9.97068624e-01
9.97028054e-01
9.96989794e-01
9.96953835e-01
9.96920170e-01
9.96888794e-01
9.96859688e-01
9.96832837e-01
9.96808238e-01
9.96785876e-01
9.96765733e-01
9.96747808e-01
9.96732093e-01
9.96718560e-01
9.96707172e-01
9.96697887e-01
9.96690678e-01
9.96685691e-01
1.00447240e+00
1.00446626e+00
1.00445722e+00
1.00444532e+00
1.00443054e+00
1.00441285e+00
1.00439221e+00
1.00436864e+00
1.00434216e+00
1.00431276e+00
1.00428047e+00
1.00424531e+00
1.00420732e+00
1.00416652e+00
1.00412295e+00
1.00407665e+00
1.00402768e+00
1.00397608e+00
1.00392194e+00
1.00386530e+00
1.00380626e+00
1.00374490e+00
1.00368130e+00
1.00361557e+00
1.00354779e+00
1.00347809e+00
1.00340658e+00
1.00333337e+00
1.00325857e+00
1.00318233e+00
1.00310476e+00
1.00302600e+00
1.00294617e+00
1.00286540e+00
1.00278383e+00
1.00270158e+00
1.00261878e+00
1.00253555e+00
1.00245202e+00
1.00236830e+00
1.00228449e+00
1.00220071e+00
1.00211705e+00
1.00203359e+00
1.00195043e+00
1.00186763e+00
1.00178525e+00
1.00170335e+00
1.00162196e+00
1.00154113e+00
1.00146087e+00
1.00138120e+00
1.00130211e+00
1.00122359e+00
1.00114563e+00
1.00106819e+00
1.00099124e+00
1.00091473e+00
1.00083862e+00
1.00076283e+00
1.00068732e+00
1.00061200e+00
1.00053682e+00
1.00046170e+00
1.00038657e+00