# vtk DataFile Version 2.0
LBM Flow Field - Timestep 2240
ASCII
DATASET STRUCTURED_POINTS
DIMENSIONS 128 128 1
ORIGIN 0.0 0.0 0.0
SPACING 1.0 1.0 1.0
POINT_DATA 16384
SCALARS density double 1
LOOKUP_TABLE default
1.00075787e+00
1.00075151e+00
1.00074405e+00
1.00074351e+00
1.00074141e+00
1.00073683e+00
1.00073219e+00
1.00072737e+00
1.00072152e+00
1.00071486e+00
1.00070769e+00
1.00069990e+00
1.00069142e+00
1.00068236e+00
1.00067277e+00
1.00066267e+00
1.00065212e+00
1.00064120e+00
1.00062999e+00
1.00061857e+00
1.00060705e+00
1.00059554e+00
1.00058415e+00
1.00057300e+00
1.00056222e+00
1.00055194e+00
1.00054229e+00
1.00053340e+00
1.00052539e+00
1.00051837e+00
1.00051247e+00
1.00050776e+00
1.00050434e+00
1.00050226e+00
1.00050156e+00
1.00050229e+00
1.00050442e+00
1.00050794e+00
1.00051280e+00
1.00051892e+00
1.00052620e+00
1.00053453e+00
1.00054374e+00
1.00055369e+00
1.00056418e+00
1.00057501e+00
1.00058598e+00
1.00059686e+00
1.00060744e+00
1.00061749e+00
1.00062681e+00
1.00063519e+00
1.00064246e+00
1.00064843e+00
1.00065296e+00
1.00065594e+00
1.00065727e+00
1.00065688e+00
1.00065474e+00
1.00065085e+00
1.00064523e+00
1.00063793e+00
1.00062904e+00
1.00061865e+00
1.00060688e+00
1.00059389e+00
1.00057981e+00
1.00056482e+00
1.00054909e+00
1.00053279e+00
1.00051609e+00
1.00049916e+00
1.00048217e+00
1.00046526e+00
1.00044860e+00
1.00043230e+00
1.00041648e+00
1.00040125e+00
1.00038669e+00
1.00037288e+00
1.00035986e+00
1.00034769e+00
1.00033637e+00
1.00032592e+00
1.00031632e+00
1.00030755e+00
1.00029956e+00
1.00029230e+00
1.00028570e+00
1.00027967e+00
1.00027411e+00
1.00026891e+00
1.00026396e+00
1.00025913e+00
1.00025428e+00
1.00024928e+00
1.00024399e+00
1.00023826e+00
1.00023197e+00
1.00022499e+00
1.00021719e+00
1.00020848e+00
1.00019876e+00
1.00018796e+00
1.00017603e+00
1.00016295e+00
1.00014870e+00
1.00013331e+00
1.00011683e+00
1.00009933e+00
1.00008092e+00
1.00006173e+00
1.00004191e+00
1.00002163e+00
1.00000111e+00
9.99980526e-01
9.99960125e-01
9.99940193e-01
9.99920909e-01
9.99902416e-01
9.99885170e-01
9.99869621e-01
9.99855203e-01
9.99842008e-01
9.99832481e-01
9.99826113e-01
9.99813907e-01
9.99804483e-01
1.00074978e+00
1.00074854e+00
1.00074391e+00
1.00074192e+00
1.00073937e+00
1.00073566e+00
1.00073126e+00
1.00072633e+00
1.00072072e+00
1.00071438e+00
1.00070739e+00
1.00069978e+00
1.00069155e+00
1.00068273e+00
1.00067337e+00
1.00066352e+00
1.00065323e+00
1.00064257e+00
1.00063162e+00
1.00062047e+00
1.00060922e+00
1.00059797e+00
1.00058684e+00
1.00057595e+00
1.00056543e+00
1.00055539e+00
1.00054597e+00
1.00053729e+00
1.00052948e+00
1.00052264e+00
1.00051689e+00
1.00051231e+00
1.00050898e+00
1.00050697e+00
1.00050631e+00
1.00050703e+00
1.00050914e+00
1.00051259e+00
1.00051735e+00
1.00052334e+00
1.00053046e+00
1.00053859e+00
1.00054758e+00
1.00055728e+00
1.00056750e+00
1.00057805e+00
1.00058872e+00
1.00059929e+00
1.00060956e+00
1.00061930e+00
1.00062831e+00
1.00063640e+00
1.00064337e+00
1.00064907e+00
1.00065334e+00
1.00065608e+00
1.00065719e+00
1.00065661e+00
1.00065429e+00
1.00065024e+00
1.00064449e+00
1.00063707e+00
1.00062807e+00
1.00061759e+00
1.00060575e+00
1.00059269e+00
1.00057855e+00
1.00056350e+00
1.00054771e+00
1.00053135e+00
1.00051459e+00
1.00049761e+00
1.00048055e+00
1.00046358e+00
1.00044684e+00
1.00043046e+00
1.00041456e+00
1.00039924e+00
1.00038460e+00
1.00037069e+00
1.00035758e+00
1.00034531e+00
1.00033390e+00
1.00032335e+00
1.00031366e+00
1.00030479e+00
1.00029671e+00
1.00028936e+00
1.00028267e+00
1.00027655e+00
1.00027091e+00
1.00026563e+00
1.00026061e+00
1.00025571e+00
1.00025080e+00
1.00024575e+00
1.00024042e+00
1.00023466e+00
1.00022836e+00
1.00022138e+00
1.00021360e+00
1.00020493e+00
1.00019527e+00
1.00018455e+00
1.00017273e+00
1.00015978e+00
1.00014569e+00
1.00013048e+00
1.00011422e+00
1.00009696e+00
1.00007882e+00
1.00005992e+00
1.00004041e+00
1.00002047e+00
1.00000030e+00
9.99980094e-01
9.99960089e-01
9.99940519e-01
9.99921602e-01
9.99903604e-01
9.99886775e-01
9.99871350e-01
9.99857335e-01
9.99845170e-01
9.99835306e-01
9.99827624e-01
9.99818338e-01
9.99814485e-01
1.00074151e+00
1.00074340e+00
1.00074556e+00
1.00074192e+00
1.00073808e+00
1.00073544e+00
1.00073161e+00
1.00072655e+00
1.00072111e+00
1.00071514e+00
1.00070839e+00
1.00070099e+00
1.00069303e+00
1.00068450e+00
1.00067542e+00
1.00066585e+00
1.00065586e+00
1.00064550e+00
1.00063486e+00
1.00062402e+00
1.00061308e+00
1.00060214e+00
1.00059131e+00
1.00058072e+00
1.00057048e+00
1.00056071e+00
1.00055155e+00
1.00054311e+00
1.00053551e+00
1.00052886e+00
1.00052327e+00
1.00051882e+00
1.00051559e+00
1.00051364e+00
1.00051300e+00
1.00051371e+00
1.00051576e+00
1.00051912e+00
1.00052375e+00
1.00052956e+00
1.00053647e+00
1.00054436e+00
1.00055308e+00
1.00056247e+00
1.00057236e+00
1.00058255e+00
1.00059285e+00
1.00060304e+00
1.00061291e+00
1.00062225e+00
1.00063087e+00
1.00063856e+00
1.00064514e+00
1.00065047e+00
1.00065438e+00
1.00065677e+00
1.00065756e+00
1.00065666e+00
1.00065406e+00
1.00064975e+00
1.00064374e+00
1.00063609e+00
1.00062688e+00
1.00061620e+00
1.00060417e+00
1.00059093e+00
1.00057663e+00
1.00056142e+00
1.00054548e+00
1.00052897e+00
1.00051206e+00
1.00049493e+00
1.00047772e+00
1.00046061e+00
1.00044373e+00
1.00042720e+00
1.00041116e+00
1.00039570e+00
1.00038092e+00
1.00036687e+00
1.00035363e+00
1.00034123e+00
1.00032969e+00
1.00031903e+00
1.00030922e+00
1.00030025e+00
1.00029207e+00
1.00028462e+00
1.00027785e+00
1.00027165e+00
1.00026594e+00
1.00026061e+00
1.00025554e+00
1.00025060e+00
1.00024566e+00
1.00024059e+00
1.00023525e+00
1.00022951e+00
1.00022323e+00
1.00021629e+00
1.00020858e+00
1.00019998e+00
1.00019043e+00
1.00017984e+00
1.00016816e+00
1.00015538e+00
1.00014149e+00
1.00012651e+00
1.00011048e+00
1.00009350e+00
1.00007565e+00
1.00005706e+00
1.00003789e+00
1.00001830e+00
9.99998489e-01
9.99978673e-01
9.99959063e-01
9.99939851e-01
9.99921326e-01
9.99903819e-01
9.99887334e-01
9.99871976e-01
9.99858675e-01
9.99847654e-01
9.99836712e-01
9.99827337e-01
9.99825340e-01
9.99824728e-01
1.00074337e+00
1.00074451e+00
1.00074442e+00
1.00074215e+00
1.00073994e+00
1.00073682e+00
1.00073279e+00
1.00072827e+00
1.00072314e+00
1.00071728e+00
1.00071078e+00
1.00070369e+00
1.00069601e+00
1.00068775e+00
1.00067897e+00
1.00066972e+00
1.00066004e+00
1.00065001e+00
1.00063970e+00
1.00062919e+00
1.00061858e+00
1.00060797e+00
1.00059747e+00
1.00058720e+00
1.00057727e+00
1.00056779e+00
1.00055891e+00
1.00055072e+00
1.00054335e+00
1.00053691e+00
1.00053149e+00
1.00052717e+00
1.00052404e+00
1.00052215e+00
1.00052154e+00
1.00052222e+00
1.00052420e+00
1.00052744e+00
1.00053190e+00
1.00053751e+00
1.00054416e+00
1.00055175e+00
1.00056014e+00
1.00056916e+00
1.00057864e+00
1.00058840e+00
1.00059824e+00
1.00060795e+00
1.00061734e+00
1.00062618e+00
1.00063429e+00
1.00064148e+00
1.00064757e+00
1.00065241e+00
1.00065585e+00
1.00065779e+00
1.00065814e+00
1.00065683e+00
1.00065383e+00
1.00064914e+00
1.00064278e+00
1.00063481e+00
1.00062529e+00
1.00061432e+00
1.00060202e+00
1.00058852e+00
1.00057397e+00
1.00055854e+00
1.00054237e+00
1.00052565e+00
1.00050854e+00
1.00049120e+00
1.00047380e+00
1.00045650e+00
1.00043943e+00
1.00042273e+00
1.00040651e+00
1.00039087e+00
1.00037592e+00
1.00036172e+00
1.00034832e+00
1.00033577e+00
1.00032409e+00
1.00031329e+00
1.00030335e+00
1.00029426e+00
1.00028597e+00
1.00027843e+00
1.00027156e+00
1.00026528e+00
1.00025950e+00
1.00025411e+00
1.00024898e+00
1.00024401e+00
1.00023905e+00
1.00023397e+00
1.00022864e+00
1.00022292e+00
1.00021668e+00
1.00020980e+00
1.00020216e+00
1.00019367e+00
1.00018423e+00
1.00017379e+00
1.00016228e+00
1.00014969e+00
1.00013601e+00
1.00012127e+00
1.00010551e+00
1.00008881e+00
1.00007126e+00
1.00005300e+00
1.00003417e+00
1.00001495e+00
9.99995507e-01
9.99976056e-01
9.99956826e-01
9.99938041e-01
9.99919898e-01
9.99902658e-01
9.99886638e-01
9.99871916e-01
9.99858573e-01
9.99847254e-01
9.99838145e-01
9.99830137e-01
9.99825748e-01
9.99824351e-01
1.00074671e+00
1.00074674e+00
1.00074536e+00
1.00074480e+00
1.00074297e+00
1.00073930e+00
1.00073559e+00
1.00073156e+00
1.00072656e+00
1.00072085e+00
1.00071466e+00
1.00070787e+00
1.00070045e+00
1.00069249e+00
1.00068403e+00
1.00067511e+00
1.00066577e+00
1.00065608e+00
1.00064613e+00
1.00063598e+00
1.00062573e+00
1.00061548e+00
1.00060534e+00
1.00059541e+00
1.00058582e+00
1.00057667e+00
1.00056808e+00
1.00056017e+00
1.00055305e+00
1.00054683e+00
1.00054159e+00
1.00053742e+00
1.00053440e+00
1.00053256e+00
1.00053196e+00
1.00053260e+00
1.00053448e+00
1.00053757e+00
1.00054183e+00
1.00054718e+00
1.00055353e+00
1.00056076e+00
1.00056874e+00
1.00057731e+00
1.00058631e+00
1.00059554e+00
1.00060483e+00
1.00061396e+00
1.00062275e+00
1.00063099e+00
1.00063849e+00
1.00064506e+00
1.00065054e+00
1.00065478e+00
1.00065764e+00
1.00065901e+00
1.00065881e+00
1.00065697e+00
1.00065348e+00
1.00064832e+00
1.00064153e+00
1.00063313e+00
1.00062322e+00
1.00061188e+00
1.00059924e+00
1.00058542e+00
1.00057057e+00
1.00055484e+00
1.00053840e+00
1.00052141e+00
1.00050405e+00
1.00048647e+00
1.00046884e+00
1.00045131e+00
1.00043402e+00
1.00041710e+00
1.00040067e+00
1.00038484e+00
1.00036969e+00
1.00035530e+00
1.00034173e+00
1.00032901e+00
1.00031716e+00
1.00030621e+00
1.00029613e+00
1.00028690e+00
1.00027849e+00
1.00027083e+00
1.00026386e+00
1.00025749e+00
1.00025163e+00
1.00024616e+00
1.00024099e+00
1.00023597e+00
1.00023098e+00
1.00022589e+00
1.00022056e+00
1.00021487e+00
1.00020867e+00
1.00020185e+00
1.00019430e+00
1.00018591e+00
1.00017660e+00
1.00016631e+00
1.00015498e+00
1.00014260e+00
1.00012915e+00
1.00011466e+00
1.00009917e+00
1.00008277e+00
1.00006555e+00
1.00004763e+00
1.00002916e+00
1.00001030e+00
9.99991255e-01
9.99972195e-01
9.99953343e-01
9.99934971e-01
9.99917267e-01
9.99900340e-01
9.99884601e-01
9.99870491e-01
9.99857641e-01
9.99845917e-01
9.99837211e-01
9.99831099e-01
9.99825607e-01
9.99823091e-01
1.00075012e+00
1.00075058e+00
1.00075001e+00
1.00074873e+00
1.00074631e+00
1.00074356e+00
1.00074029e+00
1.00073605e+00
1.00073124e+00
1.00072595e+00
1.00072001e+00
1.00071344e+00
1.00070634e+00
1.00069872e+00
1.00069059e+00
1.00068201e+00
1.00067304e+00
1.00066373e+00
1.00065416e+00
1.00064440e+00
1.00063454e+00
1.00062468e+00
1.00061492e+00
1.00060537e+00
1.00059614e+00
1.00058733e+00
1.00057907e+00
1.00057147e+00
1.00056462e+00
1.00055863e+00
1.00055358e+00
1.00054957e+00
1.00054664e+00
1.00054486e+00
1.00054425e+00
1.00054483e+00
1.00054659e+00
1.00054950e+00
1.00055351e+00
1.00055856e+00
1.00056455e+00
1.00057136e+00
1.00057886e+00
1.00058690e+00
1.00059532e+00
1.00060394e+00
1.00061258e+00
1.00062104e+00
1.00062912e+00
1.00063665e+00
1.00064342e+00
1.00064927e+00
1.00065403e+00
1.00065756e+00
1.00065972e+00
1.00066042e+00
1.00065957e+00
1.00065711e+00
1.00065303e+00
1.00064730e+00
1.00063997e+00
1.00063107e+00
1.00062069e+00
1.00060891e+00
1.00059585e+00
1.00058163e+00
1.00056641e+00
1.00055034e+00
1.00053357e+00
1.00051627e+00
1.00049860e+00
1.00048074e+00
1.00046283e+00
1.00044504e+00
1.00042749e+00
1.00041033e+00
1.00039366e+00
1.00037760e+00
1.00036223e+00
1.00034763e+00
1.00033385e+00
1.00032094e+00
1.00030891e+00
1.00029778e+00
1.00028754e+00
1.00027816e+00
1.00026961e+00
1.00026182e+00
1.00025473e+00
1.00024826e+00
1.00024231e+00
1.00023677e+00
1.00023153e+00
1.00022646e+00
1.00022144e+00
1.00021634e+00
1.00021101e+00
1.00020534e+00
1.00019919e+00
1.00019243e+00
1.00018497e+00
1.00017670e+00
1.00016753e+00
1.00015740e+00
1.00014626e+00
1.00013409e+00
1.00012089e+00
1.00010667e+00
1.00009148e+00
1.00007540e+00
1.00005852e+00
1.00004096e+00
1.00002286e+00
1.00000439e+00
9.99985733e-01
9.99967096e-01
9.99948664e-01
9.99930644e-01
9.99913335e-01
9.99896951e-01
9.99881538e-01
9.99867419e-01
9.99855148e-01
9.99844444e-01
9.99835269e-01
9.99828580e-01
9.99823976e-01
9.99821986e-01
1.00075545e+00
1.00075580e+00
1.00075559e+00
1.00075391e+00
1.00075172e+00
1.00074936e+00
1.00074599e+00
1.00074192e+00
1.00073748e+00
1.00073243e+00
1.00072670e+00
1.00072044e+00
1.00071369e+00
1.00070640e+00
1.00069862e+00
1.00069042e+00
1.00068184e+00
1.00067293e+00
1.00066376e+00
1.00065442e+00
1.00064498e+00
1.00063554e+00
1.00062619e+00
1.00061704e+00
1.00060820e+00
1.00059977e+00
1.00059186e+00
1.00058457e+00
1.00057801e+00
1.00057227e+00
1.00056743e+00
1.00056357e+00
1.00056075e+00
1.00055901e+00
1.00055838e+00
1.00055888e+00
1.00056049e+00
1.00056319e+00
1.00056692e+00
1.00057161e+00
1.00057718e+00
1.00058350e+00
1.00059046e+00
1.00059790e+00
1.00060567e+00
1.00061359e+00
1.00062148e+00
1.00062916e+00
1.00063645e+00
1.00064315e+00
1.00064910e+00
1.00065411e+00
1.00065805e+00
1.00066075e+00
1.00066212e+00
1.00066203e+00
1.00066043e+00
1.00065725e+00
1.00065247e+00
1.00064609e+00
1.00063813e+00
1.00062865e+00
1.00061771e+00
1.00060541e+00
1.00059186e+00
1.00057718e+00
1.00056153e+00
1.00054505e+00
1.00052789e+00
1.00051023e+00
1.00049222e+00
1.00047402e+00
1.00045580e+00
1.00043770e+00
1.00041986e+00
1.00040241e+00
1.00038548e+00
1.00036916e+00
1.00035354e+00
1.00033870e+00
1.00032470e+00
1.00031157e+00
1.00029934e+00
1.00028801e+00
1.00027759e+00
1.00026805e+00
1.00025933e+00
1.00025140e+00
1.00024418e+00
1.00023759e+00
1.00023154e+00
1.00022591e+00
1.00022060e+00
1.00021548e+00
1.00021043e+00
1.00020531e+00
1.00019998e+00
1.00019433e+00
1.00018823e+00
1.00018155e+00
1.00017418e+00
1.00016603e+00
1.00015701e+00
1.00014705e+00
1.00013612e+00
1.00012418e+00
1.00011124e+00
1.00009730e+00
1.00008243e+00
1.00006668e+00
1.00005015e+00
1.00003297e+00
1.00001527e+00
9.99997205e-01
9.99978955e-01
9.99960727e-01
9.99942739e-01
9.99925153e-01
9.99908185e-01
9.99892181e-01
9.99877302e-01
9.99863497e-01
9.99851261e-01
9.99841077e-01
9.99832314e-01
9.99825359e-01
9.99821177e-01
9.99819189e-01
1.00076278e+00
1.00076280e+00
1.00076206e+00
1.00076070e+00
1.00075887e+00
1.00075622e+00
1.00075297e+00
1.00074936e+00
1.00074510e+00
1.00074017e+00
1.00073478e+00
1.00072888e+00
1.00072243e+00
1.00071547e+00
1.00070809e+00
1.00070029e+00
1.00069211e+00
1.00068362e+00
1.00067490e+00
1.00066599e+00
1.00065700e+00
1.00064800e+00
1.00063910e+00
1.00063038e+00
1.00062195e+00
1.00061392e+00
1.00060638e+00
1.00059943e+00
1.00059317e+00
1.00058769e+00
1.00058307e+00
1.00057936e+00
1.00057664e+00
1.00057494e+00
1.00057429e+00
1.00057469e+00
1.00057613e+00
1.00057858e+00
1.00058199e+00
1.00058628e+00
1.00059137e+00
1.00059715e+00
1.00060350e+00
1.00061026e+00
1.00061729e+00
1.00062443e+00
1.00063149e+00
1.00063830e+00
1.00064469e+00
1.00065048e+00
1.00065549e+00
1.00065957e+00
1.00066257e+00
1.00066435e+00
1.00066481e+00
1.00066384e+00
1.00066138e+00
1.00065738e+00
1.00065181e+00
1.00064468e+00
1.00063602e+00
1.00062586e+00
1.00061429e+00
1.00060139e+00
1.00058728e+00
1.00057209e+00
1.00055594e+00
1.00053899e+00
1.00052139e+00
1.00050332e+00
1.00048491e+00
1.00046634e+00
1.00044776e+00
1.00042932e+00
1.00041116e+00
1.00039340e+00
1.00037616e+00
1.00035956e+00
1.00034366e+00
1.00032856e+00
1.00031430e+00
1.00030093e+00
1.00028848e+00
1.00027694e+00
1.00026632e+00
1.00025658e+00
1.00024770e+00
1.00023961e+00
1.00023225e+00
1.00022553e+00
1.00021936e+00
1.00021364e+00
1.00020824e+00
1.00020306e+00
1.00019797e+00
1.00019282e+00
1.00018750e+00
1.00018188e+00
1.00017582e+00
1.00016921e+00
1.00016194e+00
1.00015392e+00
1.00014506e+00
1.00013529e+00
1.00012457e+00
1.00011288e+00
1.00010020e+00
1.00008657e+00
1.00007202e+00
1.00005662e+00
1.00004047e+00
1.00002367e+00
1.00000637e+00
9.99988733e-01
9.99970923e-01
9.99953113e-01
9.99935528e-01
9.99918409e-01
9.99901899e-01
9.99886178e-01
9.99871622e-01
9.99858411e-01
9.99846451e-01
9.99836156e-01
9.99827850e-01
9.99821310e-01
9.99816776e-01
9.99814569e-01
1.00077113e+00
1.00077099e+00
1.00077016e+00
1.00076894e+00
1.00076705e+00
1.00076446e+00
1.00076152e+00
1.00075806e+00
1.00075393e+00
1.00074933e+00
1.00074426e+00
1.00073864e+00
1.00073252e+00
1.00072596e+00
1.00071897e+00
1.00071157e+00
1.00070383e+00
1.00069579e+00
1.00068752e+00
1.00067909e+00
1.00067056e+00
1.00066204e+00
1.00065360e+00
1.00064533e+00
1.00063735e+00
1.00062973e+00
1.00062258e+00
1.00061599e+00
1.00061005e+00
1.00060484e+00
1.00060043e+00
1.00059689e+00
1.00059427e+00
1.00059260e+00
1.00059191e+00
1.00059219e+00
1.00059343e+00
1.00059560e+00
1.00059865e+00
1.00060250e+00
1.00060707e+00
1.00061225e+00
1.00061791e+00
1.00062393e+00
1.00063015e+00
1.00063642e+00
1.00064256e+00
1.00064841e+00
1.00065381e+00
1.00065858e+00
1.00066256e+00
1.00066560e+00
1.00066757e+00
1.00066833e+00
1.00066778e+00
1.00066583e+00
1.00066242e+00
1.00065750e+00
1.00065106e+00
1.00064309e+00
1.00063363e+00
1.00062273e+00
1.00061045e+00
1.00059688e+00
1.00058215e+00
1.00056636e+00
1.00054966e+00
1.00053219e+00
1.00051411e+00
1.00049557e+00
1.00047673e+00
1.00045774e+00
1.00043877e+00
1.00041995e+00
1.00040142e+00
1.00038332e+00
1.00036576e+00
1.00034883e+00
1.00033264e+00
1.00031725e+00
1.00030271e+00
1.00028908e+00
1.00027638e+00
1.00026461e+00
1.00025377e+00
1.00024383e+00
1.00023475e+00
1.00022649e+00
1.00021896e+00
1.00021210e+00
1.00020581e+00
1.00019997e+00
1.00019449e+00
1.00018924e+00
1.00018410e+00
1.00017893e+00
1.00017360e+00
1.00016800e+00
1.00016198e+00
1.00015545e+00
1.00014829e+00
1.00014039e+00
1.00013169e+00
1.00012212e+00
1.00011162e+00
1.00010018e+00
1.00008779e+00
1.00007446e+00
1.00006025e+00
1.00004521e+00
1.00002944e+00
1.00001305e+00
9.99996173e-01
9.99978956e-01
9.99961584e-01
9.99944234e-01
9.99927078e-01
9.99910350e-01
9.99894295e-01
9.99879035e-01
9.99864757e-01
9.99851836e-01
9.99840343e-01
9.99830256e-01
9.99822028e-01
9.99815752e-01
9.99811266e-01
9.99809005e-01
1.00078065e+00
1.00078051e+00
1.00077976e+00
1.00077839e+00
1.00077646e+00
1.00077416e+00
1.00077136e+00
1.00076795e+00
1.00076412e+00
1.00075984e+00
1.00075501e+00
1.00074971e+00
1.00074398e+00
1.00073781e+00
1.00073121e+00
1.00072425e+00
1.00071696e+00
1.00070939e+00
1.00070160e+00
1.00069365e+00
1.00068562e+00
1.00067759e+00
1.00066963e+00
1.00066185e+00
1.00065432e+00
1.00064713e+00
1.00064039e+00
1.00063417e+00
1.00062856e+00
1.00062363e+00
1.00061945e+00
1.00061607e+00
1.00061355e+00
1.00061190e+00
1.00061115e+00
1.00061129e+00
1.00061231e+00
1.00061417e+00
1.00061682e+00
1.00062019e+00
1.00062418e+00
1.00062870e+00
1.00063363e+00
1.00063883e+00
1.00064417e+00
1.00064949e+00
1.00065463e+00
1.00065944e+00
1.00066375e+00
1.00066742e+00
1.00067027e+00
1.00067218e+00
1.00067302e+00
1.00067266e+00
1.00067101e+00
1.00066799e+00
1.00066353e+00
1.00065761e+00
1.00065020e+00
1.00064132e+00
1.00063098e+00
1.00061925e+00
1.00060619e+00
1.00059190e+00
1.00057647e+00
1.00056004e+00
1.00054273e+00
1.00052469e+00
1.00050607e+00
1.00048702e+00
1.00046770e+00
1.00044826e+00
1.00042885e+00
1.00040963e+00
1.00039071e+00
1.00037223e+00
1.00035431e+00
1.00033705e+00
1.00032053e+00
1.00030482e+00
1.00028999e+00
1.00027608e+00
1.00026311e+00
1.00025108e+00
1.00024000e+00
1.00022984e+00
1.00022055e+00
1.00021210e+00
1.00020440e+00
1.00019737e+00
1.00019094e+00
1.00018498e+00
1.00017940e+00
1.00017407e+00
1.00016886e+00
1.00016366e+00
1.00015832e+00
1.00015273e+00
1.00014676e+00
1.00014030e+00
1.00013323e+00
1.00012547e+00
1.00011694e+00
1.00010756e+00
1.00009729e+00
1.00008610e+00
1.00007400e+00
1.00006099e+00
1.00004713e+00
1.00003246e+00
1.00001708e+00
1.00000110e+00
9.99984655e-01
9.99967879e-01
9.99950941e-01
9.99934038e-01
9.99917355e-01
9.99901051e-01
9.99885366e-01
9.99870554e-01
9.99856713e-01
9.99844016e-01
9.99832802e-01
9.99823135e-01
9.99815028e-01
9.99808749e-01
9.99804436e-01
9.99802280e-01
1.00079154e+00
1.00079128e+00
1.00079048e+00
1.00078910e+00
1.00078729e+00
1.00078509e+00
1.00078236e+00
1.00077920e+00
1.00077564e+00
1.00077157e+00
1.00076704e+00
1.00076211e+00
1.00075675e+00
1.00075096e+00
1.00074479e+00
1.00073828e+00
1.00073146e+00
1.00072437e+00
1.00071708e+00
1.00070964e+00
1.00070212e+00
1.00069460e+00
1.00068715e+00
1.00067985e+00
1.00067280e+00
1.00066607e+00
1.00065975e+00
1.00065391e+00
1.00064864e+00
1.00064400e+00
1.00064004e+00
1.00063683e+00
1.00063440e+00
1.00063276e+00
1.00063194e+00
1.00063193e+00
1.00063270e+00
1.00063422e+00
1.00063643e+00
1.00063927e+00
1.00064264e+00
1.00064645e+00
1.00065057e+00
1.00065490e+00
1.00065928e+00
1.00066358e+00
1.00066764e+00
1.00067133e+00
1.00067447e+00
1.00067694e+00
1.00067858e+00
1.00067927e+00
1.00067888e+00
1.00067731e+00
1.00067447e+00
1.00067029e+00
1.00066470e+00
1.00065769e+00
1.00064924e+00
1.00063936e+00
1.00062808e+00
1.00061545e+00
1.00060154e+00
1.00058645e+00
1.00057028e+00
1.00055314e+00
1.00053517e+00
1.00051651e+00
1.00049731e+00
1.00047771e+00
1.00045788e+00
1.00043795e+00
1.00041808e+00
1.00039841e+00
1.00037907e+00
1.00036019e+00
1.00034189e+00
1.00032426e+00
1.00030739e+00
1.00029135e+00
1.00027620e+00
1.00026198e+00
1.00024872e+00
1.00023642e+00
1.00022508e+00
1.00021467e+00
1.00020516e+00
1.00019649e+00
1.00018860e+00
1.00018140e+00
1.00017481e+00
1.00016872e+00
1.00016302e+00
1.00015759e+00
1.00015231e+00
1.00014706e+00
1.00014170e+00
1.00013612e+00
1.00013019e+00
1.00012379e+00
1.00011682e+00
1.00010919e+00
1.00010081e+00
1.00009163e+00
1.00008159e+00
1.00007066e+00
1.00005885e+00
1.00004617e+00
1.00003265e+00
1.00001836e+00
1.00000338e+00
9.99987816e-01
9.99971799e-01
9.99955474e-01
9.99938993e-01
9.99922528e-01
9.99906288e-01
9.99890456e-01
9.99875189e-01
9.99860727e-01
9.99847297e-01
9.99834990e-01
9.99824002e-01
9.99814578e-01
9.99806730e-01
9.99800582e-01
9.99796351e-01
9.99794189e-01
1.00080368e+00
1.00080330e+00
1.00080239e+00
1.00080107e+00
1.00079936e+00
1.00079719e+00
1.00079464e+00
1.00079172e+00
1.00078835e+00
1.00078454e+00
1.00078037e+00
1.00077578e+00
1.00077077e+00
1.00076539e+00
1.00075967e+00
1.00075362e+00
1.00074728e+00
1.00074069e+00
1.00073391e+00
1.00072699e+00
1.00072000e+00
1.00071301e+00
1.00070608e+00
1.00069930e+00
1.00069273e+00
1.00068647e+00
1.00068058e+00
1.00067514e+00
1.00067021e+00
1.00066585e+00
1.00066213e+00
1.00065908e+00
1.00065672e+00
1.00065509e+00
1.00065418e+00
1.00065399e+00
1.00065449e+00
1.00065564e+00
1.00065738e+00
1.00065964e+00
1.00066235e+00
1.00066539e+00
1.00066866e+00
1.00067205e+00
1.00067541e+00
1.00067862e+00
1.00068153e+00
1.00068400e+00
1.00068590e+00
1.00068709e+00
1.00068744e+00
1.00068682e+00
1.00068513e+00
1.00068226e+00
1.00067815e+00
1.00067272e+00
1.00066592e+00
1.00065775e+00
1.00064817e+00
1.00063722e+00
1.00062492e+00
1.00061133e+00
1.00059651e+00
1.00058057e+00
1.00056359e+00
1.00054570e+00
1.00052703e+00
1.00050770e+00
1.00048788e+00
1.00046769e+00
1.00044730e+00
1.00042685e+00
1.00040649e+00
1.00038635e+00
1.00036656e+00
1.00034726e+00
1.00032855e+00
1.00031053e+00
1.00029328e+00
1.00027689e+00
1.00026140e+00
1.00024685e+00
1.00023328e+00
1.00022069e+00
1.00020907e+00
1.00019840e+00
1.00018864e+00
1.00017974e+00
1.00017164e+00
1.00016425e+00
1.00015748e+00
1.00015123e+00
1.00014540e+00
1.00013986e+00
1.00013450e+00
1.00012919e+00
1.00012380e+00
1.00011821e+00
1.00011230e+00
1.00010596e+00
1.00009908e+00
1.00009157e+00
1.00008335e+00
1.00007436e+00
1.00006454e+00
1.00005388e+00
1.00004236e+00
1.00003000e+00
1.00001683e+00
1.00000292e+00
9.99988339e-01
9.99973200e-01
9.99957617e-01
9.99941735e-01
9.99925715e-01
9.99909714e-01
9.99893908e-01
9.99878512e-01
9.99863703e-01
9.99849632e-01
9.99836534e-01
9.99824610e-01
9.99813944e-01
9.99804711e-01
9.99797084e-01
9.99791126e-01
9.99786940e-01
9.99784785e-01
1.00081692e+00
1.00081646e+00
1.00081554e+00
1.00081423e+00
1.00081255e+00
1.00081051e+00
1.00080815e+00
1.00080540e+00
1.00080225e+00
1.00079876e+00
1.00079490e+00
1.00079064e+00
1.00078603e+00
1.00078108e+00
1.00077580e+00
1.00077022e+00
1.00076437e+00
1.00075830e+00
1.00075204e+00
1.00074566e+00
1.00073921e+00
1.00073276e+00
1.00072636e+00
1.00072010e+00
1.00071404e+00
1.00070825e+00
1.00070280e+00
1.00069776e+00
1.00069318e+00
1.00068911e+00
1.00068562e+00
1.00068272e+00
1.00068044e+00
1.00067879e+00
1.00067778e+00
1.00067739e+00
1.00067759e+00
1.00067834e+00
1.00067957e+00
1.00068123e+00
1.00068322e+00
1.00068545e+00
1.00068781e+00
1.00069019e+00
1.00069247e+00
1.00069452e+00
1.00069622e+00
1.00069741e+00
1.00069799e+00
1.00069783e+00
1.00069680e+00
1.00069479e+00
1.00069171e+00
1.00068748e+00
1.00068201e+00
1.00067526e+00
1.00066718e+00
1.00065776e+00
1.00064700e+00
1.00063491e+00
1.00062153e+00
1.00060691e+00
1.00059113e+00
1.00057427e+00
1.00055644e+00
1.00053775e+00
1.00051833e+00
1.00049830e+00
1.00047781e+00
1.00045701e+00
1.00043603e+00
1.00041503e+00
1.00039414e+00
1.00037350e+00
1.00035325e+00
1.00033349e+00
1.00031435e+00
1.00029592e+00
1.00027828e+00
1.00026150e+00
1.00024565e+00
1.00023076e+00
1.00021686e+00
1.00020395e+00
1.00019203e+00
1.00018108e+00
1.00017106e+00
1.00016191e+00
1.00015358e+00
1.00014597e+00
1.00013901e+00
1.00013259e+00
1.00012661e+00
1.00012094e+00
1.00011548e+00
1.00011009e+00
1.00010465e+00
1.00009904e+00
1.00009315e+00
1.00008685e+00
1.00008005e+00
1.00007266e+00
1.00006458e+00
1.00005577e+00
1.00004618e+00
1.00003577e+00
1.00002453e+00
1.00001249e+00
9.99999674e-01
9.99986138e-01
9.99971961e-01
9.99957243e-01
9.99942101e-01
9.99926665e-01
9.99911093e-01
9.99895556e-01
9.99880211e-01
9.99865239e-01
9.99850850e-01
9.99837212e-01
9.99824478e-01
9.99812864e-01
9.99802525e-01
9.99793560e-01
9.99786117e-01
9.99780310e-01
9.99776235e-01
9.99774129e-01
1.00083129e+00
1.00083078e+00
1.00082983e+00
1.00082852e+00
1.00082691e+00
1.00082501e+00
1.00082279e+00
1.00082023e+00
1.00081735e+00
1.00081415e+00
1.00081058e+00
1.00080669e+00
1.00080249e+00
1.00079796e+00
1.00079313e+00
1.00078803e+00
1.00078269e+00
1.00077714e+00
1.00077142e+00
1.00076558e+00
1.00075969e+00
1.00075378e+00
1.00074793e+00
1.00074220e+00
1.00073664e+00
1.00073133e+00
1.00072633e+00
1.00072168e+00
1.00071745e+00
1.00071368e+00
1.00071041e+00
1.00070765e+00
1.00070544e+00
1.00070377e+00
1.00070264e+00
1.00070203e+00
1.00070190e+00
1.00070221e+00
1.00070291e+00
1.00070392e+00
1.00070515e+00
1.00070652e+00
1.00070792e+00
1.00070925e+00
1.00071039e+00
1.00071123e+00
1.00071163e+00
1.00071149e+00
1.00071068e+00
1.00070909e+00
1.00070661e+00
1.00070315e+00
1.00069861e+00
1.00069293e+00
1.00068604e+00
1.00067790e+00
1.00066847e+00
1.00065774e+00
1.00064572e+00
1.00063243e+00
1.00061791e+00
1.00060221e+00
1.00058541e+00
1.00056760e+00
1.00054887e+00
1.00052933e+00
1.00050911e+00
1.00048835e+00
1.00046716e+00
1.00044571e+00
1.00042412e+00
1.00040253e+00
1.00038110e+00
1.00035994e+00
1.00033919e+00
1.00031896e+00
1.00029936e+00
1.00028050e+00
1.00026244e+00
1.00024527e+00
1.00022904e+00
1.00021379e+00
1.00019953e+00
1.00018629e+00
1.00017405e+00
1.00016280e+00
1.00015249e+00
1.00014307e+00
1.00013448e+00
1.00012665e+00
1.00011947e+00
1.00011286e+00
1.00010671e+00
1.00010090e+00
1.00009531e+00
1.00008983e+00
1.00008432e+00
1.00007868e+00
1.00007278e+00
1.00006652e+00
1.00005978e+00
1.00005249e+00
1.00004455e+00
1.00003592e+00
1.00002653e+00
1.00001637e+00
1.00000541e+00
9.99993684e-01
9.99981211e-01
9.99968048e-01
9.99954268e-01
9.99939965e-01
9.99925257e-01
9.99910273e-01
9.99895152e-01
9.99880061e-01
9.99865174e-01
9.99850650e-01
9.99836668e-01
9.99823430e-01
9.99811092e-01
9.99799804e-01
9.99789752e-01
9.99781065e-01
9.99773830e-01
9.99768163e-01
9.99764198e-01
9.99762151e-01
1.00084676e+00
1.00084617e+00
1.00084519e+00
1.00084392e+00
1.00084240e+00
1.00084061e+00
1.00083854e+00
1.00083620e+00
1.00083358e+00
1.00083064e+00
1.00082742e+00
1.00082390e+00
1.00082008e+00
1.00081598e+00
1.00081162e+00
1.00080701e+00
1.00080217e+00
1.00079715e+00
1.00079197e+00
1.00078669e+00
1.00078135e+00
1.00077600e+00
1.00077070e+00
1.00076550e+00
1.00076046e+00
1.00075563e+00
1.00075107e+00
1.00074683e+00
1.00074295e+00
1.00073946e+00
1.00073640e+00
1.00073378e+00
1.00073162e+00
1.00072991e+00
1.00072864e+00
1.00072779e+00
1.00072731e+00
1.00072716e+00
1.00072729e+00
1.00072761e+00
1.00072804e+00
1.00072851e+00
1.00072891e+00
1.00072913e+00
1.00072908e+00
1.00072864e+00
1.00072770e+00
1.00072615e+00
1.00072389e+00
1.00072081e+00
1.00071683e+00
1.00071184e+00
1.00070578e+00
1.00069859e+00
1.00069021e+00
1.00068061e+00
1.00066977e+00
1.00065768e+00
1.00064434e+00
1.00062980e+00
1.00061408e+00
1.00059726e+00
1.00057939e+00
1.00056057e+00
1.00054090e+00
1.00052048e+00
1.00049943e+00
1.00047789e+00
1.00045598e+00
1.00043384e+00
1.00041161e+00
1.00038942e+00
1.00036741e+00
1.00034571e+00
1.00032444e+00
1.00030372e+00
1.00028366e+00
1.00026434e+00
1.00024585e+00
1.00022827e+00
1.00021163e+00
1.00019599e+00
1.00018137e+00
1.00016777e+00
1.00015520e+00
1.00014362e+00
1.00013300e+00
1.00012329e+00
1.00011443e+00
1.00010634e+00
1.00009893e+00
1.00009211e+00
1.00008576e+00
1.00007978e+00
1.00007405e+00
1.00006846e+00
1.00006287e+00
1.00005717e+00
1.00005125e+00
1.00004500e+00
1.00003832e+00
1.00003111e+00
1.00002330e+00
1.00001482e+00
1.00000563e+00
9.99995701e-01
9.99985018e-01
9.99973593e-01
9.99961454e-01
9.99948654e-01
9.99935265e-01
9.99921374e-01
9.99907092e-01
9.99892548e-01
9.99877881e-01
9.99863238e-01
9.99848790e-01
9.99834710e-01
9.99821156e-01
9.99808304e-01
9.99796337e-01
9.99785403e-01
9.99775643e-01
9.99767206e-01
9.99760191e-01
9.99754691e-01
9.99750830e-01
9.99748829e-01
1.00086328e+00
1.00086263e+00
1.00086162e+00
1.00086039e+00
1.00085894e+00
1.00085727e+00
1.00085538e+00
1.00085326e+00
1.00085087e+00
1.00084823e+00
1.00084535e+00
1.00084219e+00
1.00083877e+00
1.00083511e+00
1.00083121e+00
1.00082709e+00
1.00082276e+00
1.00081827e+00
1.00081365e+00
1.00080892e+00
1.00080414e+00
1.00079935e+00
1.00079459e+00
1.00078993e+00
1.00078540e+00
1.00078106e+00
1.00077694e+00
1.00077309e+00
1.00076955e+00
1.00076634e+00
1.00076349e+00
1.00076100e+00
1.00075887e+00
1.00075711e+00
1.00075568e+00
1.00075456e+00
1.00075371e+00
1.00075307e+00
1.00075259e+00
1.00075219e+00
1.00075179e+00
1.00075132e+00
1.00075066e+00
1.00074974e+00
1.00074845e+00
1.00074668e+00
1.00074435e+00
1.00074134e+00
1.00073757e+00
1.00073295e+00
1.00072739e+00
1.00072083e+00
1.00071319e+00
1.00070443e+00
1.00069451e+00
1.00068340e+00
1.00067109e+00
1.00065757e+00
1.00064287e+00
1.00062703e+00
1.00061007e+00
1.00059207e+00
1.00057309e+00
1.00055323e+00
1.00053257e+00