# vtk DataFile Version 2.0
LBM Flow Field - Timestep 750
ASCII
DATASET STRUCTURED_POINTS
DIMENSIONS 128 128 1
ORIGIN 0.0 0.0 0.0
SPACING 1.0 1.0 1.0
POINT_DATA 16384
SCALARS density double 1
LOOKUP_TABLE default
1.00666918e+00
1.00666981e+00
1.00666808e+00
1.00665279e+00
1.00662990e+00
1.00660311e+00
1.00656865e+00
1.00652558e+00
1.00647507e+00
1.00641606e+00
1.00634666e+00
1.00626661e+00
1.00617578e+00
1.00607348e+00
1.00595935e+00
1.00583365e+00
1.00569672e+00
1.00554901e+00
1.00539143e+00
1.00522520e+00
1.00505174e+00
1.00487276e+00
1.00469019e+00
1.00450610e+00
1.00432262e+00
1.00414186e+00
1.00396579e+00
1.00379620e+00
1.00363457e+00
1.00348204e+00
1.00333937e+00
1.00320692e+00
1.00308469e+00
1.00297229e+00
1.00286906e+00
1.00277408e+00
1.00268625e+00
1.00260436e+00
1.00252715e+00
1.00245335e+00
1.00238174e+00
1.00231118e+00
1.00224066e+00
1.00216925e+00
1.00209618e+00
1.00202081e+00
1.00194261e+00
1.00186119e+00
1.00177627e+00
1.00168765e+00
1.00159526e+00
1.00149907e+00
1.00139916e+00
1.00129564e+00
1.00118871e+00
1.00107858e+00
1.00096554e+00
1.00084989e+00
1.00073197e+00
1.00061214e+00
1.00049080e+00
1.00036833e+00
1.00024515e+00
1.00012166e+00
9.99998296e-01
9.99875449e-01
9.99753522e-01
9.99632899e-01
9.99513942e-01
9.99396989e-01
9.99282346e-01
9.99170283e-01
9.99061024e-01
9.98954745e-01
9.98851562e-01
9.98751528e-01
9.98654619e-01
9.98560730e-01
9.98469663e-01
9.98381122e-01
9.98294705e-01
9.98209899e-01
9.98126080e-01
9.98042516e-01
9.97958376e-01
9.97872748e-01
9.97784661e-01
9.97693116e-01
9.97597131e-01
9.97495778e-01
9.97388245e-01
9.97273881e-01
9.97152251e-01
9.97023185e-01
9.96886809e-01
9.96743574e-01
9.96594259e-01
9.96439961e-01
9.96282060e-01
9.96122172e-01
9.95962076e-01
9.95803638e-01
9.95648720e-01
9.95499091e-01
9.95356349e-01
9.95221839e-01
9.95096600e-01
9.94981345e-01
9.94876443e-01
9.94781904e-01
9.94697434e-01
9.94622538e-01
9.94556502e-01
9.94498410e-01
9.94447376e-01
9.94402650e-01
9.94363295e-01
9.94328343e-01
9.94297491e-01
9.94270623e-01
9.94246510e-01
9.94224528e-01
9.94206888e-01
9.94193826e-01
9.94180555e-01
9.94170648e-01
9.94182493e-01
9.94195167e-01
1.00666697e+00
1.00666182e+00
1.00665421e+00
1.00663915e+00
1.00661726e+00
1.00659009e+00
1.00655564e+00
1.00651337e+00
1.00646297e+00
1.00640388e+00
1.00633488e+00
1.00625540e+00
1.00616498e+00
1.00606327e+00
1.00595000e+00
1.00582526e+00
1.00568936e+00
1.00554287e+00
1.00538662e+00
1.00522177e+00
1.00504973e+00
1.00487215e+00
1.00469090e+00
1.00450797e+00
1.00432544e+00
1.00414535e+00
1.00396963e+00
1.00380003e+00
1.00363803e+00
1.00348477e+00
1.00334104e+00
1.00320724e+00
1.00308340e+00
1.00296923e+00
1.00286410e+00
1.00276717e+00
1.00267739e+00
1.00259361e+00
1.00251460e+00
1.00243913e+00
1.00236601e+00
1.00229414e+00
1.00222249e+00
1.00215015e+00
1.00207637e+00
1.00200049e+00
1.00192200e+00
1.00184049e+00
1.00175567e+00
1.00166737e+00
1.00157548e+00
1.00147998e+00
1.00138093e+00
1.00127845e+00
1.00117271e+00
1.00106393e+00
1.00095237e+00
1.00083832e+00
1.00072210e+00
1.00060407e+00
1.00048459e+00
1.00036404e+00
1.00024280e+00
1.00012128e+00
9.99999861e-01
9.99878937e-01
9.99758886e-01
9.99640074e-01
9.99522844e-01
9.99407519e-01
9.99294388e-01
9.99183706e-01
9.99075686e-01
9.98970490e-01
9.98868224e-01
9.98768929e-01
9.98672575e-01
9.98579047e-01
9.98488143e-01
9.98399560e-01
9.98312896e-01
9.98227637e-01
9.98143163e-01
9.98058751e-01
9.97973585e-01
9.97886772e-01
9.97797368e-01
9.97704411e-01
9.97606957e-01
9.97504128e-01
9.97395163e-01
9.97279467e-01
9.97156657e-01
9.97026614e-01
9.96889506e-01
9.96745815e-01
9.96596339e-01
9.96442177e-01
9.96284693e-01
9.96125472e-01
9.95966246e-01
9.95808821e-01
9.95654993e-01
9.95506459e-01
9.95364747e-01
9.95231139e-01
9.95106630e-01
9.94991891e-01
9.94887261e-01
9.94792761e-01
9.94708129e-01
9.94632867e-01
9.94566285e-01
9.94507578e-01
9.94455908e-01
9.94410448e-01
9.94370352e-01
9.94334922e-01
9.94303646e-01
9.94276079e-01
9.94251631e-01
9.94230237e-01
9.94212439e-01
9.94198103e-01
9.94186369e-01
9.94178337e-01
9.94181783e-01
9.94182111e-01
1.00666094e+00
1.00664993e+00
1.00663411e+00
1.00662028e+00
1.00660100e+00
1.00657232e+00
1.00653731e+00
1.00649636e+00
1.00644652e+00
1.00638720e+00
1.00631871e+00
1.00624009e+00
1.00615028e+00
1.00604923e+00
1.00593693e+00
1.00581322e+00
1.00567836e+00
1.00553299e+00
1.00537793e+00
1.00521423e+00
1.00504328e+00
1.00486669e+00
1.00468626e+00
1.00450393e+00
1.00432170e+00
1.00414160e+00
1.00396551e+00
1.00379516e+00
1.00363204e+00
1.00347730e+00
1.00333176e+00
1.00319589e+00
1.00306976e+00
1.00295314e+00
1.00284548e+00
1.00274599e+00
1.00265369e+00
1.00256747e+00
1.00248617e+00
1.00240859e+00
1.00233357e+00
1.00226003e+00
1.00218698e+00
1.00211352e+00
1.00203890e+00
1.00196249e+00
1.00188377e+00
1.00180234e+00
1.00171792e+00
1.00163033e+00
1.00153946e+00
1.00144529e+00
1.00134786e+00
1.00124729e+00
1.00114373e+00
1.00103738e+00
1.00092848e+00
1.00081731e+00
1.00070415e+00
1.00058933e+00
1.00047319e+00
1.00035606e+00
1.00023831e+00
1.00012030e+00
1.00000238e+00
9.99884911e-01
9.99768236e-01
9.99652690e-01
9.99538586e-01
9.99426219e-01
9.99315853e-01
9.99207719e-01
9.99102008e-01
9.98998865e-01
9.98898381e-01
9.98800585e-01
9.98705436e-01
9.98612811e-01
9.98522505e-01
9.98434214e-01
9.98347536e-01
9.98261963e-01
9.98176886e-01
9.98091595e-01
9.98005295e-01
9.97917121e-01
9.97826160e-01
9.97731491e-01
9.97632217e-01
9.97527512e-01
9.97416672e-01
9.97299158e-01
9.97174650e-01
9.97043079e-01
9.96904664e-01
9.96759923e-01
9.96609679e-01
9.96455039e-01
9.96297364e-01
9.96138212e-01
9.95979279e-01
9.95822320e-01
9.95669068e-01
9.95521160e-01
9.95380051e-01
9.95246966e-01
9.95122852e-01
9.95008336e-01
9.94903726e-01
9.94809050e-01
9.94724063e-01
9.94648250e-01
9.94580956e-01
9.94521496e-01
9.94469031e-01
9.94422630e-01
9.94381652e-01
9.94345641e-01
9.94313684e-01
9.94285043e-01
9.94260301e-01
9.94239529e-01
9.94220504e-01
9.94203778e-01
9.94195194e-01
9.94190513e-01
9.94177360e-01
9.94169069e-01
1.00664286e+00
1.00663263e+00
1.00661705e+00
1.00659981e+00
1.00657833e+00
1.00655086e+00
1.00651656e+00
1.00647472e+00
1.00642483e+00
1.00636623e+00
1.00629805e+00
1.00621957e+00
1.00613037e+00
1.00603008e+00
1.00591843e+00
1.00579549e+00
1.00566155e+00
1.00551710e+00
1.00536294e+00
1.00520015e+00
1.00503003e+00
1.00485414e+00
1.00467422e+00
1.00449217e+00
1.00430994e+00
1.00412948e+00
1.00395266e+00
1.00378119e+00
1.00361654e+00
1.00345989e+00
1.00331209e+00
1.00317364e+00
1.00304470e+00
1.00292509e+00
1.00281433e+00
1.00271170e+00
1.00261629e+00
1.00252708e+00
1.00244294e+00
1.00236274e+00
1.00228537e+00
1.00220977e+00
1.00213499e+00
1.00206018e+00
1.00198458e+00
1.00190758e+00
1.00182869e+00
1.00174752e+00
1.00166378e+00
1.00157729e+00
1.00148795e+00
1.00139572e+00
1.00130066e+00
1.00120284e+00
1.00110240e+00
1.00099953e+00
1.00089444e+00
1.00078735e+00
1.00067854e+00
1.00056828e+00
1.00045687e+00
1.00034460e+00
1.00023179e+00
1.00011875e+00
1.00000580e+00
9.99893230e-01
9.99781353e-01
9.99670454e-01
9.99560807e-01
9.99452666e-01
9.99346260e-01
9.99241789e-01
9.99139414e-01
9.99039257e-01
9.98941387e-01
9.98845817e-01
9.98752492e-01
9.98661285e-01
9.98571982e-01
9.98484282e-01
9.98397788e-01
9.98312002e-01
9.98226330e-01
9.98140088e-01
9.98052507e-01
9.97962760e-01
9.97869979e-01
9.97773294e-01
9.97671865e-01
9.97564932e-01
9.97451856e-01
9.97332166e-01
9.97205606e-01
9.97072167e-01
9.96932117e-01
9.96786011e-01
9.96634694e-01
9.96479279e-01
9.96321110e-01
9.96161719e-01
9.96002754e-01
9.95845915e-01
9.95692868e-01
9.95545180e-01
9.95404247e-01
9.95271232e-01
9.95147029e-01
9.95032240e-01
9.94927168e-01
9.94831824e-01
9.94745971e-01
9.94669167e-01
9.94600799e-01
9.94540138e-01
9.94486441e-01
9.94438960e-01
9.94396935e-01
9.94359714e-01
9.94326864e-01
9.94297877e-01
9.94272220e-01
9.94249976e-01
9.94231483e-01
9.94215901e-01
9.94203050e-01
9.94194200e-01
9.94184365e-01
9.94177595e-01
1.00661845e+00
1.00660828e+00
1.00659508e+00
1.00657565e+00
1.00655219e+00
1.00652521e+00
1.00649083e+00
1.00644815e+00
1.00639822e+00
1.00633995e+00
1.00627174e+00
1.00619333e+00
1.00610459e+00
1.00600480e+00
1.00589367e+00
1.00577138e+00
1.00563821e+00
1.00549454e+00
1.00534117e+00
1.00517915e+00
1.00500973e+00
1.00483439e+00
1.00465484e+00
1.00447289e+00
1.00429043e+00
1.00410937e+00
1.00393153e+00
1.00375860e+00
1.00359204e+00
1.00343304e+00
1.00328251e+00
1.00314098e+00
1.00300868e+00
1.00288551e+00
1.00277108e+00
1.00266476e+00
1.00256571e+00
1.00247299e+00
1.00238554e+00
1.00230229e+00
1.00222220e+00
1.00214426e+00
1.00206754e+00
1.00199122e+00
1.00191459e+00
1.00183705e+00
1.00175812e+00
1.00167742e+00
1.00159468e+00
1.00150972e+00
1.00142243e+00
1.00133277e+00
1.00124076e+00
1.00114649e+00
1.00105006e+00
1.00095162e+00
1.00085135e+00
1.00074945e+00
1.00064613e+00
1.00054162e+00
1.00043618e+00
1.00033003e+00
1.00022345e+00
1.00011668e+00
1.00000998e+00
9.99903592e-01
9.99797772e-01
9.99692750e-01
9.99588750e-01
9.99485977e-01
9.99384617e-01
9.99284829e-01
9.99186740e-01
9.99090442e-01
9.98995977e-01
9.98903339e-01
9.98812457e-01
9.98723191e-01
9.98635325e-01
9.98548558e-01
9.98462497e-01
9.98376659e-01
9.98290470e-01
9.98203271e-01
9.98114331e-01
9.98022866e-01
9.97928062e-01
9.97829108e-01
9.97725234e-01
9.97615754e-01
9.97500105e-01
9.97377896e-01
9.97248943e-01
9.97113305e-01
9.96971305e-01
9.96823540e-01
9.96670878e-01
9.96514435e-01
9.96355541e-01
9.96195690e-01
9.96036479e-01
9.95879541e-01
9.95726471e-01
9.95578757e-01
9.95437724e-01
9.95304472e-01
9.95179843e-01
9.95064408e-01
9.94958465e-01
9.94862027e-01
9.94774868e-01
9.94696609e-01
9.94626700e-01
9.94564418e-01
9.94509066e-01
9.94460061e-01
9.94416644e-01
9.94377975e-01
9.94343790e-01
9.94314036e-01
9.94287651e-01
9.94263903e-01
9.94244514e-01
9.94229806e-01
9.94215177e-01
9.94202038e-01
9.94195025e-01
9.94189414e-01
1.00659114e+00
1.00658006e+00
1.00656497e+00
1.00654629e+00
1.00652317e+00
1.00649411e+00
1.00645873e+00
1.00641664e+00
1.00636647e+00
1.00630743e+00
1.00623924e+00
1.00616123e+00
1.00607259e+00
1.00597300e+00
1.00586241e+00
1.00574073e+00
1.00560812e+00
1.00546512e+00
1.00531245e+00
1.00515107e+00
1.00498219e+00
1.00480726e+00
1.00462789e+00
1.00444583e+00
1.00426292e+00
1.00408101e+00
1.00390187e+00
1.00372715e+00
1.00355834e+00
1.00339663e+00
1.00324296e+00
1.00309794e+00
1.00296186e+00
1.00283470e+00
1.00271617e+00
1.00260573e+00
1.00250264e+00
1.00240604e+00
1.00231495e+00
1.00222839e+00
1.00214536e+00
1.00206491e+00
1.00198615e+00
1.00190831e+00
1.00183071e+00
1.00175276e+00
1.00167400e+00
1.00159407e+00
1.00151270e+00
1.00142970e+00
1.00134497e+00
1.00125845e+00
1.00117016e+00
1.00108014e+00
1.00098849e+00
1.00089531e+00
1.00080074e+00
1.00070494e+00
1.00060807e+00
1.00051031e+00
1.00041184e+00
1.00031286e+00
1.00021355e+00
1.00011411e+00
1.00001472e+00
9.99915569e-01
9.99816847e-01
9.99718725e-01
9.99621369e-01
9.99524930e-01
9.99429544e-01
9.99335325e-01
9.99242360e-01
9.99150703e-01
9.99060369e-01
9.98971325e-01
9.98883481e-01
9.98796684e-01
9.98710712e-01
9.98625260e-01
9.98539943e-01
9.98454291e-01
9.98367752e-01
9.98279698e-01
9.98189436e-01
9.98096232e-01
9.97999330e-01
9.97897990e-01
9.97791517e-01
9.97679305e-01
9.97560878e-01
9.97435929e-01
9.97304355e-01
9.97166289e-01
9.97022112e-01
9.96872465e-01
9.96718241e-01
9.96560557e-01
9.96400726e-01
9.96240204e-01
9.96080529e-01
9.95923264e-01
9.95769928e-01
9.95621929e-01
9.95480511e-01
9.95346715e-01
9.95221337e-01
9.95104911e-01
9.94997714e-01
9.94899795e-01
9.94810970e-01
9.94730854e-01
9.94658955e-01
9.94594713e-01
9.94537440e-01
9.94486422e-01
9.94441135e-01
9.94401064e-01
9.94365442e-01
9.94333831e-01
9.94306410e-01
9.94282733e-01
9.94261715e-01
9.94244182e-01
9.94230384e-01
9.94218371e-01
9.94208703e-01
9.94201386e-01
1.00655729e+00
1.00654590e+00
1.00652976e+00
1.00651132e+00
1.00648787e+00
1.00645762e+00
1.00642164e+00
1.00637913e+00
1.00632831e+00
1.00626888e+00
1.00620062e+00
1.00612249e+00
1.00603382e+00
1.00593447e+00
1.00582424e+00
1.00570295e+00
1.00557083e+00
1.00542840e+00
1.00527629e+00
1.00511542e+00
1.00494696e+00
1.00477230e+00
1.00459296e+00
1.00441063e+00
1.00422709e+00
1.00404412e+00
1.00386345e+00
1.00368671e+00
1.00351537e+00
1.00335066e+00
1.00319355e+00
1.00304472e+00
1.00290453e+00
1.00277307e+00
1.00265014e+00
1.00253530e+00
1.00242792e+00
1.00232722e+00
1.00223233e+00
1.00214233e+00
1.00205629e+00
1.00197332e+00
1.00189259e+00
1.00181335e+00
1.00173494e+00
1.00165682e+00
1.00157853e+00
1.00149971e+00
1.00142011e+00
1.00133954e+00
1.00125787e+00
1.00117504e+00
1.00109105e+00
1.00100591e+00
1.00091968e+00
1.00083244e+00
1.00074428e+00
1.00065531e+00
1.00056563e+00
1.00047538e+00
1.00038468e+00
1.00029364e+00
1.00020241e+00
1.00011109e+00
1.00001982e+00
9.99928709e-01
9.99837885e-01
9.99747455e-01
9.99657525e-01
9.99568189e-01
9.99479530e-01
9.99391611e-01
9.99304476e-01
9.99218139e-01
9.99132580e-01
9.99047738e-01
9.98963500e-01
9.98879697e-01
9.98796093e-01
9.98712382e-01
9.98628182e-01
9.98543036e-01
9.98456411e-01
9.98367710e-01
9.98276284e-01
9.98181447e-01
9.98082509e-01
9.97978800e-01
9.97869707e-01
9.97754712e-01
9.97633430e-01
9.97505644e-01
9.97371338e-01
9.97230721e-01
9.97084237e-01
9.96932574e-01
9.96776649e-01
9.96617583e-01
9.96456667e-01
9.96295314e-01
9.96135005e-01
9.95977228e-01
9.95823417e-01
9.95674900e-01
9.95532845e-01
9.95398219e-01
9.95271775e-01
9.95154023e-01
9.95045228e-01
9.94945448e-01
9.94854553e-01
9.94772215e-01
9.94697968e-01
9.94631331e-01
9.94571745e-01
9.94518505e-01
9.94471024e-01
9.94428970e-01
9.94391768e-01
9.94358610e-01
9.94329479e-01
9.94304737e-01
9.94283137e-01
9.94263989e-01
9.94249239e-01
9.94237681e-01
9.94226706e-01
9.94218919e-01
1.00651682e+00
1.00650595e+00
1.00649038e+00
1.00647050e+00
1.00644574e+00
1.00641567e+00
1.00637905e+00
1.00633504e+00
1.00628363e+00
1.00622410e+00
1.00615526e+00
1.00607664e+00
1.00598800e+00
1.00588878e+00
1.00577860e+00
1.00565756e+00
1.00552587e+00
1.00538385e+00
1.00523215e+00
1.00507167e+00
1.00490353e+00
1.00472899e+00
1.00454956e+00
1.00436684e+00
1.00418253e+00
1.00399834e+00
1.00381599e+00
1.00363706e+00
1.00346303e+00
1.00329513e+00
1.00313440e+00
1.00298157e+00
1.00283710e+00
1.00270117e+00
1.00257369e+00
1.00245434e+00
1.00234258e+00
1.00223774e+00
1.00213904e+00
1.00204564e+00
1.00195669e+00
1.00187134e+00
1.00178883e+00
1.00170842e+00
1.00162950e+00
1.00155154e+00
1.00147409e+00
1.00139680e+00
1.00131940e+00
1.00124171e+00
1.00116358e+00
1.00108494e+00
1.00100575e+00
1.00092601e+00
1.00084574e+00
1.00076496e+00
1.00068374e+00
1.00060212e+00
1.00052018e+00
1.00043797e+00
1.00035555e+00
1.00027300e+00
1.00019036e+00
1.00010771e+00
1.00002509e+00
9.99942560e-01
9.99860178e-01
9.99777990e-01
9.99696040e-01
9.99614365e-01
9.99532992e-01
9.99451934e-01
9.99371189e-01
9.99290727e-01
9.99210493e-01
9.99130391e-01
9.99050282e-01
9.98969976e-01
9.98889222e-01
9.98807707e-01
9.98725048e-01
9.98640798e-01
9.98554441e-01
9.98465411e-01
9.98373097e-01
9.98276867e-01
9.98176093e-01
9.98070181e-01
9.97958600e-01
9.97840924e-01
9.97716861e-01
9.97586290e-01
9.97449282e-01
9.97306125e-01
9.97157331e-01
9.97003633e-01
9.96845970e-01
9.96685468e-01
9.96523394e-01
9.96361117e-01
9.96200054e-01
9.96041617e-01
9.95887156e-01
9.95737912e-01
9.95594978e-01
9.95459257e-01
9.95331445e-01
9.95212033e-01
9.95101302e-01
9.94999310e-01
9.94905951e-01
9.94821002e-01
9.94744086e-01
9.94674690e-01
9.94612335e-01
9.94556579e-01
9.94506787e-01
9.94462315e-01
9.94422943e-01
9.94388407e-01
9.94357826e-01
9.94330919e-01
9.94308273e-01
9.94289218e-01
9.94272964e-01
9.94259888e-01
9.94249573e-01
9.94242211e-01
1.00647128e+00
1.00645994e+00
1.00644426e+00
1.00642368e+00
1.00639814e+00
1.00636722e+00
1.00632949e+00
1.00628464e+00
1.00623251e+00
1.00617208e+00
1.00610255e+00
1.00602360e+00
1.00593467e+00
1.00583520e+00
1.00572502e+00
1.00560415e+00
1.00547267e+00
1.00533091e+00
1.00517954e+00
1.00501937e+00
1.00485142e+00
1.00467694e+00
1.00449734e+00
1.00431414e+00
1.00412898e+00
1.00394352e+00
1.00375940e+00
1.00357821e+00
1.00340140e+00
1.00323026e+00
1.00306583e+00
1.00290895e+00
1.00276016e+00
1.00261975e+00
1.00248772e+00
1.00236389e+00
1.00224782e+00
1.00213895e+00
1.00203660e+00
1.00194000e+00
1.00184837e+00
1.00176094e+00
1.00167695e+00
1.00159575e+00
1.00151670e+00
1.00143931e+00
1.00136313e+00
1.00128781e+00
1.00121308e+00
1.00113872e+00
1.00106459e+00
1.00099057e+00
1.00091662e+00
1.00084268e+00
1.00076875e+00
1.00069481e+00
1.00062087e+00
1.00054695e+00
1.00047305e+00
1.00039917e+00
1.00032534e+00
1.00025154e+00
1.00017777e+00
1.00010405e+00
1.00003036e+00
9.99956695e-01
9.99883049e-01
9.99809409e-01
9.99735762e-01
9.99662090e-01
9.99588366e-01
9.99514554e-01
9.99440602e-01
9.99366440e-01
9.99291970e-01
9.99217063e-01
9.99141548e-01
9.99065210e-01
9.98987780e-01
9.98908930e-01
9.98828275e-01
9.98745369e-01
9.98659713e-01
9.98570764e-01
9.98477949e-01
9.98380687e-01
9.98278411e-01
9.98170599e-01
9.98056807e-01
9.97936698e-01
9.97810076e-01
9.97676914e-01
9.97537373e-01
9.97391823e-01
9.97240838e-01
9.97085199e-01
9.96925870e-01
9.96763974e-01
9.96600756e-01
9.96437538e-01
9.96275672e-01
9.96116490e-01
9.95961259e-01
9.95811132e-01
9.95667123e-01
9.95530075e-01
9.95400641e-01
9.95279281e-01
9.95166281e-01
9.95061745e-01
9.94965604e-01
9.94877669e-01
9.94797674e-01
9.94725225e-01
9.94659835e-01
9.94601091e-01
9.94548583e-01
9.94501713e-01
9.94459977e-01
9.94423249e-01
9.94391113e-01
9.94362805e-01
9.94338515e-01
9.94318478e-01
9.94301572e-01
9.94287631e-01
9.94277056e-01
9.94269302e-01
1.00641992e+00
1.00640789e+00
1.00639114e+00
1.00637037e+00
1.00634426e+00
1.00631173e+00
1.00627287e+00
1.00622736e+00
1.00617406e+00
1.00611245e+00
1.00604227e+00
1.00596274e+00
1.00587318e+00
1.00577335e+00
1.00566308e+00
1.00554216e+00
1.00541072e+00
1.00526916e+00
1.00511802e+00
1.00495806e+00
1.00479025e+00
1.00461579e+00
1.00443599e+00
1.00425230e+00
1.00406629e+00
1.00387956e+00
1.00369370e+00
1.00351028e+00
1.00333074e+00
1.00315639e+00
1.00298835e+00
1.00282750e+00
1.00267450e+00
1.00252972e+00
1.00239332e+00
1.00226519e+00
1.00214504e+00
1.00203241e+00
1.00192670e+00
1.00182724e+00
1.00173331e+00
1.00164419e+00
1.00155917e+00
1.00147761e+00
1.00139891e+00
1.00132256e+00
1.00124813e+00
1.00117524e+00
1.00110362e+00
1.00103303e+00
1.00096329e+00
1.00089427e+00
1.00082589e+00
1.00075805e+00
1.00069071e+00
1.00062383e+00
1.00055737e+00
1.00049128e+00
1.00042552e+00
1.00036007e+00
1.00029486e+00
1.00022986e+00
1.00016500e+00
1.00010024e+00
1.00003550e+00
9.99970737e-01
9.99905879e-01
9.99840862e-01
9.99775621e-01
9.99710085e-01
9.99644179e-01
9.99577817e-01
9.99510904e-01
9.99443324e-01
9.99374941e-01
9.99305586e-01
9.99235056e-01
9.99163107e-01
9.99089444e-01
9.99013723e-01
9.98935548e-01
9.98854472e-01
9.98770005e-01
9.98681623e-01
9.98588787e-01
9.98490959e-01
9.98387633e-01
9.98278356e-01
9.98162766e-01
9.98040615e-01
9.97911799e-01
9.97776387e-01
9.97634628e-01
9.97486968e-01
9.97334048e-01
9.97176690e-01
9.97015882e-01
9.96852744e-01
9.96688495e-01
9.96524407e-01
9.96361767e-01
9.96201826e-01
9.96045765e-01
9.95894654e-01
9.95749427e-01
9.95610864e-01
9.95479585e-01
9.95356033e-01
9.95240485e-01
9.95133089e-01
9.95033855e-01
9.94942639e-01
9.94859213e-01
9.94783339e-01
9.94714656e-01
9.94652673e-01
9.94597021e-01
9.94547434e-01
9.94503338e-01
9.94464160e-01
9.94429893e-01
9.94400312e-01
9.94374613e-01
9.94352842e-01
9.94335287e-01
9.94321148e-01
9.94309619e-01
9.94301145e-01
1.00636091e+00
1.00634855e+00
1.00633134e+00
1.00630983e+00
1.00628261e+00
1.00624901e+00
1.00620906e+00
1.00616215e+00
1.00610757e+00
1.00604499e+00
1.00597381e+00
1.00589331e+00
1.00580308e+00
1.00570282e+00
1.00559218e+00
1.00547106e+00
1.00533962e+00
1.00519817e+00
1.00504718e+00
1.00488739e+00
1.00471975e+00
1.00454532e+00
1.00436535e+00
1.00418124e+00
1.00399447e+00
1.00380657e+00
1.00361910e+00
1.00343358e+00
1.00325146e+00
1.00307409e+00
1.00290263e+00
1.00273804e+00
1.00258107e+00
1.00243221e+00
1.00229173e+00
1.00215964e+00
1.00203578e+00
1.00191977e+00
1.00181113e+00
1.00170927e+00
1.00161351e+00
1.00152320e+00
1.00143766e+00
1.00135627e+00
1.00127843e+00
1.00120363e+00
1.00113143e+00
1.00106145e+00
1.00099336e+00
1.00092693e+00
1.00086193e+00
1.00079820e+00
1.00073562e+00
1.00067407e+00
1.00061346e+00
1.00055371e+00
1.00049473e+00
1.00043644e+00
1.00037877e+00
1.00032161e+00
1.00026490e+00
1.00020852e+00
1.00015239e+00
1.00009639e+00
1.00004042e+00
9.99984374e-01
9.99928143e-01
9.99871615e-01
9.99814680e-01
9.99757220e-01
9.99699117e-01
9.99640242e-01
9.99580455e-01
9.99519601e-01
9.99457501e-01
9.99393950e-01
9.99328708e-01
9.99261499e-01
9.99192000e-01
9.99119844e-01
9.99044619e-01
9.98965871e-01
9.98883111e-01
9.98795832e-01
9.98703519e-01
9.98605674e-01
9.98501845e-01
9.98391644e-01
9.98274786e-01
9.98151107e-01
9.98020594e-01
9.97883404e-01
9.97739873e-01
9.97590520e-01
9.97436047e-01
9.97277317e-01
9.97115336e-01
9.96951219e-01
9.96786155e-01
9.96621367e-01
9.96458073e-01
9.96297443e-01
9.96140571e-01
9.95988445e-01
9.95841926e-01
9.95701733e-01
9.95568443e-01
9.95442499e-01
9.95324196e-01
9.95213696e-01
9.95111072e-01
9.95016293e-01
9.94929204e-01
9.94849589e-01
9.94777228e-01
9.94711802e-01
9.94652875e-01
9.94600127e-01
9.94553279e-01
9.94511816e-01
9.94475321e-01
9.94443745e-01
9.94416674e-01
9.94393683e-01
9.94374977e-01
9.94360139e-01
9.94348145e-01
9.94339301e-01
1.00629388e+00
1.00628123e+00
1.00626381e+00
1.00624127e+00
1.00621285e+00
1.00617831e+00
1.00613702e+00
1.00608852e+00
1.00603271e+00
1.00596895e+00
1.00589647e+00
1.00581493e+00
1.00572395e+00
1.00562301e+00
1.00551186e+00
1.00539049e+00
1.00525899e+00
1.00511756e+00
1.00496672e+00
1.00480716e+00
1.00463971e+00
1.00446540e+00
1.00428540e+00
1.00410102e+00
1.00391367e+00
1.00372480e+00
1.00353594e+00
1.00334858e+00
1.00316418e+00
1.00298409e+00
1.00280954e+00
1.00264157e+00
1.00248101e+00
1.00232848e+00
1.00218435e+00
1.00204877e+00
1.00192167e+00
1.00180280e+00
1.00169176e+00
1.00158803e+00
1.00149101e+00
1.00140007e+00
1.00131458e+00
1.00123390e+00
1.00115746e+00
1.00108472e+00
1.00101524e+00
1.00094859e+00
1.00088443e+00
1.00082248e+00
1.00076249e+00
1.00070427e+00
1.00064764e+00
1.00059245e+00
1.00053857e+00
1.00048589e+00
1.00043427e+00
1.00038360e+00
1.00033377e+00
1.00028465e+00
1.00023610e+00
1.00018801e+00
1.00014023e+00
1.00009263e+00
1.00004505e+00
9.99997366e-01
9.99949421e-01
9.99901070e-01
9.99852165e-01
9.99802553e-01
9.99752075e-01
9.99700566e-01
9.99647847e-01
9.99593724e-01
9.99537980e-01
9.99480372e-01
9.99420624e-01
9.99358423e-01
9.99293417e-01
9.99225211e-01
9.99153372e-01
9.99077433e-01
9.98996903e-01
9.98911279e-01
9.98820069e-01
9.98722809e-01
9.98619090e-01
9.98508587e-01
9.98391083e-01
9.98266494e-01
9.98134892e-01
9.97996515e-01
9.97851778e-01
9.97701273e-01
9.97545753e-01
9.97386119e-01
9.97223390e-01
9.97058671e-01
9.96893120e-01
9.96727905e-01
9.96564174e-01
9.96403018e-01
9.96245444e-01
9.96092356e-01
9.95944546e-01
9.95802681e-01
9.95667300e-01
9.95538832e-01
9.95417605e-01
9.95303831e-01
9.95197617e-01
9.95099021e-01
9.95008024e-01
9.94924476e-01
9.94848182e-01
9.94778984e-01
9.94716594e-01
9.94660570e-01
9.94610640e-01
9.94566612e-01
9.94527935e-01
9.94494201e-01
9.94465427e-01
9.94441326e-01
9.94421447e-01
9.94405658e-01
9.94393367e-01
9.94384180e-01
1.00621827e+00
1.00620508e+00
1.00618716e+00
1.00616396e+00
1.00613454e+00
1.00609863e+00
1.00605586e+00
1.00600606e+00
1.00594881e+00
1.00588352e+00
1.00580978e+00
1.00572718e+00
1.00563519e+00
1.00553344e+00
1.00542179e+00
1.00530013e+00
1.00516847e+00
1.00502710e+00
1.00487649e+00
1.00471723e+00
1.00455011e+00
1.00437609e+00
1.00419627e+00
1.00401186e+00
1.00382420e+00
1.00363469e+00
1.00344478e+00
1.00325596e+00
1.00306967e+00
1.00288730e+00
1.00271011e+00
1.00253923e+00
1.00237559e+00
1.00221991e+00
1.00207268e+00
1.00193417e+00
1.00180441e+00
1.00168328e+00
1.00157044e+00
1.00146545e+00
1.00136777e+00
1.00127680e+00
1.00119192e+00
1.00111252e+00
1.00103800e+00
1.00096782e+00
1.00090149e+00
1.00083857e+00
1.00077867e+00
1.00072147e+00
1.00066669e+00
1.00061408e+00
1.00056345e+00
1.00051459e+00
1.00046734e+00
1.00042154e+00
1.00037704e+00
1.00033369e+00
1.00029134e+00
1.00024983e+00
1.00020901e+00
1.00016872e+00
1.00012880e+00
1.00008908e+00
1.00004938e+00
1.00000955e+00
9.99969409e-01
9.99928781e-01
9.99887490e-01
9.99845355e-01
9.99802187e-01
9.99757788e-01
9.99711948e-01
9.99664436e-01
9.99615001e-01
9.99563363e-01
9.99509209e-01
9.99452191e-01
9.99391924e-01
9.99327982e-01
9.99259908e-01
9.99187217e-01
9.99109409e-01
9.99025983e-01
9.98936461e-01
9.98840403e-01
9.98737444e-01
9.98627309e-01
9.98509844e-01
9.98385037e-01
9.98253035e-01
9.98114154e-01
9.97968881e-01
9.97817868e-01
9.97661917e-01
9.97501956e-01
9.97339014e-01
9.97174181e-01
9.97008577e-01
9.96843315e-01
9.96679469e-01
9.96518049e-01
9.96359979e-01
9.96206081e-01
9.96057075e-01
9.95913578e-01
9.95776110e-01
9.95645088e-01
9.95520853e-01
9.95403682e-01
9.95293766e-01
9.95191211e-01
9.95096089e-01
9.95008413e-01
9.94928067e-01
9.94854885e-01
9.94788718e-01
9.94729310e-01
9.94676265e-01
9.94629321e-01
9.94588219e-01
9.94552515e-01
9.94521908e-01
9.94496292e-01
9.94475372e-01
9.94458871e-01
9.94446043e-01
9.94436320e-01
1.00613276e+00
1.00611918e+00
1.00610080e+00
1.00607700e+00
1.00604656e+00
1.00600926e+00
1.00596513e+00
1.00591394e+00
1.00585510e+00
1.00578832e+00
1.00571329e+00
1.00562945e+00
1.00553638e+00
1.00543386e+00
1.00532166e+00
1.00519964e+00
1.00506790e+00
1.00492670e+00
1.00477642e+00
1.00461762e+00
1.00445105e+00
1.00427759e+00
1.00409824e+00
1.00391414e+00
1.00372655e+00
1.00353681e+00
1.00334632e+00
1.00315652e+00
1.00296886e+00
1.00278475e+00
1.00260550e+00
1.00243230e+00
1.00226618e+00
1.00210797e+00
1.00195828e+00
1.00181747e+00
1.00168572e+00
1.00156296e+00
1.00144896e+00
1.00134335e+00
1.00124562e+00
1.00115522e+00
1.00107154e+00
1.00099395e+00
1.00092184e+00
1.00085466e+00
1.00079187e+00
1.00073299e+00
1.00067760e+00
1.00062534e+00
1.00057587e+00
1.00052892e+00
1.00048422e+00
1.00044156e+00
1.00040074e+00
1.00036156e+00
1.00032384e+00
1.00028740e+00
1.00025207e+00
1.00021767e+00
1.00018403e+00
1.00015096e+00
1.00011830e+00
1.00008585e+00
1.00005342e+00
1.00002084e+00
9.99987917e-01
9.99954453e-01
9.99920254e-01
9.99885119e-01
9.99848836e-01
9.99811182e-01
9.99771919e-01
9.99730788e-01
9.99687504e-01
9.99641754e-01
9.99593191e-01
9.99541431e-01
9.99486054e-01
9.99426605e-01
9.99362598e-01
9.99293527e-01
9.99218879e-01
9.99138151e-01
9.99050871e-01
9.98956622e-01
9.98855071e-01
9.98745987e-01
9.98629275e-01
9.98504984e-01
9.98373329e-01
9.98234693e-01
9.98089626e-01
9.97938834e-01
9.97783156e-01
9.97623544e-01
9.97461023e-01
9.97296665e-01
9.97131547e-01
9.96966720e-01
9.96803187e-01
9.96641870e-01
9.96483611e-01
9.96329154e-01
9.96179153e-01
9.96034172e-01
9.95894707e-01
9.95761187e-01
9.95633973e-01
9.95513381e-01
9.95399695e-01
9.95293125e-01
9.95193805e-01
9.95101847e-01
9.95017297e-01
9.94940056e-01
9.94869977e-01
9.94806946e-01
9.94750686e-01
9.94700803e-01
9.94657070e-01
9.94619250e-01
9.94586854e-01
9.94559649e-01
9.94537606e-01
9.94520418e-01
9.94507056e-01
9.94496870e-01
1.00603618e+00
1.00602247e+00
1.00600394e+00
1.00597946e+00
1.00594799e+00
1.00590957e+00
1.00586413e+00
1.00581138e+00
1.00575105e+00
1.00568289e+00
1.00560644e+00
1.00552133e+00
1.00542727e+00
1.00532398e+00
1.00521121e+00
1.00508894e+00
1.00495726e+00
1.00481635e+00
1.00466659e+00
1.00450851e+00
1.00434279e+00
1.00417022e+00
1.00399173e+00
1.00380838e+00
1.00362135e+00
1.00343190e+00
1.00324137e+00
1.00305119e+00
1.00286278e+00
1.00267757e+00
1.00249692e+00
1.00232209e+00
1.00215419e+00
1.00199415e+00
1.00184269e+00
1.00170030e+00
1.00156723e+00
1.00144352e+00
1.00132903e+00
1.00122343e+00
1.00112627e+00
1.00103701e+00
1.00095504e+00
1.00087975e+00
1.00081049e+00
1.00074668e+00
1.00068774e+00
1.00063315e+00
1.00058244e+00
1.00053521e+00
1.00049107e+00
1.00044970e+00
1.00041082e+00
1.00037415e+00
1.00033947e+00
1.00030655e+00
1.00027519e+00
1.00024518e+00
1.00021635e+00
1.00018849e+00
1.00016142e+00
1.00013494e+00
1.00010887e+00
1.00008303e+00
1.00005720e+00
1.00003121e+00
1.00000486e+00
9.99977935e-01
9.99950239e-01
9.99921553e-01
9.99891652e-01
9.99860295e-01
9.99827221e-01
9.99792147e-01
9.99754761e-01
9.99714719e-01
9.99671643e-01
9.99625116e-01
9.99574683e-01
9.99519858e-01
9.99460127e-01
9.99394963e-01
9.99323836e-01
9.99246236e-01
9.99161696e-01
9.99069816e-01
9.98970289e-01
9.98862924e-01
9.98747671e-01
9.98624638e-01
9.98494097e-01
9.98356490e-01
9.98212419e-01
9.98062633e-01
9.97908000e-01
9.97749483e-01
9.97588101e-01
9.97424895e-01
9.97260893e-01
9.97097082e-01
9.96934385e-01
9.96773644e-01
9.96615610e-01
9.96460951e-01
9.96310257e-01
9.96164051e-01
9.96022798e-01
9.95886933e-01
9.95756862e-01
9.95632948e-01
9.95515534e-01
9.95404945e-01
9.95301437e-01
9.95205186e-01
9.95116333e-01
9.95034947e-01
9.94960947e-01
9.94894188e-01
9.94834528e-01
9.94781702e-01
9.94735341e-01
9.94695198e-01
9.94660960e-01
9.94632306e-01
9.94609056e-01
9.94591059e-01
9.94577349e-01
9.94566854e-01
1.00592781e+00
1.00591412e+00
1.00589559e+00
1.00587057e+00
1.00583824e+00
1.00579880e+00
1.00575208e+00
1.00569794e+00
1.00563625e+00
1.00556667e+00
1.00548887e+00
1.00540261e+00
1.00530761e+00
1.00520357e+00
1.00509038e+00
1.00496803e+00
1.00483656e+00
1.00469616e+00
1.00454722e+00
1.00439020e+00
1.00422569e+00
1.00405444e+00
1.00387730e+00
1.00369524e+00
1.00350933e+00
1.00332078e+00
1.00313088e+00
1.00294099e+00
1.00275254e+00
1.00256696e+00
1.00238566e+00
1.00220995e+00
1.00204103e+00
1.00187992e+00
1.00172743e+00
1.00158417e+00
1.00145049e+00
1.00132652e+00
1.00121218e+00
1.00110721e+00
1.00101118e+00
1.00092358e+00
1.00084381e+00
1.00077123e+00
1.00070518e+00
1.00064502e+00
1.00059015e+00
1.00054000e+00
1.00049406e+00
1.00045185e+00
1.00041298e+00
1.00037705e+00
1.00034376e+00
1.00031280e+00
1.00028391e+00
1.00025684e+00
1.00023137e+00
1.00020729e+00
1.00018438e+00
1.00016245e+00
1.00014131e+00
1.00012077e+00
1.00010062e+00
1.00008069e+00
1.00006078e+00