# vtk DataFile Version 2.0
LBM Flow Field - Timestep 2610
ASCII
DATASET STRUCTURED_POINTS
DIMENSIONS 128 128 1
ORIGIN 0.0 0.0 0.0
SPACING 1.0 1.0 1.0
POINT_DATA 16384
SCALARS density double 1
LOOKUP_TABLE default
1.00439514e+00
1.00439683e+00
1.00439695e+00
1.00438772e+00
1.00437563e+00
1.00436238e+00
1.00434581e+00
1.00432602e+00
1.00430406e+00
1.00427970e+00
1.00425250e+00
1.00422255e+00
1.00418993e+00
1.00415446e+00
1.00411604e+00
1.00407466e+00
1.00403027e+00
1.00398281e+00
1.00393224e+00
1.00387856e+00
1.00382175e+00
1.00376184e+00
1.00369886e+00
1.00363285e+00
1.00356391e+00
1.00349211e+00
1.00341758e+00
1.00334046e+00
1.00326090e+00
1.00317907e+00
1.00309518e+00
1.00300943e+00
1.00292204e+00
1.00283324e+00
1.00274328e+00
1.00265239e+00
1.00256083e+00
1.00246884e+00
1.00237665e+00
1.00228452e+00
1.00219266e+00
1.00210128e+00
1.00201059e+00
1.00192077e+00
1.00183198e+00
1.00174436e+00
1.00165804e+00
1.00157311e+00
1.00148965e+00
1.00140771e+00
1.00132731e+00
1.00124845e+00
1.00117111e+00
1.00109525e+00
1.00102079e+00
1.00094765e+00
1.00087572e+00
1.00080488e+00
1.00073499e+00
1.00066590e+00
1.00059745e+00
1.00052948e+00
1.00046183e+00
1.00039432e+00
1.00032679e+00
1.00025908e+00
1.00019105e+00
1.00012255e+00
1.00005347e+00
9.99983686e-01
9.99913117e-01
9.99841692e-01
9.99769360e-01
9.99696094e-01
9.99621890e-01
9.99546765e-01
9.99470757e-01
9.99393925e-01
9.99316350e-01
9.99238130e-01
9.99159378e-01
9.99080224e-01
9.99000809e-01
9.98921282e-01
9.98841801e-01
9.98762529e-01
9.98683631e-01
9.98605269e-01
9.98527606e-01
9.98450799e-01
9.98374996e-01
9.98300341e-01
9.98226966e-01
9.98154992e-01
9.98084529e-01
9.98015676e-01
9.97948517e-01
9.97883129e-01
9.97819571e-01
9.97757895e-01
9.97698142e-01
9.97640340e-01
9.97584513e-01
9.97530673e-01
9.97478828e-01
9.97428982e-01
9.97381129e-01
9.97335267e-01
9.97291392e-01
9.97249492e-01
9.97209556e-01
9.97171588e-01
9.97135590e-01
9.97101530e-01
9.97069416e-01
9.97039310e-01
9.97011178e-01
9.96984928e-01
9.96960704e-01
9.96938706e-01
9.96918558e-01
9.96900163e-01
9.96884553e-01
9.96871902e-01
9.96860274e-01
9.96851257e-01
9.96850609e-01
9.96851625e-01
1.00439730e+00
1.00439459e+00
1.00439160e+00
1.00438322e+00
1.00437173e+00
1.00435803e+00
1.00434153e+00
1.00432221e+00
1.00430031e+00
1.00427589e+00
1.00424877e+00
1.00421891e+00
1.00418628e+00
1.00415082e+00
1.00411244e+00
1.00407108e+00
1.00402671e+00
1.00397927e+00
1.00392874e+00
1.00387510e+00
1.00381835e+00
1.00375850e+00
1.00369560e+00
1.00362968e+00
1.00356083e+00
1.00348915e+00
1.00341475e+00
1.00333776e+00
1.00325835e+00
1.00317669e+00
1.00309297e+00
1.00300740e+00
1.00292020e+00
1.00283159e+00
1.00274182e+00
1.00265113e+00
1.00255976e+00
1.00246796e+00
1.00237597e+00
1.00228402e+00
1.00219234e+00
1.00210113e+00
1.00201060e+00
1.00192092e+00
1.00183226e+00
1.00174477e+00
1.00165855e+00
1.00157371e+00
1.00149033e+00
1.00140845e+00
1.00132809e+00
1.00124926e+00
1.00117193e+00
1.00109607e+00
1.00102159e+00
1.00094843e+00
1.00087646e+00
1.00080557e+00
1.00073562e+00
1.00066647e+00
1.00059796e+00
1.00052993e+00
1.00046221e+00
1.00039464e+00
1.00032705e+00
1.00025929e+00
1.00019121e+00
1.00012267e+00
1.00005355e+00
9.99983750e-01
9.99913171e-01
9.99841747e-01
9.99769428e-01
9.99696187e-01
9.99622018e-01
9.99546938e-01
9.99470984e-01
9.99394216e-01
9.99316712e-01
9.99238568e-01
9.99159898e-01
9.99080829e-01
9.99001501e-01
9.98922063e-01
9.98842671e-01
9.98763487e-01
9.98684673e-01
9.98606395e-01
9.98528811e-01
9.98452078e-01
9.98376347e-01
9.98301758e-01
9.98228445e-01
9.98156528e-01
9.98086117e-01
9.98017313e-01
9.97950199e-01
9.97884852e-01
9.97821333e-01
9.97759693e-01
9.97699974e-01
9.97642205e-01
9.97586409e-01
9.97532601e-01
9.97480789e-01
9.97430974e-01
9.97383157e-01
9.97337332e-01
9.97293494e-01
9.97251636e-01
9.97211751e-01
9.97173836e-01
9.97137883e-01
9.97103892e-01
9.97071866e-01
9.97041820e-01
9.97013738e-01
9.96987642e-01
9.96963570e-01
9.96941577e-01
9.96921549e-01
9.96903660e-01
9.96888166e-01
9.96875151e-01
9.96864061e-01
9.96855862e-01
9.96852384e-01
9.96849499e-01
1.00439833e+00
1.00439235e+00
1.00438332e+00
1.00437619e+00
1.00436615e+00
1.00435155e+00
1.00433474e+00
1.00431598e+00
1.00429425e+00
1.00426968e+00
1.00424263e+00
1.00421291e+00
1.00418031e+00
1.00414485e+00
1.00410653e+00
1.00406523e+00
1.00402090e+00
1.00397352e+00
1.00392306e+00
1.00386949e+00
1.00381282e+00
1.00375307e+00
1.00369026e+00
1.00362446e+00
1.00355574e+00
1.00348419e+00
1.00340994e+00
1.00333311e+00
1.00325387e+00
1.00317239e+00
1.00308886e+00
1.00300349e+00
1.00291648e+00
1.00282809e+00
1.00273853e+00
1.00264805e+00
1.00255690e+00
1.00246531e+00
1.00237353e+00
1.00228179e+00
1.00219031e+00
1.00209930e+00
1.00200895e+00
1.00191946e+00
1.00183097e+00
1.00174363e+00
1.00165756e+00
1.00157286e+00
1.00148959e+00
1.00140782e+00
1.00132756e+00
1.00124881e+00
1.00117156e+00
1.00109576e+00
1.00102134e+00
1.00094821e+00
1.00087628e+00
1.00080542e+00
1.00073550e+00
1.00066637e+00
1.00059788e+00
1.00052986e+00
1.00046216e+00
1.00039462e+00
1.00032706e+00
1.00025934e+00
1.00019130e+00
1.00012282e+00
1.00005377e+00
9.99984039e-01
9.99913545e-01
9.99842216e-01
9.99770003e-01
9.99696878e-01
9.99622834e-01
9.99547887e-01
9.99472074e-01
9.99395453e-01
9.99318100e-01
9.99240113e-01
9.99161601e-01
9.99082692e-01
9.99003523e-01
9.98924243e-01
9.98845006e-01
9.98765975e-01
9.98687310e-01
9.98609174e-01
9.98531728e-01
9.98455128e-01
9.98379522e-01
9.98305053e-01
9.98231852e-01
9.98160042e-01
9.98089731e-01
9.98021020e-01
9.97953994e-01
9.97888729e-01
9.97825286e-01
9.97763717e-01
9.97704064e-01
9.97646357e-01
9.97590619e-01
9.97536865e-01
9.97485104e-01
9.97435338e-01
9.97387568e-01
9.97341789e-01
9.97297994e-01
9.97256180e-01
9.97216345e-01
9.97178473e-01
9.97142559e-01
9.97108629e-01
9.97076677e-01
9.97046656e-01
9.97018618e-01
9.96992679e-01
9.96968701e-01
9.96946582e-01
9.96926754e-01
9.96909407e-01
9.96893661e-01
9.96879842e-01
9.96870089e-01
9.96862936e-01
9.96854072e-01
9.96848188e-01
1.00439022e+00
1.00438479e+00
1.00437692e+00
1.00436813e+00
1.00435662e+00
1.00434271e+00
1.00432635e+00
1.00430722e+00
1.00428546e+00
1.00426115e+00
1.00423417e+00
1.00420442e+00
1.00417189e+00
1.00413653e+00
1.00409825e+00
1.00405701e+00
1.00401276e+00
1.00396545e+00
1.00391507e+00
1.00386159e+00
1.00380503e+00
1.00374538e+00
1.00368270e+00
1.00361704e+00
1.00354847e+00
1.00347708e+00
1.00340301e+00
1.00332637e+00
1.00324733e+00
1.00316606e+00
1.00308275e+00
1.00299761e+00
1.00291084e+00
1.00282269e+00
1.00273338e+00
1.00264316e+00
1.00255226e+00
1.00246093e+00
1.00236941e+00
1.00227791e+00
1.00218668e+00
1.00209591e+00
1.00200579e+00
1.00191652e+00
1.00182825e+00
1.00174111e+00
1.00165524e+00
1.00157071e+00
1.00148762e+00
1.00140600e+00
1.00132588e+00
1.00124727e+00
1.00117014e+00
1.00109444e+00
1.00102012e+00
1.00094709e+00
1.00087525e+00
1.00080447e+00
1.00073463e+00
1.00066558e+00
1.00059717e+00
1.00052924e+00
1.00046162e+00
1.00039417e+00
1.00032671e+00
1.00025910e+00
1.00019118e+00
1.00012283e+00
1.00005392e+00
9.99984351e-01
9.99914026e-01
9.99842878e-01
9.99770859e-01
9.99697940e-01
9.99624114e-01
9.99549394e-01
9.99473818e-01
9.99397440e-01
9.99320338e-01
9.99242604e-01
9.99164349e-01
9.99085698e-01
9.99006786e-01
9.98927760e-01
9.98848775e-01
9.98769989e-01
9.98691564e-01
9.98613660e-01
9.98536437e-01
9.98460050e-01
9.98384647e-01
9.98310370e-01
9.98237351e-01
9.98165709e-01
9.98095557e-01
9.98026992e-01
9.97960101e-01
9.97894959e-01
9.97831629e-01
9.97770162e-01
9.97710600e-01
9.97652975e-01
9.97597310e-01
9.97543621e-01
9.97491917e-01
9.97442201e-01
9.97394474e-01
9.97348734e-01
9.97304977e-01
9.97263194e-01
9.97223384e-01
9.97185544e-01
9.97149671e-01
9.97115759e-01
9.97083821e-01
9.97053870e-01
9.97025895e-01
9.96999909e-01
9.96975982e-01
9.96954111e-01
9.96934254e-01
9.96916561e-01
9.96901218e-01
9.96888025e-01
9.96876972e-01
9.96868288e-01
9.96860443e-01
9.96854932e-01
1.00437924e+00
1.00437418e+00
1.00436757e+00
1.00435725e+00
1.00434510e+00
1.00433177e+00
1.00431536e+00
1.00429595e+00
1.00427431e+00
1.00425018e+00
1.00422319e+00
1.00419345e+00
1.00416102e+00
1.00412574e+00
1.00408751e+00
1.00404633e+00
1.00400217e+00
1.00395495e+00
1.00390466e+00
1.00385130e+00
1.00379485e+00
1.00373534e+00
1.00367281e+00
1.00360731e+00
1.00353892e+00
1.00346773e+00
1.00339386e+00
1.00331745e+00
1.00323865e+00
1.00315763e+00
1.00307459e+00
1.00298972e+00
1.00290325e+00
1.00281539e+00
1.00272638e+00
1.00263646e+00
1.00254587e+00
1.00245485e+00
1.00236363e+00
1.00227244e+00
1.00218151e+00
1.00209103e+00
1.00200120e+00
1.00191220e+00
1.00182419e+00
1.00173731e+00
1.00165168e+00
1.00156738e+00
1.00148450e+00
1.00140309e+00
1.00132316e+00
1.00124472e+00
1.00116775e+00
1.00109222e+00
1.00101804e+00
1.00094515e+00
1.00087344e+00
1.00080279e+00
1.00073307e+00
1.00066415e+00
1.00059586e+00
1.00052806e+00
1.00046059e+00
1.00039328e+00
1.00032598e+00
1.00025854e+00
1.00019081e+00
1.00012266e+00
1.00005396e+00
9.99984620e-01
9.99914543e-01
9.99843659e-01
9.99771920e-01
9.99699296e-01
9.99625778e-01
9.99551381e-01
9.99476138e-01
9.99400103e-01
9.99323351e-01
9.99245974e-01
9.99168078e-01
9.99089787e-01
9.99011235e-01
9.98932566e-01
9.98853932e-01
9.98775490e-01
9.98697400e-01
9.98619821e-01
9.98542911e-01
9.98466823e-01
9.98391705e-01
9.98317698e-01
9.98244932e-01
9.98173528e-01
9.98103596e-01
9.98035234e-01
9.97968530e-01
9.97903557e-01
9.97840379e-01
9.97779048e-01
9.97719607e-01
9.97662087e-01
9.97606514e-01
9.97552902e-01
9.97501263e-01
9.97451602e-01
9.97403919e-01
9.97358213e-01
9.97314485e-01
9.97272725e-01
9.97232928e-01
9.97195100e-01
9.97159246e-01
9.97125342e-01
9.97093397e-01
9.97063469e-01
9.97035541e-01
9.97009528e-01
9.96985560e-01
9.96963828e-01
9.96944054e-01
9.96926077e-01
9.96910688e-01
9.96897998e-01
9.96886318e-01
9.96876253e-01
9.96869547e-01
9.96864372e-01
1.00436699e+00
1.00436125e+00
1.00435360e+00
1.00434391e+00
1.00433230e+00
1.00431809e+00
1.00430136e+00
1.00428243e+00
1.00426087e+00
1.00423654e+00
1.00420962e+00
1.00418005e+00
1.00414765e+00
1.00411239e+00
1.00407426e+00
1.00403319e+00
1.00398910e+00
1.00394199e+00
1.00389182e+00
1.00383858e+00
1.00378228e+00
1.00372293e+00
1.00366057e+00
1.00359526e+00
1.00352708e+00
1.00345612e+00
1.00338250e+00
1.00330635e+00
1.00322783e+00
1.00314710e+00
1.00306437e+00
1.00297982e+00
1.00289368e+00
1.00280617e+00
1.00271751e+00
1.00262795e+00
1.00253772e+00
1.00244706e+00
1.00235620e+00
1.00226537e+00
1.00217479e+00
1.00208466e+00
1.00199517e+00
1.00190650e+00
1.00181881e+00
1.00173223e+00
1.00164689e+00
1.00156287e+00
1.00148025e+00
1.00139909e+00
1.00131939e+00
1.00124118e+00
1.00116442e+00
1.00108908e+00
1.00101510e+00
1.00094239e+00
1.00087085e+00
1.00080038e+00
1.00073083e+00
1.00066208e+00
1.00059398e+00
1.00052636e+00
1.00045908e+00
1.00039198e+00
1.00032490e+00
1.00025769e+00
1.00019020e+00
1.00012232e+00
1.00005391e+00
9.99984870e-01
9.99915117e-01
9.99844577e-01
9.99773201e-01
9.99700958e-01
9.99627839e-01
9.99553855e-01
9.99479039e-01
9.99403442e-01
9.99327137e-01
9.99250213e-01
9.99172775e-01
9.99094943e-01
9.99016849e-01
9.98938634e-01
9.98860447e-01
9.98782444e-01
9.98704782e-01
9.98627617e-01
9.98551107e-01
9.98475403e-01
9.98400651e-01
9.98326989e-01
9.98254549e-01
9.98183450e-01
9.98113801e-01
9.98045700e-01
9.97979235e-01
9.97914479e-01
9.97851496e-01
9.97790339e-01
9.97731051e-01
9.97673665e-01
9.97618205e-01
9.97564690e-01
9.97513130e-01
9.97463532e-01
9.97415900e-01
9.97370232e-01
9.97326526e-01
9.97284783e-01
9.97245002e-01
9.97207172e-01
9.97171301e-01
9.97137407e-01
9.97105478e-01
9.97075499e-01
9.97047532e-01
9.97021618e-01
9.96997664e-01
9.96975694e-01
9.96955944e-01
9.96938371e-01
9.96922661e-01
9.96909129e-01
9.96897900e-01
9.96888399e-01
9.96880755e-01
9.96874996e-01
1.00435129e+00
1.00434546e+00
1.00433738e+00
1.00432805e+00
1.00431635e+00
1.00430181e+00
1.00428525e+00
1.00426639e+00
1.00424470e+00
1.00422042e+00
1.00419363e+00
1.00416410e+00
1.00413174e+00
1.00409657e+00
1.00405854e+00
1.00401755e+00
1.00397357e+00
1.00392658e+00
1.00387654e+00
1.00382345e+00
1.00376731e+00
1.00370814e+00
1.00364598e+00
1.00358090e+00
1.00351295e+00
1.00344225e+00
1.00336891e+00
1.00329306e+00
1.00321486e+00
1.00313447e+00
1.00305209e+00
1.00296791e+00
1.00288215e+00
1.00279503e+00
1.00270678e+00
1.00261762e+00
1.00252780e+00
1.00243756e+00
1.00234711e+00
1.00225670e+00
1.00216652e+00
1.00207679e+00
1.00198769e+00
1.00189940e+00
1.00181208e+00
1.00172586e+00
1.00164086e+00
1.00155717e+00
1.00147487e+00
1.00139400e+00
1.00131459e+00
1.00123665e+00
1.00116015e+00
1.00108506e+00
1.00101131e+00
1.00093883e+00
1.00086752e+00
1.00079726e+00
1.00072794e+00
1.00065941e+00
1.00059154e+00
1.00052416e+00
1.00045713e+00
1.00039028e+00
1.00032348e+00
1.00025656e+00
1.00018939e+00
1.00012184e+00
1.00005378e+00
9.99985121e-01
9.99915768e-01
9.99845651e-01
9.99774720e-01
9.99702942e-01
9.99630307e-01
9.99556824e-01
9.99482525e-01
9.99407458e-01
9.99331694e-01
9.99255317e-01
9.99178431e-01
9.99101153e-01
9.99023610e-01
9.98945943e-01
9.98868296e-01
9.98790823e-01
9.98713678e-01
9.98637015e-01
9.98560988e-01
9.98485748e-01
9.98411439e-01
9.98338198e-01
9.98266153e-01
9.98195424e-01
9.98126120e-01
9.98058338e-01
9.97992163e-01
9.97927672e-01
9.97864928e-01
9.97803983e-01
9.97744882e-01
9.97687657e-01
9.97632336e-01
9.97578937e-01
9.97527473e-01
9.97477950e-01
9.97430375e-01
9.97384750e-01
9.97341071e-01
9.97299340e-01
9.97259562e-01
9.97221734e-01
9.97185848e-01
9.97151925e-01
9.97119989e-01
9.97090004e-01
9.97061977e-01
9.97036018e-01
9.97012112e-01
9.96990117e-01
9.96970198e-01
9.96952632e-01
9.96937009e-01
9.96923141e-01
9.96911816e-01
9.96902624e-01
9.96894557e-01
9.96888711e-01
1.00433223e+00
1.00432676e+00
1.00431917e+00
1.00430942e+00
1.00429739e+00
1.00428330e+00
1.00426680e+00
1.00424761e+00
1.00422600e+00
1.00420194e+00
1.00417514e+00
1.00414560e+00
1.00411336e+00
1.00407831e+00
1.00404034e+00
1.00399945e+00
1.00395560e+00
1.00390874e+00
1.00385885e+00
1.00380592e+00
1.00374997e+00
1.00369100e+00
1.00362907e+00
1.00356423e+00
1.00349656e+00
1.00342615e+00
1.00335312e+00
1.00327761e+00
1.00319976e+00
1.00311976e+00
1.00303777e+00
1.00295400e+00
1.00286867e+00
1.00278199e+00
1.00269418e+00
1.00260549e+00
1.00251613e+00
1.00242635e+00
1.00233638e+00
1.00224642e+00
1.00215671e+00
1.00206743e+00
1.00197878e+00
1.00189092e+00
1.00180402e+00
1.00171821e+00
1.00163361e+00
1.00155030e+00
1.00146836e+00
1.00138784e+00
1.00130876e+00
1.00123114e+00
1.00115494e+00
1.00108014e+00
1.00100668e+00
1.00093448e+00
1.00086344e+00
1.00079346e+00
1.00072440e+00
1.00065615e+00
1.00058855e+00
1.00052146e+00
1.00045473e+00
1.00038821e+00
1.00032174e+00
1.00025517e+00
1.00018838e+00
1.00012122e+00
1.00005359e+00
9.99985383e-01
9.99916503e-01
9.99846885e-01
9.99776477e-01
9.99705245e-01
9.99633177e-01
9.99560282e-01
9.99486587e-01
9.99412140e-01
9.99337005e-01
9.99261267e-01
9.99185025e-01
9.99108391e-01
9.99031492e-01
9.98954463e-01
9.98877447e-01
9.98800592e-01
9.98724050e-01
9.98647973e-01
9.98572513e-01
9.98497816e-01
9.98424026e-01
9.98351278e-01
9.98279698e-01
9.98209405e-01
9.98140506e-01
9.98073099e-01
9.98007268e-01
9.97943090e-01
9.97880627e-01
9.97819933e-01
9.97761053e-01
9.97704021e-01
9.97648864e-01
9.97595603e-01
9.97544251e-01
9.97494819e-01
9.97447310e-01
9.97401732e-01
9.97358087e-01
9.97316372e-01
9.97276589e-01
9.97238751e-01
9.97202863e-01
9.97168907e-01
9.97136909e-01
9.97106919e-01
9.97078905e-01
9.97052831e-01
9.97028819e-01
9.97006948e-01
9.96987027e-01
9.96969088e-01
9.96953460e-01
9.96939962e-01
9.96928295e-01
9.96918682e-01
9.96911068e-01
9.96905522e-01
1.00431095e+00
1.00430550e+00
1.00429804e+00
1.00428819e+00
1.00427625e+00
1.00426222e+00
1.00424559e+00
1.00422647e+00
1.00420500e+00
1.00418091e+00
1.00415413e+00
1.00412471e+00
1.00409256e+00
1.00405757e+00
1.00401970e+00
1.00397894e+00
1.00393522e+00
1.00388850e+00
1.00383877e+00
1.00378603e+00
1.00373028e+00
1.00367154e+00
1.00360986e+00
1.00354530e+00
1.00347792e+00
1.00340784e+00
1.00333515e+00
1.00326001e+00
1.00318256e+00
1.00310297e+00
1.00302142e+00
1.00293811e+00
1.00285325e+00
1.00276706e+00
1.00267975e+00
1.00259157e+00
1.00250273e+00
1.00241347e+00
1.00232401e+00
1.00223457e+00
1.00214537e+00
1.00205660e+00
1.00196845e+00
1.00188108e+00
1.00179466e+00
1.00170931e+00
1.00162515e+00
1.00154227e+00
1.00146074e+00
1.00138062e+00
1.00130193e+00
1.00122467e+00
1.00114883e+00
1.00107437e+00
1.00100124e+00
1.00092936e+00
1.00085864e+00
1.00078898e+00
1.00072024e+00
1.00065231e+00
1.00058505e+00
1.00051830e+00
1.00045192e+00
1.00038577e+00
1.00031969e+00
1.00025354e+00
1.00018718e+00
1.00012049e+00
1.00005335e+00
9.99985654e-01
9.99917319e-01
9.99848273e-01
9.99778463e-01
9.99707856e-01
9.99636436e-01
9.99564210e-01
9.99491203e-01
9.99417460e-01
9.99343042e-01
9.99268030e-01
9.99192520e-01
9.99116620e-01
9.99040453e-01
9.98964150e-01
9.98887850e-01
9.98811700e-01
9.98735845e-01
9.98660437e-01
9.98585623e-01
9.98511547e-01
9.98438350e-01
9.98366166e-01
9.98295119e-01
9.98225325e-01
9.98156892e-01
9.98089916e-01
9.98024482e-01
9.97960663e-01
9.97898526e-01
9.97838123e-01
9.97779499e-01
9.97722690e-01
9.97667724e-01
9.97614623e-01
9.97563402e-01
9.97514075e-01
9.97466648e-01
9.97421125e-01
9.97377514e-01
9.97335820e-01
9.97296043e-01
9.97258186e-01
9.97222272e-01
9.97188303e-01
9.97156267e-01
9.97126201e-01
9.97098154e-01
9.97072086e-01
9.97047985e-01
9.97025994e-01
9.97006108e-01
9.96988161e-01
9.96972350e-01
9.96958846e-01
9.96947218e-01
9.96937490e-01
9.96929974e-01
9.96924433e-01
1.00428733e+00
1.00428180e+00
1.00427416e+00
1.00426456e+00
1.00425278e+00
1.00423853e+00
1.00422192e+00
1.00420302e+00
1.00418152e+00
1.00415740e+00
1.00413075e+00
1.00410144e+00
1.00406933e+00
1.00403442e+00
1.00399670e+00
1.00395606e+00
1.00391246e+00
1.00386591e+00
1.00381636e+00
1.00376382e+00
1.00370829e+00
1.00364980e+00
1.00358839e+00
1.00352412e+00
1.00345707e+00
1.00338734e+00
1.00331504e+00
1.00324030e+00
1.00316329e+00
1.00308415e+00
1.00300308e+00
1.00292027e+00
1.00283593e+00
1.00275027e+00
1.00266352e+00
1.00257589e+00
1.00248762e+00
1.00239893e+00
1.00231004e+00
1.00222118e+00
1.00213255e+00
1.00204434e+00
1.00195674e+00
1.00186991e+00
1.00178401e+00
1.00169918e+00
1.00161551e+00
1.00153312e+00
1.00145205e+00
1.00137238e+00
1.00129412e+00
1.00121727e+00
1.00114184e+00
1.00106777e+00
1.00099502e+00
1.00092351e+00
1.00085316e+00
1.00078385e+00
1.00071549e+00
1.00064793e+00
1.00058104e+00
1.00051468e+00
1.00044871e+00
1.00038298e+00
1.00031735e+00
1.00025167e+00
1.00018580e+00
1.00011964e+00
1.00005305e+00
9.99985934e-01
9.99918211e-01
9.99849806e-01
9.99780667e-01
9.99710757e-01
9.99640061e-01
9.99568583e-01
9.99496344e-01
9.99423386e-01
9.99349767e-01
9.99275565e-01
9.99200871e-01
9.99125790e-01
9.99050439e-01
9.98974947e-01
9.98899449e-01
9.98824085e-01
9.98749001e-01
9.98674341e-01
9.98600251e-01
9.98526872e-01
9.98454342e-01
9.98382792e-01
9.98312344e-01
9.98243115e-01
9.98175208e-01
9.98108720e-01
9.98043734e-01
9.97980325e-01
9.97918558e-01
9.97858487e-01
9.97800156e-01
9.97743603e-01
9.97688857e-01
9.97635943e-01
9.97584876e-01
9.97535670e-01
9.97488338e-01
9.97442886e-01
9.97399318e-01
9.97357645e-01
9.97317880e-01
9.97280019e-01
9.97244068e-01
9.97210062e-01
9.97178014e-01
9.97147897e-01
9.97119750e-01
9.97093659e-01
9.97069574e-01
9.97047444e-01
9.97027436e-01
9.97009608e-01
9.96993755e-01
9.96979984e-01
9.96968457e-01
9.96958929e-01
9.96951228e-01
9.96945589e-01
1.00426105e+00
1.00425562e+00
1.00424805e+00
1.00423850e+00
1.00422669e+00
1.00421249e+00
1.00419602e+00
1.00417709e+00
1.00415560e+00
1.00413161e+00
1.00410504e+00
1.00407575e+00
1.00404374e+00
1.00400897e+00
1.00397135e+00
1.00393083e+00
1.00388739e+00
1.00384101e+00
1.00379166e+00
1.00373933e+00
1.00368404e+00
1.00362581e+00
1.00356470e+00
1.00350075e+00
1.00343406e+00
1.00336471e+00
1.00329282e+00
1.00321853e+00
1.00314198e+00
1.00306334e+00
1.00298279e+00
1.00290053e+00
1.00281675e+00
1.00273167e+00
1.00264551e+00
1.00255849e+00
1.00247084e+00
1.00238277e+00
1.00229451e+00
1.00220628e+00
1.00211826e+00
1.00203067e+00
1.00194367e+00
1.00185744e+00
1.00177213e+00
1.00168786e+00
1.00160474e+00
1.00152288e+00
1.00144233e+00
1.00136315e+00
1.00128537e+00
1.00120899e+00
1.00113400e+00
1.00106037e+00
1.00098804e+00
1.00091695e+00
1.00084701e+00
1.00077812e+00
1.00071016e+00
1.00064302e+00
1.00057656e+00
1.00051064e+00
1.00044512e+00
1.00037987e+00
1.00031473e+00
1.00024957e+00
1.00018426e+00
1.00011867e+00
1.00005269e+00
9.99986219e-01
9.99919170e-01
9.99851473e-01
9.99783071e-01
9.99713929e-01
9.99644029e-01
9.99573371e-01
9.99501975e-01
9.99429879e-01
9.99357138e-01
9.99283825e-01
9.99210027e-01
9.99135845e-01
9.99061392e-01
9.98986791e-01
9.98912174e-01
9.98837677e-01
9.98763441e-01
9.98689607e-01
9.98616317e-01
9.98543708e-01
9.98471916e-01
9.98401069e-01
9.98331287e-01
9.98262684e-01
9.98195364e-01
9.98129420e-01
9.98064936e-01
9.98001986e-01
9.97940634e-01
9.97880936e-01
9.97822937e-01
9.97766675e-01
9.97712181e-01
9.97659479e-01
9.97608590e-01
9.97559529e-01
9.97512307e-01
9.97466939e-01
9.97423432e-01
9.97381792e-01
9.97342033e-01
9.97304173e-01
9.97268214e-01
9.97234163e-01
9.97202062e-01
9.97171926e-01
9.97143738e-01
9.97117543e-01
9.97093410e-01
9.97071298e-01
9.97051201e-01
9.97033263e-01
9.97017451e-01
9.97003677e-01
9.96992078e-01
9.96982566e-01
9.96974912e-01
9.96969359e-01
1.00423235e+00
1.00422704e+00
1.00421962e+00
1.00421003e+00
1.00419823e+00
1.00418419e+00
1.00416774e+00
1.00414879e+00
1.00412741e+00
1.00410352e+00
1.00407697e+00
1.00404777e+00
1.00401589e+00
1.00398122e+00
1.00394370e+00
1.00390333e+00
1.00386006e+00
1.00381385e+00
1.00376470e+00
1.00371260e+00
1.00365757e+00
1.00359963e+00
1.00353884e+00
1.00347524e+00
1.00340892e+00
1.00333998e+00
1.00326854e+00
1.00319472e+00
1.00311868e+00
1.00304058e+00
1.00296059e+00
1.00287891e+00
1.00279574e+00
1.00271130e+00
1.00262578e+00
1.00253942e+00
1.00245244e+00
1.00236505e+00
1.00227747e+00
1.00218991e+00
1.00210257e+00
1.00201564e+00
1.00192931e+00
1.00184372e+00
1.00175904e+00
1.00167539e+00
1.00159287e+00
1.00151159e+00
1.00143160e+00
1.00135297e+00
1.00127572e+00
1.00119985e+00
1.00112535e+00
1.00105220e+00
1.00098035e+00
1.00090972e+00
1.00084023e+00
1.00077180e+00
1.00070430e+00
1.00063762e+00
1.00057163e+00
1.00050619e+00
1.00044118e+00
1.00037644e+00
1.00031185e+00
1.00024726e+00
1.00018255e+00
1.00011759e+00
1.00005228e+00
9.99986506e-01
9.99920191e-01
9.99853260e-01
9.99785659e-01
9.99717349e-01
9.99648310e-01
9.99578542e-01
9.99508059e-01
9.99436897e-01
9.99365107e-01
9.99292757e-01
9.99219931e-01
9.99146724e-01
9.99073246e-01
9.98999614e-01
9.98925955e-01
9.98852401e-01
9.98779089e-01
9.98706156e-01
9.98633738e-01
9.98561972e-01
9.98490988e-01
9.98420912e-01
9.98351862e-01
9.98283948e-01
9.98217274e-01
9.98151931e-01
9.98088003e-01
9.98025562e-01
9.97964674e-01
9.97905394e-01
9.97847767e-01
9.97791833e-01
9.97737624e-01
9.97685167e-01
9.97634483e-01
9.97585590e-01
9.97538503e-01
9.97493234e-01
9.97449801e-01
9.97408212e-01
9.97368476e-01
9.97330613e-01
9.97294649e-01
9.97260584e-01
9.97228430e-01
9.97198240e-01
9.97170036e-01
9.97143790e-01
9.97119556e-01
9.97097425e-01
9.97077339e-01
9.97059288e-01
9.97043428e-01
9.97029745e-01
9.97018104e-01
9.97008528e-01
9.97001016e-01
9.96995570e-01
1.00420143e+00
1.00419616e+00
1.00418880e+00
1.00417929e+00
1.00416758e+00
1.00415357e+00
1.00413713e+00
1.00411829e+00
1.00409699e+00
1.00407312e+00
1.00404666e+00
1.00401758e+00
1.00398578e+00
1.00395120e+00
1.00391383e+00
1.00387362e+00
1.00383051e+00
1.00378449e+00
1.00373556e+00
1.00368371e+00
1.00362895e+00
1.00357132e+00
1.00351086e+00
1.00344763e+00
1.00338172e+00
1.00331323e+00
1.00324226e+00
1.00316895e+00
1.00309345e+00
1.00301592e+00
1.00293654e+00
1.00285549e+00
1.00277297e+00
1.00268920e+00
1.00260438e+00
1.00251873e+00
1.00243246e+00
1.00234580e+00
1.00225895e+00
1.00217212e+00
1.00208551e+00
1.00199931e+00
1.00191368e+00
1.00182880e+00
1.00174480e+00
1.00166182e+00
1.00157995e+00
1.00149930e+00
1.00141993e+00
1.00134189e+00
1.00126521e+00
1.00118990e+00
1.00111595e+00
1.00104332e+00
1.00097198e+00
1.00090186e+00
1.00083287e+00
1.00076493e+00
1.00069793e+00
1.00063175e+00
1.00056628e+00
1.00050137e+00
1.00043690e+00
1.00037273e+00
1.00030872e+00
1.00024475e+00
1.00018069e+00
1.00011641e+00
1.00005181e+00
9.99986792e-01
9.99921263e-01
9.99855155e-01
9.99788411e-01
9.99720993e-01
9.99652877e-01
9.99584060e-01
9.99514556e-01
9.99444394e-01
9.99373623e-01
9.99302306e-01
9.99230521e-01
9.99158361e-01
9.99085929e-01
9.99013339e-01
9.98940711e-01
9.98868173e-01
9.98795857e-01
9.98723895e-01
9.98652422e-01
9.98581567e-01
9.98511459e-01
9.98442219e-01
9.98373964e-01
9.98306802e-01
9.98240833e-01
9.98176148e-01
9.98112829e-01
9.98050950e-01
9.97990573e-01
9.97931755e-01
9.97874543e-01
9.97818976e-01
9.97765088e-01
9.97712908e-01
9.97662459e-01
9.97613761e-01
9.97566833e-01
9.97521689e-01
9.97478345e-01
9.97436820e-01
9.97397129e-01
9.97359283e-01
9.97323307e-01
9.97289232e-01
9.97257067e-01
9.97226825e-01
9.97198562e-01
9.97172305e-01
9.97148037e-01
9.97125816e-01
9.97105707e-01
9.97087679e-01
9.97071766e-01
9.97058047e-01
9.97046456e-01
9.97036939e-01
9.97029467e-01
9.97024058e-01
1.00416827e+00
1.00416306e+00
1.00415574e+00
1.00414634e+00
1.00413470e+00
1.00412071e+00
1.00410435e+00
1.00408561e+00
1.00406434e+00
1.00404054e+00
1.00401419e+00
1.00398519e+00
1.00395348e+00
1.00391904e+00
1.00388181e+00
1.00384174e+00
1.00379881e+00
1.00375300e+00
1.00370430e+00
1.00365270e+00
1.00359823e+00
1.00354093e+00
1.00348083e+00
1.00341800e+00
1.00335252e+00
1.00328449e+00
1.00321403e+00
1.00314127e+00
1.00306634e+00
1.00298943e+00
1.00291069e+00
1.00283031e+00
1.00274850e+00
1.00266545e+00
1.00258137e+00
1.00249648e+00
1.00241098e+00
1.00232509e+00
1.00223903e+00
1.00215298e+00
1.00206715e+00
1.00198172e+00
1.00189686e+00
1.00181273e+00
1.00172947e+00
1.00164720e+00
1.00156604e+00
1.00148607e+00
1.00140736e+00
1.00132996e+00
1.00125391e+00
1.00117920e+00
1.00110583e+00
1.00103377e+00
1.00096299e+00
1.00089341e+00
1.00082496e+00
1.00075756e+00
1.00069110e+00
1.00062546e+00
1.00056054e+00
1.00049620e+00
1.00043231e+00
1.00036874e+00
1.00030537e+00
1.00024206e+00
1.00017869e+00
1.00011513e+00
1.00005129e+00
9.99987071e-01
9.99922377e-01
9.99857142e-01
9.99791307e-01
9.99724834e-01
9.99657697e-01
9.99589890e-01
9.99521422e-01
9.99452322e-01
9.99382632e-01
9.99312411e-01
9.99241734e-01
9.99170687e-01
9.99099369e-01
9.99027888e-01
9.98956359e-01
9.98884907e-01
9.98813656e-01
9.98742735e-01
9.98672273e-01
9.98602397e-01
9.98533231e-01
9.98464893e-01
9.98397497e-01
9.98331148e-01
9.98265944e-01
9.98201974e-01
9.98139321e-01
9.98078055e-01
9.98018240e-01
9.97959932e-01
9.97903179e-01
9.97848021e-01
9.97794493e-01
9.97742627e-01
9.97692447e-01
9.97643974e-01
9.97597232e-01
9.97552239e-01
9.97509012e-01
9.97467568e-01
9.97427934e-01
9.97390129e-01
9.97354167e-01
9.97320079e-01
9.97287904e-01
9.97257651e-01
9.97229341e-01
9.97203038e-01
9.97178765e-01
9.97156508e-01
9.97136340e-01
9.97118324e-01
9.97102422e-01
9.97088666e-01
9.97077111e-01
9.97067684e-01
9.97060257e-01
9.97054909e-01
1.00413289e+00
1.00412779e+00
1.00412058e+00
1.00411123e+00
1.00409965e+00
1.00408574e+00
1.00406947e+00
1.00405076e+00
1.00402957e+00
1.00400587e+00
1.00397960e+00
1.00395068e+00
1.00391909e+00
1.00388478e+00
1.00384768e+00
1.00380777e+00
1.00376503e+00
1.00371944e+00
1.00367097e+00
1.00361965e+00
1.00356549e+00
1.00350853e+00
1.00344881e+00
1.00338640e+00
1.00332138e+00
1.00325385e+00
1.00318393e+00
1.00311174e+00
1.00303744e+00
1.00296117e+00
1.00288312e+00
1.00280346e+00
1.00272239e+00
1.00264011e+00
1.00255682e+00
1.00247273e+00
1.00238805e+00
1.00230299e+00
1.00221776e+00
1.00213255e+00
1.00204755e+00
1.00196295e+00
1.00187890e+00
1.00179558e+00
1.00171310e+00
1.00163161e+00
1.00155120e+00
1.00147196e+00
1.00139396e+00
1.00131725e+00
1.00124185e+00
1.00116779e+00
1.00109505e+00
1.00102360e+00
1.00095342e+00
1.00088442e+00
1.00081656e+00
1.00074973e+00
1.00068384e+00
1.00061878e+00
1.00055445e+00
1.00049071e+00
1.00042744e+00
1.00036452e+00
1.00030181e+00
1.00023920e+00
1.00017655e+00
1.00011376e+00
1.00005072e+00
9.99987339e-01
9.99923522e-01
9.99859203e-01
9.99794325e-01
9.99728844e-01
9.99662735e-01
9.99595988e-01
9.99528611e-01
9.99460626e-01
9.99392074e-01
9.99323009e-01
9.99253499e-01
9.99183626e-01
9.99113484e-01
9.99043175e-01
9.98972810e-01
9.98902507e-01
9.98832386e-01
9.98762571e-01
9.98693185e-01
9.98624353e-01
9.98556192e-01
9.98488819e-01
9.98422342e-01
9.98356866e-01
9.98292486e-01
9.98229289e-01
9.98167355e-01
9.98106755e-01
9.98047553e-01
9.97989803e-01
9.97933554e-01
9.97878849e-01
9.97825723e-01
9.97774208e-01
9.97724332e-01
9.97676120e-01
9.97629595e-01
9.97584778e-01
9.97541695e-01
9.97500363e-01
9.97460805e-01
9.97423053e-01
9.97387132e-01
9.97353059e-01
9.97320872e-01
9.97290616e-01
9.97262304e-01
9.97235964e-01
9.97211656e-01
9.97189410e-01
9.97169229e-01
9.97151177e-01
9.97135296e-01
9.97121584e-01
9.97110050e-01
9.97100668e-01
9.97093352e-01
9.97088123e-01
1.00409544e+00
1.00409044e+00
1.00408333e+00
1.00407406e+00
1.00406254e+00
1.00404872e+00
1.00403251e+00
1.00401386e+00
1.00399276e+00
1.00396915e+00
1.00394295e+00
1.00391414e+00
1.00388267e+00
1.00384847e+00
1.00381152e+00
1.00377180e+00
1.00372925e+00
1.00368387e+00
1.00363567e+00
1.00358464e+00
1.00353080e+00
1.00347420e+00
1.00341489e+00
1.00335292e+00
1.00328839e+00
1.00322139e+00
1.00315204e+00
1.00308046e+00
1.00300681e+00
1.00293123e+00
1.00285390e+00
1.00277500e+00
1.00269472e+00
1.00261325e+00
1.00253080e+00
1.00244757e+00
1.00236376e+00
1.00227958e+00
1.00219523e+00
1.00211091e+00
1.00202679e+00
1.00194306e+00
1.00185989e+00
1.00177741e+00
1.00169578e+00
1.00161510e+00
1.00153549e+00
1.00145703e+00
1.00137978e+00
1.00130380e+00
1.00122912e+00
1.00115574e+00
1.00108367e+00
1.00101288e+00
1.00094332e+00
1.00087495e+00
1.00080770e+00
1.00074148e+00
1.00067620e+00
1.00061176e+00
1.00054804e+00
1.00048494e+00
1.00042232e+00
1.00036007e+00
1.00029806e+00