# vtk DataFile Version 2.0
LBM Flow Field - Timestep 1000
ASCII
DATASET STRUCTURED_POINTS
DIMENSIONS 128 128 1
ORIGIN 0.0 0.0 0.0
SPACING 1.0 1.0 1.0
POINT_DATA 16384
SCALARS density double 1
LOOKUP_TABLE default
9.99392246e-01
9.99392026e-01
9.99391038e-01
9.99386278e-01
9.99380335e-01
9.99374094e-01
9.99366436e-01
9.99357411e-01
9.99347566e-01
9.99336827e-01
9.99324955e-01
9.99312102e-01
9.99298409e-01
9.99283889e-01
9.99268614e-01
9.99252747e-01
9.99236430e-01
9.99219793e-01
9.99202996e-01
9.99186205e-01
9.99169572e-01
9.99153240e-01
9.99137343e-01
9.99122001e-01
9.99107317e-01
9.99093382e-01
9.99080281e-01
9.99068098e-01
9.99056927e-01
9.99046879e-01
9.99038096e-01
9.99030756e-01
9.99025084e-01
9.99021352e-01
9.99019880e-01
9.99021032e-01
9.99025201e-01
9.99032795e-01
9.99044215e-01
9.99059836e-01
9.99079975e-01
9.99104872e-01
9.99134663e-01
9.99169362e-01
9.99208851e-01
9.99252867e-01
9.99301012e-01
9.99352751e-01
9.99407437e-01
9.99464330e-01
9.99522622e-01
9.99581474e-01
9.99640041e-01
9.99697512e-01
9.99753134e-01
9.99806245e-01
9.99856292e-01
9.99902853e-01
9.99945647e-01
9.99984542e-01
1.00001956e+00
1.00005086e+00
1.00007874e+00
1.00010366e+00
1.00012615e+00
1.00014686e+00
1.00016653e+00
1.00018594e+00
1.00020591e+00
1.00022728e+00
1.00025086e+00
1.00027742e+00
1.00030763e+00
1.00034206e+00
1.00038114e+00
1.00042510e+00
1.00047400e+00
1.00052766e+00
1.00058567e+00
1.00064740e+00
1.00071200e+00
1.00077843e+00
1.00084551e+00
1.00091194e+00
1.00097640e+00
1.00103757e+00
1.00109422e+00
1.00114526e+00
1.00118979e+00
1.00122715e+00
1.00125693e+00
1.00127900e+00
1.00129351e+00
1.00130084e+00
1.00130158e+00
1.00129654e+00
1.00128661e+00
1.00127281e+00
1.00125616e+00
1.00123768e+00
1.00121833e+00
1.00119899e+00
1.00118041e+00
1.00116322e+00
1.00114790e+00
1.00113480e+00
1.00112410e+00
1.00111588e+00
1.00111011e+00
1.00110663e+00
1.00110524e+00
1.00110567e+00
1.00110764e+00
1.00111081e+00
1.00111488e+00
1.00111956e+00
1.00112455e+00
1.00112959e+00
1.00113449e+00
1.00113908e+00
1.00114316e+00
1.00114660e+00
1.00114943e+00
1.00115177e+00
1.00115325e+00
1.00115394e+00
1.00115480e+00
1.00115533e+00
9.99392811e-01
9.99390826e-01
9.99388459e-01
9.99384285e-01
9.99378670e-01
9.99372299e-01
9.99364741e-01
9.99356049e-01
9.99346305e-01
9.99335613e-01
9.99323894e-01
9.99311207e-01
9.99297623e-01
9.99283227e-01
9.99268101e-01
9.99252371e-01
9.99236173e-01
9.99219653e-01
9.99202965e-01
9.99186264e-01
9.99169706e-01
9.99153438e-01
9.99137596e-01
9.99122301e-01
9.99107667e-01
9.99093792e-01
9.99080770e-01
9.99068695e-01
9.99057670e-01
9.99047813e-01
9.99039272e-01
9.99032227e-01
9.99026899e-01
9.99023554e-01
9.99022501e-01
9.99024086e-01
9.99028684e-01
9.99036681e-01
9.99048455e-01
9.99064358e-01
9.99084686e-01
9.99109663e-01
9.99139411e-01
9.99173941e-01
9.99213132e-01
9.99256730e-01
9.99304346e-01
9.99355466e-01
9.99409463e-01
9.99465620e-01
9.99523158e-01
9.99581259e-01
9.99639104e-01
9.99695903e-01
9.99750920e-01
9.99803506e-01
9.99853119e-01
9.99899342e-01
9.99941898e-01
9.99980654e-01
1.00001563e+00
1.00004697e+00
1.00007500e+00
1.00010013e+00
1.00012292e+00
1.00014400e+00
1.00016409e+00
1.00018398e+00
1.00020448e+00
1.00022641e+00
1.00025057e+00
1.00027770e+00
1.00030846e+00
1.00034340e+00
1.00038292e+00
1.00042724e+00
1.00047638e+00
1.00053015e+00
1.00058811e+00
1.00064965e+00
1.00071389e+00
1.00077983e+00
1.00084630e+00
1.00091202e+00
1.00097571e+00
1.00103610e+00
1.00109198e+00
1.00114233e+00
1.00118627e+00
1.00122319e+00
1.00125268e+00
1.00127465e+00
1.00128922e+00
1.00129679e+00
1.00129793e+00
1.00129340e+00
1.00128411e+00
1.00127100e+00
1.00125507e+00
1.00123732e+00
1.00121867e+00
1.00119997e+00
1.00118196e+00
1.00116525e+00
1.00115030e+00
1.00113746e+00
1.00112692e+00
1.00111875e+00
1.00111293e+00
1.00110933e+00
1.00110775e+00
1.00110794e+00
1.00110962e+00
1.00111249e+00
1.00111624e+00
1.00112059e+00
1.00112527e+00
1.00113004e+00
1.00113468e+00
1.00113904e+00
1.00114292e+00
1.00114632e+00
1.00114906e+00
1.00115127e+00
1.00115266e+00
1.00115359e+00
1.00115384e+00
1.00115355e+00
9.99392465e-01
9.99389054e-01
9.99384258e-01
9.99380640e-01
9.99375851e-01
9.99369120e-01
9.99361484e-01
9.99353151e-01
9.99343577e-01
9.99332862e-01
9.99321268e-01
9.99308754e-01
9.99295273e-01
9.99280970e-01
9.99265971e-01
9.99250352e-01
9.99234241e-01
9.99217801e-01
9.99201183e-01
9.99184535e-01
9.99168016e-01
9.99151780e-01
9.99135967e-01
9.99120707e-01
9.99106123e-01
9.99092326e-01
9.99079421e-01
9.99067513e-01
9.99056717e-01
9.99047159e-01
9.99038991e-01
9.99032395e-01
9.99027588e-01
9.99024826e-01
9.99024404e-01
9.99026650e-01
9.99031914e-01
9.99040556e-01
9.99052930e-01
9.99069358e-01
9.99090115e-01
9.99115401e-01
9.99145326e-01
9.99179888e-01
9.99218964e-01
9.99262303e-01
9.99309525e-01
9.99360131e-01
9.99413512e-01
9.99468974e-01
9.99525759e-01
9.99583075e-01
9.99640127e-01
9.99696142e-01
9.99750406e-01
9.99802283e-01
9.99851244e-01
9.99896880e-01
9.99938921e-01
9.99977235e-01
1.00001184e+00
1.00004291e+00
1.00007072e+00
1.00009573e+00
1.00011846e+00
1.00013957e+00
1.00015976e+00
1.00017983e+00
1.00020057e+00
1.00022281e+00
1.00024733e+00
1.00027486e+00
1.00030606e+00
1.00034145e+00
1.00038141e+00
1.00042613e+00
1.00047562e+00
1.00052966e+00
1.00058782e+00
1.00064945e+00
1.00071368e+00
1.00077951e+00
1.00084577e+00
1.00091121e+00
1.00097458e+00
1.00103461e+00
1.00109016e+00
1.00114021e+00
1.00118393e+00
1.00122072e+00
1.00125022e+00
1.00127232e+00
1.00128716e+00
1.00129512e+00
1.00129678e+00
1.00129287e+00
1.00128426e+00
1.00127189e+00
1.00125672e+00
1.00123970e+00
1.00122175e+00
1.00120368e+00
1.00118622e+00
1.00116995e+00
1.00115534e+00
1.00114271e+00
1.00113228e+00
1.00112411e+00
1.00111818e+00
1.00111438e+00
1.00111254e+00
1.00111239e+00
1.00111369e+00
1.00111615e+00
1.00111949e+00
1.00112340e+00
1.00112766e+00
1.00113204e+00
1.00113631e+00
1.00114030e+00
1.00114391e+00
1.00114708e+00
1.00114962e+00
1.00115159e+00
1.00115306e+00
1.00115383e+00
1.00115299e+00
1.00115191e+00
9.99387762e-01
9.99384656e-01
9.99380520e-01
9.99376162e-01
9.99370847e-01
9.99364517e-01
9.99357134e-01
9.99348627e-01
9.99339082e-01
9.99328556e-01
9.99317032e-01
9.99304536e-01
9.99291151e-01
9.99276949e-01
9.99262009e-01
9.99246448e-01
9.99230400e-01
9.99214004e-01
9.99197410e-01
9.99180777e-01
9.99164266e-01
9.99148029e-01
9.99132219e-01
9.99116976e-01
9.99102435e-01
9.99088720e-01
9.99075953e-01
9.99064255e-01
9.99053754e-01
9.99044587e-01
9.99036915e-01
9.99030923e-01
9.99026825e-01
9.99024868e-01
9.99025333e-01
9.99028525e-01
9.99034767e-01
9.99044390e-01
9.99057713e-01
9.99075024e-01
9.99096565e-01
9.99122506e-01
9.99152931e-01
9.99187820e-01
9.99227039e-01
9.99270330e-01
9.99317319e-01
9.99367516e-01
9.99420328e-01
9.99475084e-01
9.99531049e-01
9.99587458e-01
9.99643542e-01
9.99698557e-01
9.99751810e-01
9.99802691e-01
9.99850688e-01
9.99895409e-01
9.99936594e-01
9.99974126e-01
1.00000803e+00
1.00003848e+00
1.00006577e+00
1.00009034e+00
1.00011273e+00
1.00013360e+00
1.00015365e+00
1.00017367e+00
1.00019446e+00
1.00021683e+00
1.00024156e+00
1.00026937e+00
1.00030090e+00
1.00033665e+00
1.00037699e+00
1.00042209e+00
1.00047193e+00
1.00052628e+00
1.00058470e+00
1.00064652e+00
1.00071089e+00
1.00077679e+00
1.00084307e+00
1.00090851e+00
1.00097185e+00
1.00103189e+00
1.00108748e+00
1.00113765e+00
1.00118158e+00
1.00121869e+00
1.00124863e+00
1.00127130e+00
1.00128682e+00
1.00129557e+00
1.00129810e+00
1.00129512e+00
1.00128747e+00
1.00127604e+00
1.00126179e+00
1.00124563e+00
1.00122843e+00
1.00121102e+00
1.00119407e+00
1.00117818e+00
1.00116381e+00
1.00115128e+00
1.00114080e+00
1.00113247e+00
1.00112626e+00
1.00112209e+00
1.00111978e+00
1.00111912e+00
1.00111987e+00
1.00112175e+00
1.00112450e+00
1.00112784e+00
1.00113155e+00
1.00113538e+00
1.00113916e+00
1.00114272e+00
1.00114595e+00
1.00114871e+00
1.00115102e+00
1.00115277e+00
1.00115388e+00
1.00115425e+00
1.00115360e+00
1.00115224e+00
9.99381061e-01
9.99378361e-01
9.99375031e-01
9.99370056e-01
9.99364428e-01
9.99358389e-01
9.99351037e-01
9.99342386e-01
9.99332895e-01
9.99322474e-01
9.99310956e-01
9.99298474e-01
9.99285158e-01
9.99271010e-01
9.99256102e-01
9.99240578e-01
9.99224565e-01
9.99208184e-01
9.99191592e-01
9.99174954e-01
9.99158429e-01
9.99142178e-01
9.99126362e-01
9.99111138e-01
9.99096651e-01
9.99083048e-01
9.99070466e-01
9.99059048e-01
9.99048936e-01
9.99040285e-01
9.99033265e-01
9.99028065e-01
9.99024897e-01
9.99023999e-01
9.99025632e-01
9.99030076e-01
9.99037624e-01
9.99048566e-01
9.99063180e-01
9.99081713e-01
9.99104364e-01
9.99131265e-01
9.99162466e-01
9.99197922e-01
9.99237478e-01
9.99280870e-01
9.99327722e-01
9.99377552e-01
9.99429787e-01
9.99483774e-01
9.99538808e-01
9.99594155e-01
9.99649076e-01
9.99702861e-01
9.99754846e-01
9.99804450e-01
9.99851185e-01
9.99894681e-01
9.99934699e-01
9.99971135e-01
1.00000403e+00
1.00003355e+00
1.00006003e+00
1.00008389e+00
1.00010570e+00
1.00012609e+00
1.00014579e+00
1.00016558e+00
1.00018625e+00
1.00020862e+00
1.00023345e+00
1.00026146e+00
1.00029326e+00
1.00032934e+00
1.00037004e+00
1.00041553e+00
1.00046576e+00
1.00052048e+00
1.00057923e+00
1.00064134e+00
1.00070596e+00
1.00077207e+00
1.00083853e+00
1.00090414e+00
1.00096768e+00
1.00102794e+00
1.00108384e+00
1.00113441e+00
1.00117886e+00
1.00121662e+00
1.00124735e+00
1.00127094e+00
1.00128751e+00
1.00129741e+00
1.00130116e+00
1.00129944e+00
1.00129305e+00
1.00128286e+00
1.00126977e+00
1.00125467e+00
1.00123840e+00
1.00122175e+00
1.00120540e+00
1.00118992e+00
1.00117577e+00
1.00116328e+00
1.00115268e+00
1.00114405e+00
1.00113743e+00
1.00113272e+00
1.00112978e+00
1.00112843e+00
1.00112844e+00
1.00112955e+00
1.00113152e+00
1.00113412e+00
1.00113710e+00
1.00114023e+00
1.00114337e+00
1.00114637e+00
1.00114906e+00
1.00115133e+00
1.00115324e+00
1.00115473e+00
1.00115547e+00
1.00115536e+00
1.00115475e+00
1.00115358e+00
9.99373451e-01
9.99370610e-01
9.99366888e-01
9.99362272e-01
9.99356898e-01
9.99350417e-01
9.99342907e-01
9.99334493e-01
9.99325014e-01
9.99314458e-01
9.99302968e-01
9.99290572e-01
9.99277256e-01
9.99263107e-01
9.99248241e-01
9.99232749e-01
9.99216740e-01
9.99200363e-01
9.99183774e-01
9.99167127e-01
9.99150588e-01
9.99134332e-01
9.99118529e-01
9.99103348e-01
9.99088956e-01
9.99075516e-01
9.99063190e-01
9.99052137e-01
9.99042523e-01
9.99034519e-01
9.99028304e-01
9.99024073e-01
9.99022036e-01
9.99022420e-01
9.99025466e-01
9.99031426e-01
9.99040555e-01
9.99053102e-01
9.99069297e-01
9.99089340e-01
9.99113379e-01
9.99141502e-01
9.99173720e-01
9.99209952e-01
9.99250023e-01
9.99293654e-01
9.99340465e-01
9.99389981e-01
9.99441642e-01
9.99494819e-01
9.99548837e-01
9.99602994e-01
9.99656586e-01
9.99708939e-01
9.99759426e-01
9.99807497e-01
9.99852697e-01
9.99894683e-01
9.99933239e-01
9.99968282e-01
9.99999868e-01
1.00002819e+00
1.00005358e+00
1.00007648e+00
1.00009745e+00
1.00011715e+00
1.00013629e+00
1.00015567e+00
1.00017608e+00
1.00019832e+00
1.00022315e+00
1.00025127e+00
1.00028329e+00
1.00031967e+00
1.00036073e+00
1.00040661e+00
1.00045726e+00
1.00051240e+00
1.00057156e+00
1.00063406e+00
1.00069904e+00
1.00076550e+00
1.00083231e+00
1.00089828e+00
1.00096221e+00
1.00102294e+00
1.00107940e+00
1.00113064e+00
1.00117589e+00
1.00121460e+00
1.00124642e+00
1.00127124e+00
1.00128917e+00
1.00130053e+00
1.00130580e+00
1.00130563e+00
1.00130077e+00
1.00129205e+00
1.00128034e+00
1.00126647e+00
1.00125128e+00
1.00123551e+00
1.00121983e+00
1.00120481e+00
1.00119089e+00
1.00117843e+00
1.00116765e+00
1.00115866e+00
1.00115151e+00
1.00114615e+00
1.00114246e+00
1.00114026e+00
1.00113937e+00
1.00113957e+00
1.00114062e+00
1.00114229e+00
1.00114438e+00
1.00114669e+00
1.00114906e+00
1.00115130e+00
1.00115334e+00
1.00115510e+00
1.00115647e+00
1.00115741e+00
1.00115787e+00
1.00115760e+00
1.00115677e+00
1.00115559e+00
9.99364103e-01
9.99361217e-01
9.99357213e-01
9.99352775e-01
9.99347382e-01
9.99340711e-01
9.99333209e-01
9.99324787e-01
9.99315212e-01
9.99304633e-01
9.99293169e-01
9.99280758e-01
9.99267426e-01
9.99253297e-01
9.99238452e-01
9.99222965e-01
9.99206964e-01
9.99190598e-01
9.99174012e-01
9.99157363e-01
9.99140830e-01
9.99124593e-01
9.99108833e-01
9.99093736e-01
9.99079488e-01
9.99066273e-01
9.99054276e-01
9.99043680e-01
9.99034670e-01
9.99027434e-01
9.99022166e-01
9.99019066e-01
9.99018341e-01
9.99020207e-01
9.99024883e-01
9.99032590e-01
9.99043544e-01
9.99057949e-01
9.99075982e-01
9.99097789e-01
9.99123466e-01
9.99153047e-01
9.99186498e-01
9.99223701e-01
9.99264451e-01
9.99308451e-01
9.99355314e-01
9.99404569e-01
9.99455668e-01
9.99508006e-01
9.99560937e-01
9.99613793e-01
9.99665910e-01
9.99716652e-01
9.99765433e-01
9.99811741e-01
9.99855156e-01
9.99895369e-01
9.99932192e-01
9.99965568e-01
9.99995577e-01
1.00002243e+00
1.00004647e+00
1.00006817e+00
1.00008808e+00
1.00010688e+00
1.00012529e+00
1.00014410e+00
1.00016411e+00
1.00018610e+00
1.00021084e+00
1.00023901e+00
1.00027120e+00
1.00030786e+00
1.00034928e+00
1.00039558e+00
1.00044668e+00
1.00050230e+00
1.00056194e+00
1.00062492e+00
1.00069037e+00
1.00075730e+00
1.00082459e+00
1.00089108e+00
1.00095560e+00
1.00101699e+00
1.00107422e+00
1.00112636e+00
1.00117268e+00
1.00121260e+00
1.00124579e+00
1.00127213e+00
1.00129171e+00
1.00130480e+00
1.00131187e+00
1.00131352e+00
1.00131044e+00
1.00130343e+00
1.00129330e+00
1.00128085e+00
1.00126688e+00
1.00125211e+00
1.00123718e+00
1.00122267e+00
1.00120901e+00
1.00119656e+00
1.00118555e+00
1.00117615e+00
1.00116839e+00
1.00116227e+00
1.00115769e+00
1.00115453e+00
1.00115260e+00
1.00115173e+00
1.00115171e+00
1.00115232e+00
1.00115338e+00
1.00115472e+00
1.00115617e+00
1.00115757e+00
1.00115885e+00
1.00115994e+00
1.00116071e+00
1.00116111e+00
1.00116115e+00
1.00116066e+00
1.00115954e+00
1.00115821e+00
9.99352901e-01
9.99350075e-01
9.99346249e-01
9.99341541e-01
9.99335907e-01
9.99329406e-01
9.99321864e-01
9.99313190e-01
9.99303580e-01
9.99293050e-01
9.99281508e-01
9.99269022e-01
9.99255707e-01
9.99241591e-01
9.99226727e-01
9.99211242e-01
9.99195264e-01
9.99178911e-01
9.99162335e-01
9.99145709e-01
9.99129212e-01
9.99113029e-01
9.99097356e-01
9.99082397e-01
9.99068357e-01
9.99055441e-01
9.99043857e-01
9.99033812e-01
9.99025513e-01
9.99019167e-01
9.99014980e-01
9.99013159e-01
9.99013908e-01
9.99017431e-01
9.99023925e-01
9.99033580e-01
9.99046570e-01
9.99063050e-01
9.99083143e-01
9.99106936e-01
9.99134467e-01
9.99165716e-01
9.99200595e-01
9.99238946e-01
9.99280529e-01
9.99325024e-01
9.99372033e-01
9.99421086e-01
9.99471648e-01
9.99523133e-01
9.99574926e-01
9.99626393e-01
9.99676913e-01
9.99725890e-01
9.99772782e-01
9.99817120e-01
9.99858525e-01
9.99896724e-01
9.99931566e-01
9.99963023e-01
9.99991203e-01
1.00001634e+00
1.00003880e+00
1.00005907e+00
1.00007772e+00
1.00009543e+00
1.00011294e+00
1.00013104e+00
1.00015052e+00
1.00017217e+00
1.00019674e+00
1.00022491e+00
1.00025723e+00
1.00029414e+00
1.00033592e+00
1.00038265e+00
1.00043424e+00
1.00049038e+00
1.00055056e+00
1.00061408e+00
1.00068010e+00
1.00074760e+00
1.00081551e+00
1.00088266e+00
1.00094791e+00
1.00101015e+00
1.00106835e+00
1.00112161e+00
1.00116920e+00
1.00121058e+00
1.00124540e+00
1.00127353e+00
1.00129502e+00
1.00131012e+00
1.00131925e+00
1.00132296e+00
1.00132191e+00
1.00131682e+00
1.00130847e+00
1.00129761e+00
1.00128501e+00
1.00127136e+00
1.00125728e+00
1.00124333e+00
1.00122996e+00
1.00121752e+00
1.00120627e+00
1.00119639e+00
1.00118796e+00
1.00118098e+00
1.00117541e+00
1.00117115e+00
1.00116807e+00
1.00116599e+00
1.00116475e+00
1.00116417e+00
1.00116408e+00
1.00116430e+00
1.00116470e+00
1.00116517e+00
1.00116557e+00
1.00116583e+00
1.00116594e+00
1.00116582e+00
1.00116536e+00
1.00116445e+00
1.00116310e+00
1.00116157e+00
9.99340267e-01
9.99337319e-01
9.99333449e-01
9.99328597e-01
9.99322893e-01
9.99316320e-01
9.99308614e-01
9.99299867e-01
9.99290212e-01
9.99279568e-01
9.99267941e-01
9.99255438e-01
9.99242096e-01
9.99227940e-01
9.99213073e-01
9.99197607e-01
9.99181645e-01
9.99165316e-01
9.99148782e-01
9.99132215e-01
9.99115792e-01
9.99099713e-01
9.99084190e-01
9.99069439e-01
9.99055684e-01
9.99043153e-01
9.99032078e-01
9.99022689e-01
9.99015214e-01
9.99009878e-01
9.99006902e-01
9.99006497e-01
9.99008867e-01
9.99014201e-01
9.99022677e-01
9.99034450e-01
9.99049652e-01
9.99068388e-01
9.99090725e-01
9.99116688e-01
9.99146255e-01
9.99179346e-01
9.99215820e-01
9.99255470e-01
9.99298020e-01
9.99343122e-01
9.99390366e-01
9.99439277e-01
9.99489330e-01
9.99539960e-01
9.99590579e-01
9.99640590e-01
9.99689413e-01
9.99736496e-01
9.99781346e-01
9.99823536e-01
9.99862735e-01
9.99898710e-01
9.99931350e-01
9.99960664e-01
9.99986790e-01
1.00000999e+00
1.00003066e+00
1.00004930e+00
1.00006650e+00
1.00008296e+00
1.00009942e+00
1.00011668e+00
1.00013553e+00
1.00015675e+00
1.00018109e+00
1.00020920e+00
1.00024163e+00
1.00027879e+00
1.00032092e+00
1.00036810e+00
1.00042020e+00
1.00047690e+00
1.00053767e+00
1.00060181e+00
1.00066845e+00
1.00073662e+00
1.00080523e+00
1.00087315e+00
1.00093927e+00
1.00100248e+00
1.00106181e+00
1.00111636e+00
1.00116543e+00
1.00120847e+00
1.00124514e+00
1.00127527e+00
1.00129891e+00
1.00131626e+00
1.00132769e+00
1.00133370e+00
1.00133490e+00
1.00133196e+00
1.00132559e+00
1.00131651e+00
1.00130543e+00
1.00129303e+00
1.00127991e+00
1.00126660e+00
1.00125356e+00
1.00124115e+00
1.00122966e+00
1.00121927e+00
1.00121011e+00
1.00120221e+00
1.00119556e+00
1.00119010e+00
1.00118574e+00
1.00118234e+00
1.00117975e+00
1.00117784e+00
1.00117645e+00
1.00117544e+00
1.00117468e+00
1.00117406e+00
1.00117349e+00
1.00117288e+00
1.00117221e+00
1.00117145e+00
1.00117045e+00
1.00116910e+00
1.00116742e+00
1.00116566e+00
9.99326027e-01
9.99322901e-01
9.99318800e-01
9.99313964e-01
9.99308222e-01
9.99301388e-01
9.99293554e-01
9.99284788e-01
9.99274982e-01
9.99264184e-01
9.99252512e-01
9.99239961e-01
9.99226541e-01
9.99212357e-01
9.99197504e-01
9.99182051e-01
9.99166115e-01
9.99149847e-01
9.99133396e-01
9.99116930e-01
9.99100640e-01
9.99084739e-01
9.99069443e-01
9.99054986e-01
9.99041611e-01
9.99029568e-01
9.99019109e-01
9.99010486e-01
9.99003951e-01
9.98999746e-01
9.98998102e-01
9.98999239e-01
9.99003356e-01
9.99010633e-01
9.99021223e-01
9.99035250e-01
9.99052803e-01
9.99073937e-01
9.99098660e-01
9.99126939e-01
9.99158685e-01
9.99193759e-01
9.99231963e-01
9.99273039e-01
9.99316670e-01
9.99362481e-01
9.99410041e-01
9.99458871e-01
9.99508452e-01
9.99558237e-01
9.99607664e-01
9.99656174e-01
9.99703226e-01
9.99748317e-01
9.99790998e-01
9.99830895e-01
9.99867722e-01
9.99901295e-01
9.99931544e-01
9.99958519e-01
9.99982395e-01
1.00000347e+00
1.00002216e+00
1.00003899e+00
1.00005459e+00
1.00006965e+00
1.00008494e+00
1.00010125e+00
1.00011938e+00
1.00014010e+00
1.00016416e+00
1.00019217e+00
1.00022469e+00
1.00026208e+00
1.00030457e+00
1.00035221e+00
1.00040485e+00
1.00046213e+00
1.00052352e+00
1.00058831e+00
1.00065563e+00
1.00072452e+00
1.00079390e+00
1.00086268e+00
1.00092975e+00
1.00099405e+00
1.00105462e+00
1.00111061e+00
1.00116131e+00
1.00120619e+00
1.00124488e+00
1.00127722e+00
1.00130322e+00
1.00132303e+00
1.00133698e+00
1.00134552e+00
1.00134918e+00
1.00134858e+00
1.00134439e+00
1.00133726e+00
1.00132788e+00
1.00131687e+00
1.00130481e+00
1.00129224e+00
1.00127960e+00
1.00126727e+00
1.00125555e+00
1.00124465e+00
1.00123472e+00
1.00122584e+00
1.00121805e+00
1.00121131e+00
1.00120557e+00
1.00120073e+00
1.00119669e+00
1.00119333e+00
1.00119052e+00
1.00118816e+00
1.00118613e+00
1.00118431e+00
1.00118265e+00
1.00118109e+00
1.00117957e+00
1.00117804e+00
1.00117647e+00
1.00117468e+00
1.00117261e+00
1.00117060e+00
9.99309875e-01
9.99306687e-01
9.99302495e-01
9.99297550e-01
9.99291646e-01
9.99284685e-01
9.99276747e-01
9.99267801e-01
9.99257837e-01
9.99246957e-01
9.99235184e-01
9.99222523e-01
9.99209055e-01
9.99194863e-01
9.99180005e-01
9.99164578e-01
9.99148714e-01
9.99132546e-01
9.99116222e-01
9.99099922e-01
9.99083846e-01
9.99068205e-01
9.99053230e-01
9.99039171e-01
9.99026287e-01
9.99014846e-01
9.99005120e-01
9.98997385e-01
9.98991909e-01
9.98988951e-01
9.98988756e-01
9.98991547e-01
9.98997521e-01
9.99006847e-01
9.99019656e-01
9.99036039e-01
9.99056046e-01
9.99079678e-01
9.99106891e-01
9.99137586e-01
9.99171615e-01
9.99208775e-01
9.99248809e-01
9.99291409e-01
9.99336214e-01
9.99382817e-01
9.99430765e-01
9.99479572e-01
9.99528722e-01
9.99577683e-01
9.99625919e-01
9.99672904e-01
9.99718139e-01
9.99761167e-01
9.99801589e-01
9.99839080e-01
9.99873406e-01
9.99904432e-01
9.99932136e-01
9.99956613e-01
9.99978077e-01
9.99996863e-01
1.00001342e+00
1.00002830e+00
1.00004216e+00
1.00005570e+00
1.00006971e+00
1.00008499e+00
1.00010232e+00
1.00012250e+00
1.00014622e+00
1.00017412e+00
1.00020670e+00
1.00024432e+00
1.00028718e+00
1.00033528e+00
1.00038846e+00
1.00044634e+00
1.00050837e+00
1.00057383e+00
1.00064187e+00
1.00071151e+00
1.00078170e+00
1.00085138e+00
1.00091946e+00
1.00098492e+00
1.00104683e+00
1.00110435e+00
1.00115680e+00
1.00120364e+00
1.00124451e+00
1.00127922e+00
1.00130774e+00
1.00133020e+00
1.00134687e+00
1.00135812e+00
1.00136445e+00
1.00136639e+00
1.00136457e+00
1.00135958e+00
1.00135205e+00
1.00134258e+00
1.00133172e+00
1.00132000e+00
1.00130785e+00
1.00129566e+00
1.00128374e+00
1.00127235e+00
1.00126165e+00
1.00125178e+00
1.00124279e+00
1.00123471e+00
1.00122751e+00
1.00122115e+00
1.00121555e+00
1.00121064e+00
1.00120631e+00
1.00120248e+00
1.00119905e+00
1.00119595e+00
1.00119311e+00
1.00119049e+00
1.00118804e+00
1.00118572e+00
1.00118349e+00
1.00118121e+00
1.00117877e+00
1.00117652e+00
9.99291846e-01
9.99288617e-01
9.99284402e-01
9.99279290e-01
9.99273217e-01
9.99266169e-01
9.99258060e-01
9.99248904e-01
9.99238818e-01
9.99227821e-01
9.99215902e-01
9.99203152e-01
9.99189649e-01
9.99175433e-01
9.99160586e-01
9.99145229e-01
9.99129475e-01
9.99113453e-01
9.99097324e-01
9.99081274e-01
9.99065499e-01
9.99050219e-01
9.99035679e-01
9.99022137e-01
9.99009867e-01
9.98999154e-01
9.98990290e-01
9.98983566e-01
9.98979270e-01
9.98977674e-01
9.98979034e-01
9.98983578e-01
9.98991501e-01
9.99002958e-01
9.99018061e-01
9.99036870e-01
9.99059394e-01
9.99085587e-01
9.99115350e-01
9.99148524e-01
9.99184898e-01
9.99224208e-01
9.99266140e-01
9.99310332e-01
9.99356380e-01
9.99403840e-01
9.99452238e-01
9.99501076e-01
9.99549839e-01
9.99598008e-01
9.99645069e-01
9.99690529e-01
9.99733928e-01
9.99774853e-01
9.99812957e-01
9.99847967e-01
9.99879700e-01
9.99908074e-01
9.99933118e-01
9.99954973e-01
9.99973899e-01
9.99990271e-01
1.00000457e+00
1.00001739e+00
1.00002940e+00
1.00004134e+00
1.00005399e+00
1.00006816e+00
1.00008465e+00
1.00010423e+00
1.00012760e+00
1.00015536e+00
1.00018799e+00
1.00022583e+00
1.00026905e+00
1.00031762e+00
1.00037134e+00
1.00042981e+00
1.00049249e+00
1.00055862e+00
1.00062737e+00
1.00069776e+00
1.00076878e+00
1.00083937e+00
1.00090849e+00
1.00097515e+00
1.00103844e+00
1.00109756e+00
1.00115183e+00
1.00120073e+00
1.00124389e+00
1.00128110e+00
1.00131229e+00
1.00133756e+00
1.00135710e+00
1.00137125e+00
1.00138042e+00
1.00138510e+00
1.00138582e+00
1.00138315e+00
1.00137764e+00
1.00136987e+00
1.00136036e+00
1.00134960e+00
1.00133805e+00
1.00132609e+00
1.00131405e+00
1.00130220e+00
1.00129075e+00
1.00127988e+00
1.00126967e+00
1.00126021e+00
1.00125150e+00
1.00124355e+00
1.00123631e+00
1.00122976e+00
1.00122382e+00
1.00121842e+00
1.00121351e+00
1.00120903e+00
1.00120493e+00
1.00120115e+00
1.00119770e+00
1.00119454e+00
1.00119160e+00
1.00118877e+00
1.00118597e+00
1.00118350e+00
9.99271985e-01
9.99268677e-01
9.99264368e-01
9.99259157e-01
9.99252965e-01
9.99245732e-01
9.99237428e-01
9.99228130e-01
9.99217887e-01
9.99206713e-01
9.99194680e-01
9.99181863e-01
9.99168303e-01
9.99154076e-01
9.99139289e-01
9.99124039e-01
9.99108438e-01
9.99092632e-01
9.99076785e-01
9.99061074e-01
9.99045704e-01
9.99030904e-01
9.99016923e-01
9.99004029e-01
9.98992508e-01
9.98982661e-01
9.98974791e-01
9.98969208e-01
9.98966212e-01
9.98966090e-01
9.98969104e-01
9.98975487e-01
9.98985431e-01
9.98999079e-01
9.99016522e-01
9.99037793e-01
9.99062864e-01
9.99091642e-01
9.99123974e-01
9.99159647e-01
9.99198389e-01
9.99239876e-01
9.99283736e-01
9.99329557e-01
9.99376889e-01
9.99425253e-01
9.99474150e-01
9.99523068e-01
9.99571490e-01
9.99618906e-01
9.99664824e-01
9.99708778e-01
9.99750348e-01
9.99789164e-01
9.99824928e-01
9.99857419e-01
9.99886508e-01
9.99912166e-01
9.99934475e-01
9.99953627e-01
9.99969929e-01
9.99983799e-01
9.99995763e-01
1.00000644e+00
1.00001653e+00
1.00002679e+00
1.00003802e+00
1.00005104e+00
1.00006665e+00
1.00008561e+00
1.00010860e+00
1.00013621e+00
1.00016889e+00
1.00020694e+00
1.00025051e+00
1.00029953e+00
1.00035378e+00
1.00041284e+00
1.00047614e+00
1.00054293e+00
1.00061236e+00
1.00068348e+00
1.00075530e+00
1.00082679e+00
1.00089694e+00
1.00096480e+00
1.00102948e+00
1.00109022e+00
1.00114635e+00
1.00119737e+00
1.00124290e+00
1.00128270e+00
1.00131668e+00
1.00134487e+00
1.00136744e+00
1.00138464e+00
1.00139682e+00
1.00140440e+00
1.00140784e+00
1.00140765e+00
1.00140434e+00
1.00139843e+00
1.00139042e+00
1.00138078e+00
1.00136994e+00
1.00135831e+00
1.00134623e+00
1.00133399e+00
1.00132185e+00
1.00131000e+00
1.00129858e+00
1.00128772e+00
1.00127747e+00
1.00126788e+00
1.00125895e+00
1.00125068e+00
1.00124305e+00
1.00123601e+00
1.00122954e+00
1.00122358e+00
1.00121813e+00
1.00121315e+00
1.00120862e+00
1.00120455e+00
1.00120088e+00
1.00119748e+00
1.00119429e+00
1.00119158e+00
9.99250174e-01
9.99246805e-01
9.99242403e-01
9.99237109e-01
9.99230780e-01
9.99223349e-01
9.99214876e-01
9.99205419e-01
9.99194986e-01
9.99183660e-01
9.99171528e-01
9.99158629e-01
9.99145031e-01
9.99130841e-01
9.99116147e-01
9.99101046e-01
9.99085670e-01
9.99070165e-01
9.99054688e-01
9.99039422e-01
9.99024578e-01
9.99010388e-01
9.98997102e-01
9.98984998e-01
9.98974373e-01
9.98965533e-01
9.98958797e-01
9.98954485e-01
9.98952909e-01
9.98954365e-01
9.98959124e-01
9.98967418e-01
9.98979436e-01
9.98995312e-01
9.99015117e-01
9.99038857e-01
9.99066468e-01
9.99097817e-01
9.99132701e-01
9.99170852e-01
9.99211945e-01
9.99255597e-01
9.99301382e-01
9.99348837e-01
9.99397468e-01
9.99446762e-01
9.99496191e-01
9.99545229e-01
9.99593355e-01
9.99640066e-01
9.99684885e-01
9.99727375e-01
9.99767149e-01
9.99803881e-01
9.99837318e-01
9.99867292e-01
9.99893726e-01
9.99916648e-01
9.99936192e-01
9.99952602e-01
9.99966236e-01
9.99977558e-01
9.99987135e-01
9.99995620e-01
1.00000374e+00
1.00001229e+00
1.00002208e+00
1.00003392e+00
1.00004863e+00
1.00006695e+00
1.00008956e+00
1.00011700e+00
1.00014972e+00
1.00018797e+00
1.00023187e+00
1.00028133e+00
1.00033608e+00
1.00039569e+00
1.00045957e+00
1.00052697e+00
1.00059704e+00
1.00066885e+00
1.00074142e+00
1.00081375e+00
1.00088489e+00
1.00095391e+00
1.00101996e+00
1.00108231e+00
1.00114032e+00
1.00119348e+00
1.00124141e+00
1.00128386e+00
1.00132070e+00
1.00135192e+00
1.00137763e+00
1.00139801e+00
1.00141334e+00
1.00142397e+00
1.00143031e+00
1.00143277e+00
1.00143183e+00
1.00142795e+00
1.00142159e+00
1.00141322e+00
1.00140324e+00
1.00139207e+00
1.00138006e+00
1.00136752e+00
1.00135475e+00
1.00134197e+00
1.00132938e+00
1.00131713e+00
1.00130534e+00
1.00129408e+00
1.00128343e+00
1.00127340e+00
1.00126401e+00
1.00125527e+00
1.00124716e+00
1.00123967e+00
1.00123280e+00
1.00122655e+00
1.00122090e+00
1.00121586e+00
1.00121141e+00
1.00120743e+00
1.00120383e+00
1.00120088e+00
9.99226334e-01
9.99222941e-01
9.99218489e-01
9.99213078e-01
9.99206595e-01
9.99199012e-01
9.99190371e-01
9.99180715e-01
9.99170118e-01
9.99158671e-01
9.99146428e-01
9.99133463e-01
9.99119878e-01
9.99105760e-01
9.99091201e-01
9.99076321e-01
9.99061253e-01
9.99046136e-01
9.99031133e-01
9.99016435e-01
9.99002248e-01
9.98988804e-01
9.98976361e-01
9.98965199e-01
9.98955619e-01
9.98947935e-01
9.98942474e-01
9.98939564e-01
9.98939524e-01
9.98942658e-01
9.98949241e-01
9.98959505e-01
9.98973635e-01
9.98991753e-01
9.99013915e-01
9.99040101e-01
9.99070216e-01
9.99104088e-01
9.99141469e-01
9.99182043e-01
9.99225431e-01
9.99271199e-01
9.99318871e-01
9.99367934e-01
9.99417852e-01
9.99468076e-01
9.99518056e-01
9.99567245e-01
9.99615117e-01
9.99661173e-01
9.99704950e-01
9.99746035e-01
9.99784072e-01
9.99818775e-01
9.99849935e-01
9.99877433e-01
9.99901247e-01
9.99921456e-01
9.99938249e-01
9.99951925e-01
9.99962891e-01
9.99971661e-01
9.99978843e-01
9.99985129e-01
9.99991280e-01
9.99998105e-01
1.00000644e+00
1.00001710e+00
1.00003091e+00
1.00004859e+00
1.00007080e+00
1.00009807e+00
1.00013081e+00
1.00016925e+00
1.00021346e+00
1.00026331e+00
1.00031853e+00
1.00037864e+00
1.00044304e+00
1.00051097e+00
1.00058161e+00
1.00065402e+00
1.00072726e+00
1.00080037e+00
1.00087242e+00
1.00094254e+00
1.00100990e+00
1.00107382e+00
1.00113367e+00
1.00118895e+00
1.00123930e+00
1.00128442e+00
1.00132417e+00
1.00135849e+00
1.00138742e+00
1.00141109e+00
1.00142971e+00
1.00144353e+00
1.00145290e+00
1.00145819e+00
1.00145978e+00
1.00145809e+00
1.00145356e+00
1.00144661e+00
1.00143765e+00
1.00142708e+00
1.00141527e+00
1.00140256e+00
1.00138925e+00
1.00137562e+00
1.00136191e+00
1.00134832e+00
1.00133500e+00
1.00132210e+00
1.00130970e+00
1.00129789e+00
1.00128672e+00
1.00127622e+00
1.00126643e+00
1.00125736e+00
1.00124901e+00
1.00124142e+00
1.00123461e+00
1.00122857e+00
1.00122330e+00
1.00121871e+00
1.00121470e+00
1.00121152e+00
9.99200451e-01
9.99197031e-01
9.99192536e-01
9.99187022e-01
9.99180401e-01
9.99172669e-01
9.99163851e-01
9.99154023e-01
9.99143288e-01
9.99131719e-01
9.99119390e-01
9.99106410e-01
9.99092875e-01
9.99078873e-01
9.99064521e-01
9.99049945e-01
9.99035271e-01
9.99020646e-01
9.99006239e-01
9.98992237e-01
9.98978844e-01
9.98966296e-01
9.98954850e-01
9.98944786e-01
9.98936405e-01
9.98930027e-01
9.98925981e-01
9.98924600e-01
9.98926208e-01
9.98931112e-01
9.98939587e-01
9.98951867e-01
9.98968129e-01
9.98988486e-01
9.99012978e-01
9.99041562e-01
9.99074115e-01
9.99110430e-01
9.99150220e-01
9.99193125e-01
9.99238718e-01
9.99286520e-01
9.99336005e-01
9.99386618e-01
9.99437783e-01
9.99488919e-01
9.99539447e-01
9.99588807e-01
9.99636463e-01
9.99681917e-01
9.99724719e-01
9.99764475e-01
9.99800857e-01
9.99833615e-01
9.99862582e-01
9.99887686e-01
9.99908954e-01
9.99926519e-01
9.99940624e-01
9.99951619e-01
9.99959965e-01
9.99966221e-01
9.99971042e-01
9.99975157e-01
9.99979361e-01