# vtk DataFile Version 2.0
LBM Flow Field - Timestep 1520
ASCII
DATASET STRUCTURED_POINTS
DIMENSIONS 128 128 1
ORIGIN 0.0 0.0 0.0
SPACING 1.0 1.0 1.0
POINT_DATA 16384
SCALARS density double 1
LOOKUP_TABLE default
9.94597678e-01
9.94589188e-01
9.94583550e-01
9.94597902e-01
9.94616332e-01
9.94636405e-01
9.94662295e-01
9.94693801e-01
9.94728837e-01
9.94767569e-01
9.94810387e-01
9.94856855e-01
9.94906627e-01
9.94959720e-01
9.95016072e-01
9.95075542e-01
9.95138082e-01
9.95203705e-01
9.95272423e-01
9.95344267e-01
9.95419299e-01
9.95497593e-01
9.95579221e-01
9.95664250e-01
9.95752732e-01
9.95844694e-01
9.95940127e-01
9.96038979e-01
9.96141152e-01
9.96246493e-01
9.96354795e-01
9.96465798e-01
9.96579191e-01
9.96694621e-01
9.96811697e-01
9.96930006e-01
9.97049121e-01
9.97168615e-01
9.97288078e-01
9.97407122e-01
9.97525400e-01
9.97642611e-01
9.97758512e-01
9.97872918e-01
9.97985708e-01
9.98096823e-01
9.98206265e-01
9.98314090e-01
9.98420403e-01
9.98525347e-01
9.98629100e-01
9.98731860e-01
9.98833841e-01
9.98935260e-01
9.99036334e-01
9.99137273e-01
9.99238274e-01
9.99339516e-01
9.99441163e-01
9.99543359e-01
9.99646227e-01
9.99749873e-01
9.99854385e-01
9.99959838e-01
1.00006629e+00
1.00017379e+00
1.00028238e+00
1.00039209e+00
1.00050296e+00
1.00061501e+00
1.00072826e+00
1.00084274e+00
1.00095847e+00
1.00107548e+00
1.00119379e+00
1.00131343e+00
1.00143441e+00
1.00155676e+00
1.00168049e+00
1.00180560e+00
1.00193210e+00
1.00205998e+00
1.00218919e+00
1.00231971e+00
1.00245146e+00
1.00258435e+00
1.00271826e+00
1.00285304e+00
1.00298852e+00
1.00312447e+00
1.00326066e+00
1.00339680e+00
1.00353259e+00
1.00366770e+00
1.00380175e+00
1.00393438e+00
1.00406519e+00
1.00419381e+00
1.00431983e+00
1.00444287e+00
1.00456259e+00
1.00467865e+00
1.00479075e+00
1.00489862e+00
1.00500206e+00
1.00510088e+00
1.00519496e+00
1.00528421e+00
1.00536859e+00
1.00544810e+00
1.00552276e+00
1.00559261e+00
1.00565773e+00
1.00571821e+00
1.00577415e+00
1.00582556e+00
1.00587256e+00
1.00591539e+00
1.00595388e+00
1.00598777e+00
1.00601775e+00
1.00604432e+00
1.00606511e+00
1.00608006e+00
1.00609472e+00
1.00610633e+00
1.00609360e+00
1.00607939e+00
9.94586048e-01
9.94586947e-01
9.94587268e-01
9.94599778e-01
9.94616922e-01
9.94638352e-01
9.94664446e-01
9.94695434e-01
9.94730527e-01
9.94769556e-01
9.94812399e-01
9.94858904e-01
9.94908863e-01
9.94962153e-01
9.95018679e-01
9.95078369e-01
9.95141171e-01
9.95207072e-01
9.95276085e-01
9.95348246e-01
9.95423609e-01
9.95502237e-01
9.95584197e-01
9.95669549e-01
9.95758336e-01
9.95850576e-01
9.95946252e-01
9.96045307e-01
9.96147635e-01
9.96253080e-01
9.96361432e-01
9.96472431e-01
9.96585767e-01
9.96701089e-01
9.96818012e-01
9.96936130e-01
9.97055024e-01
9.97174276e-01
9.97293484e-01
9.97412271e-01
9.97530298e-01
9.97647273e-01
9.97762958e-01
9.97877173e-01
9.97989801e-01
9.98100783e-01
9.98210122e-01
9.98317871e-01
9.98424130e-01
9.98529042e-01
9.98632776e-01
9.98735526e-01
9.98837498e-01
9.98938907e-01
9.99039963e-01
9.99140871e-01
9.99241826e-01
9.99343004e-01
9.99444566e-01
9.99546655e-01
9.99649394e-01
9.99752889e-01
9.99857230e-01
9.99962489e-01
1.00006873e+00
1.00017600e+00
1.00028434e+00
1.00039380e+00
1.00050439e+00
1.00061615e+00
1.00072911e+00
1.00084328e+00
1.00095870e+00
1.00107538e+00
1.00119336e+00
1.00131266e+00
1.00143329e+00
1.00155529e+00
1.00167866e+00
1.00180342e+00
1.00192956e+00
1.00205706e+00
1.00218591e+00
1.00231606e+00
1.00244743e+00
1.00257995e+00
1.00271349e+00
1.00284790e+00
1.00298301e+00
1.00311862e+00
1.00325446e+00
1.00339028e+00
1.00352577e+00
1.00366059e+00
1.00379440e+00
1.00392681e+00
1.00405746e+00
1.00418594e+00
1.00431188e+00
1.00443490e+00
1.00455465e+00
1.00467080e+00
1.00478304e+00
1.00489111e+00
1.00499480e+00
1.00509392e+00
1.00518834e+00
1.00527797e+00
1.00536275e+00
1.00544268e+00
1.00551777e+00
1.00558806e+00
1.00565361e+00
1.00571451e+00
1.00577082e+00
1.00582264e+00
1.00587003e+00
1.00591308e+00
1.00595178e+00
1.00598620e+00
1.00601640e+00
1.00604248e+00
1.00606363e+00
1.00608046e+00
1.00609350e+00
1.00610263e+00
1.00609760e+00
1.00609609e+00
9.94572070e-01
9.94578613e-01
9.94591553e-01
9.94600705e-01
9.94615567e-01
9.94638987e-01
9.94665974e-01
9.94696295e-01
9.94731431e-01
9.94770930e-01
9.94813947e-01
9.94860550e-01
9.94910772e-01
9.94964356e-01
9.95021147e-01
9.95081133e-01
9.95144275e-01
9.95210529e-01
9.95279909e-01
9.95352455e-01
9.95428213e-01
9.95507239e-01
9.95589594e-01
9.95675333e-01
9.95764489e-01
9.95857075e-01
9.95953068e-01
9.96052403e-01
9.96154970e-01
9.96260608e-01
9.96369106e-01
9.96480200e-01
9.96593583e-01
9.96708906e-01
9.96825787e-01
9.96943824e-01
9.97062605e-01
9.97181721e-01
9.97300774e-01
9.97419397e-01
9.97537258e-01
9.97654072e-01
9.97769606e-01
9.97883685e-01
9.97996194e-01
9.98107078e-01
9.98216337e-01
9.98324025e-01
9.98430238e-01
9.98535115e-01
9.98638822e-01
9.98741546e-01
9.98843489e-01
9.98944859e-01
9.99045862e-01
9.99146700e-01
9.99247560e-01
9.99348618e-01
9.99450031e-01
9.99551941e-01
9.99654470e-01
9.99757723e-01
9.99861790e-01
9.99966745e-01
1.00007265e+00
1.00017956e+00
1.00028752e+00
1.00039656e+00
1.00050672e+00
1.00061802e+00
1.00073051e+00
1.00084419e+00
1.00095911e+00
1.00107528e+00
1.00119274e+00
1.00131152e+00
1.00143162e+00
1.00155309e+00
1.00167593e+00
1.00180016e+00
1.00192578e+00
1.00205277e+00
1.00218111e+00
1.00231076e+00
1.00244165e+00
1.00257370e+00
1.00270679e+00
1.00284078e+00
1.00297549e+00
1.00311072e+00
1.00324622e+00
1.00338173e+00
1.00351694e+00
1.00365154e+00
1.00378516e+00
1.00391745e+00
1.00404801e+00
1.00417648e+00
1.00430246e+00
1.00442558e+00
1.00454549e+00
1.00466186e+00
1.00477438e+00
1.00488279e+00
1.00498686e+00
1.00508641e+00
1.00518129e+00
1.00527141e+00
1.00535671e+00
1.00543717e+00
1.00551278e+00
1.00558359e+00
1.00564967e+00
1.00571104e+00
1.00576780e+00
1.00582008e+00
1.00586790e+00
1.00591119e+00
1.00595019e+00
1.00598526e+00
1.00601560e+00
1.00604093e+00
1.00606328e+00
1.00608267e+00
1.00609275e+00
1.00609733e+00
1.00610923e+00
1.00611517e+00
9.94572314e-01
9.94577154e-01
9.94587058e-01
9.94599052e-01
9.94617102e-01
9.94639397e-01
9.94665844e-01
9.94697073e-01
9.94732630e-01
9.94772030e-01
9.94815276e-01
9.94862266e-01
9.94912751e-01
9.94966598e-01
9.95023744e-01
9.95084102e-01
9.95147613e-01
9.95214263e-01
9.95284064e-01
9.95357037e-01
9.95433226e-01
9.95512685e-01
9.95595469e-01
9.95681621e-01
9.95771173e-01
9.95864129e-01
9.95960460e-01
9.96060098e-01
9.96162926e-01
9.96268782e-01
9.96377453e-01
9.96488676e-01
9.96602143e-01
9.96717508e-01
9.96834396e-01
9.96952408e-01
9.97071140e-01
9.97190187e-01
9.97309162e-01
9.97427702e-01
9.97545483e-01
9.97662223e-01
9.97777696e-01
9.97891729e-01
9.98004209e-01
9.98115080e-01
9.98224342e-01
9.98332044e-01
9.98438282e-01
9.98543185e-01
9.98646915e-01
9.98749655e-01
9.98851599e-01
9.98952950e-01
9.99053908e-01
9.99154669e-01
9.99255417e-01
9.99356324e-01
9.99457546e-01
9.99559220e-01
9.99661468e-01
9.99764397e-01
9.99868095e-01
9.99972638e-01
1.00007809e+00
1.00018451e+00
1.00029194e+00
1.00040042e+00
1.00051000e+00
1.00062069e+00
1.00073254e+00
1.00084557e+00
1.00095982e+00
1.00107532e+00
1.00119210e+00
1.00131019e+00
1.00142962e+00
1.00155042e+00
1.00167260e+00
1.00179618e+00
1.00192116e+00
1.00204753e+00
1.00217528e+00
1.00230437e+00
1.00243472e+00
1.00256626e+00
1.00269887e+00
1.00283241e+00
1.00296671e+00
1.00310157e+00
1.00323674e+00
1.00337197e+00
1.00350694e+00
1.00364135e+00
1.00377484e+00
1.00390704e+00
1.00403758e+00
1.00416608e+00
1.00429216e+00
1.00441544e+00
1.00453556e+00
1.00465221e+00
1.00476506e+00
1.00487386e+00
1.00497836e+00
1.00507839e+00
1.00517379e+00
1.00526444e+00
1.00535030e+00
1.00543131e+00
1.00550749e+00
1.00557886e+00
1.00564545e+00
1.00570735e+00
1.00576461e+00
1.00581728e+00
1.00586549e+00
1.00590929e+00
1.00594861e+00
1.00598359e+00
1.00601450e+00
1.00604094e+00
1.00606259e+00
1.00608053e+00
1.00609484e+00
1.00610299e+00
1.00611049e+00
1.00611403e+00
9.94572443e-01
9.94576189e-01
9.94583627e-01
9.94598792e-01
9.94617771e-01
9.94639050e-01
9.94666007e-01
9.94698030e-01
9.94733635e-01
9.94773104e-01
9.94816741e-01
9.94864077e-01
9.94914829e-01
9.94969014e-01
9.95026555e-01
9.95087309e-01
9.95151232e-01
9.95218326e-01
9.95288585e-01
9.95362024e-01
9.95438685e-01
9.95518617e-01
9.95601865e-01
9.95688467e-01
9.95778447e-01
9.95871804e-01
9.95968503e-01
9.96068469e-01
9.96171585e-01
9.96277684e-01
9.96386552e-01
9.96497928e-01
9.96611505e-01
9.96726942e-01
9.96843867e-01
9.96961890e-01
9.97080610e-01
9.97199633e-01
9.97318577e-01
9.97437088e-01
9.97554846e-01
9.97671577e-01
9.97787056e-01
9.97901114e-01
9.98013639e-01
9.98124572e-01
9.98233911e-01
9.98341701e-01
9.98448032e-01
9.98553027e-01
9.98656841e-01
9.98759648e-01
9.98861636e-01
9.98963001e-01
9.99063935e-01
9.99164629e-01
9.99265263e-01
9.99366003e-01
9.99467002e-01
9.99568397e-01
9.99670309e-01
9.99772844e-01
9.99876091e-01
9.99980130e-01
1.00008503e+00
1.00019084e+00
1.00029762e+00
1.00040542e+00
1.00051427e+00
1.00062421e+00
1.00073528e+00
1.00084751e+00
1.00096095e+00
1.00107563e+00
1.00119159e+00
1.00130886e+00
1.00142748e+00
1.00154748e+00
1.00166887e+00
1.00179169e+00
1.00191594e+00
1.00204161e+00
1.00216868e+00
1.00229712e+00
1.00242687e+00
1.00255785e+00
1.00268993e+00
1.00282300e+00
1.00295686e+00
1.00309133e+00
1.00322616e+00
1.00336110e+00
1.00349584e+00
1.00363007e+00
1.00376343e+00
1.00389557e+00
1.00402611e+00
1.00415468e+00
1.00428088e+00
1.00440435e+00
1.00452474e+00
1.00464170e+00
1.00475493e+00
1.00486416e+00
1.00496915e+00
1.00506970e+00
1.00516566e+00
1.00525690e+00
1.00534336e+00
1.00542498e+00
1.00550176e+00
1.00557372e+00
1.00564087e+00
1.00570330e+00
1.00576108e+00
1.00581420e+00
1.00586276e+00
1.00590700e+00
1.00594681e+00
1.00598187e+00
1.00601279e+00
1.00604021e+00
1.00606251e+00
1.00607905e+00
1.00609439e+00
1.00610673e+00
1.00611106e+00
1.00611295e+00
9.94570028e-01
9.94575006e-01
9.94584261e-01
9.94598335e-01
9.94616294e-01
9.94639350e-01
9.94667095e-01
9.94698583e-01
9.94734380e-01
9.94774520e-01
9.94818433e-01
9.94865940e-01
9.94917086e-01
9.94971710e-01
9.95029633e-01
9.95090805e-01
9.95155202e-01
9.95222779e-01
9.95293526e-01
9.95367470e-01
9.95444644e-01
9.95525083e-01
9.95608828e-01
9.95695914e-01
9.95786355e-01
9.95880143e-01
9.95977239e-01
9.96077564e-01
9.96180995e-01
9.96287366e-01
9.96396461e-01
9.96508020e-01
9.96621739e-01
9.96737282e-01
9.96854281e-01
9.96972353e-01
9.97091105e-01
9.97210149e-01
9.97329112e-01
9.97447646e-01
9.97565438e-01
9.97682217e-01
9.97797762e-01
9.97911907e-01
9.98024537e-01
9.98135594e-01
9.98245070e-01
9.98353006e-01
9.98459483e-01
9.98564619e-01
9.98668560e-01
9.98771471e-01
9.98873532e-01
9.98974931e-01
9.99075852e-01
9.99176481e-01
9.99276989e-01
9.99377541e-01
9.99478286e-01
9.99579359e-01
9.99680879e-01
9.99782953e-01
9.99885673e-01
9.99989121e-01
1.00009337e+00
1.00019847e+00
1.00030449e+00
1.00041147e+00
1.00051947e+00
1.00062853e+00
1.00073869e+00
1.00084999e+00
1.00096249e+00
1.00107621e+00
1.00119121e+00
1.00130753e+00
1.00142521e+00
1.00154429e+00
1.00166478e+00
1.00178673e+00
1.00191014e+00
1.00203500e+00
1.00216132e+00
1.00228904e+00
1.00241811e+00
1.00254846e+00
1.00267998e+00
1.00281251e+00
1.00294591e+00
1.00307996e+00
1.00321444e+00
1.00334908e+00
1.00348358e+00
1.00361763e+00
1.00375088e+00
1.00388298e+00
1.00401354e+00
1.00414220e+00
1.00426856e+00
1.00439226e+00
1.00451294e+00
1.00463027e+00
1.00474393e+00
1.00485364e+00
1.00495916e+00
1.00506029e+00
1.00515685e+00
1.00524873e+00
1.00533584e+00
1.00541811e+00
1.00549553e+00
1.00556811e+00
1.00563588e+00
1.00569885e+00
1.00575712e+00
1.00581079e+00
1.00585982e+00
1.00590425e+00
1.00594437e+00
1.00598021e+00
1.00601131e+00
1.00603799e+00
1.00606123e+00
1.00607997e+00
1.00609387e+00
1.00610471e+00
1.00611137e+00
1.00611485e+00
9.94569118e-01
9.94574180e-01
9.94584301e-01
9.94597767e-01
9.94616151e-01
9.94639981e-01
9.94667537e-01
9.94699226e-01
9.94735629e-01
9.94776048e-01
9.94820141e-01
9.94868050e-01
9.94919643e-01
9.94974652e-01
9.95032999e-01
9.95094660e-01
9.95159557e-01
9.95227643e-01
9.95298923e-01
9.95373414e-01
9.95451134e-01
9.95532117e-01
9.95616398e-01
9.95704003e-01
9.95794939e-01
9.95889193e-01
9.95986719e-01
9.96087434e-01
9.96191214e-01
9.96297889e-01
9.96407243e-01
9.96519018e-01
9.96632914e-01
9.96748598e-01
9.96865710e-01
9.96983871e-01
9.97102698e-01
9.97221810e-01
9.97340840e-01
9.97459447e-01
9.97577324e-01
9.97694206e-01
9.97809873e-01
9.97924160e-01
9.98036952e-01
9.98148186e-01
9.98257851e-01
9.98365980e-01
9.98472649e-01
9.98577965e-01
9.98682066e-01
9.98785107e-01
9.98887259e-01
9.98988700e-01
9.99089609e-01
9.99190161e-01
9.99290525e-01
9.99390858e-01
9.99491307e-01
9.99592005e-01
9.99693071e-01
9.99794613e-01
9.99896725e-01
9.99999490e-01
1.00010298e+00
1.00020727e+00
1.00031242e+00
1.00041848e+00
1.00052550e+00
1.00063355e+00
1.00074267e+00
1.00085291e+00
1.00096433e+00
1.00107697e+00
1.00119089e+00
1.00130614e+00
1.00142276e+00
1.00154079e+00
1.00166028e+00
1.00178125e+00
1.00190372e+00
1.00202770e+00
1.00215317e+00
1.00228010e+00
1.00240844e+00
1.00253810e+00
1.00266899e+00
1.00280096e+00
1.00293386e+00
1.00306747e+00
1.00320157e+00
1.00333590e+00
1.00347016e+00
1.00360404e+00
1.00373719e+00
1.00386926e+00
1.00399986e+00
1.00412863e+00
1.00425519e+00
1.00437915e+00
1.00450017e+00
1.00461790e+00
1.00473203e+00
1.00484227e+00
1.00494837e+00
1.00505012e+00
1.00514735e+00
1.00523991e+00
1.00532770e+00
1.00541067e+00
1.00548878e+00
1.00556201e+00
1.00563041e+00
1.00569399e+00
1.00575278e+00
1.00580690e+00
1.00585645e+00
1.00590133e+00
1.00594160e+00
1.00597770e+00
1.00600949e+00
1.00603633e+00
1.00605918e+00
1.00607882e+00
1.00609324e+00
1.00610324e+00
1.00611093e+00
1.00611449e+00
9.94569724e-01
9.94574247e-01
9.94583612e-01
9.94597848e-01
9.94616966e-01
9.94640237e-01
9.94667966e-01
9.94700500e-01
9.94737102e-01
9.94777573e-01
9.94822133e-01
9.94870536e-01
9.94922465e-01
9.94977879e-01
9.95036741e-01
9.95098914e-01
9.95164322e-01
9.95232958e-01
9.95304813e-01
9.95379880e-01
9.95458180e-01
9.95539744e-01
9.95624595e-01
9.95712751e-01
9.95804215e-01
9.95898968e-01
9.95996957e-01
9.96098095e-01
9.96202256e-01
9.96309267e-01
9.96418915e-01
9.96530941e-01
9.96645051e-01
9.96760914e-01
9.96878178e-01
9.96996471e-01
9.97115417e-01
9.97234642e-01
9.97353788e-01
9.97472519e-01
9.97590534e-01
9.97707571e-01
9.97823414e-01
9.97937896e-01
9.98050900e-01
9.98162360e-01
9.98272259e-01
9.98380624e-01
9.98487520e-01
9.98593047e-01
9.98697330e-01
9.98800517e-01
9.98902768e-01
9.99004250e-01
9.99105134e-01
9.99205589e-01
9.99305777e-01
9.99405851e-01
9.99505954e-01
9.99606217e-01
9.99706761e-01
9.99807692e-01
9.99909108e-01
1.00001110e+00
1.00011374e+00
1.00021711e+00
1.00032127e+00
1.00042628e+00
1.00053222e+00
1.00063914e+00
1.00074710e+00
1.00085616e+00
1.00096638e+00
1.00107782e+00
1.00119054e+00
1.00130460e+00
1.00142005e+00
1.00153695e+00
1.00165533e+00
1.00177524e+00
1.00189669e+00
1.00201969e+00
1.00214424e+00
1.00227032e+00
1.00239786e+00
1.00252679e+00
1.00265701e+00
1.00278838e+00
1.00292075e+00
1.00305390e+00
1.00318761e+00
1.00332162e+00
1.00345564e+00
1.00358935e+00
1.00372241e+00
1.00385446e+00
1.00398513e+00
1.00411404e+00
1.00424081e+00
1.00436507e+00
1.00448646e+00
1.00460463e+00
1.00471927e+00
1.00483008e+00
1.00493680e+00
1.00503922e+00
1.00513714e+00
1.00523042e+00
1.00531895e+00
1.00540265e+00
1.00548147e+00
1.00555539e+00
1.00562443e+00
1.00568863e+00
1.00574803e+00
1.00580261e+00
1.00585252e+00
1.00589792e+00
1.00593868e+00
1.00597475e+00
1.00600667e+00
1.00603445e+00
1.00605740e+00
1.00607623e+00
1.00609149e+00
1.00610238e+00
1.00610908e+00
1.00611194e+00
9.94570078e-01
9.94574593e-01
9.94583877e-01
9.94598438e-01
9.94617529e-01
9.94640909e-01
9.94669190e-01
9.94701903e-01
9.94738618e-01
9.94779561e-01
9.94824566e-01
9.94873269e-01
9.94925607e-01
9.94981540e-01
9.95040900e-01
9.95103576e-01
9.95169544e-01
9.95238769e-01
9.95311217e-01
9.95386889e-01
9.95465805e-01
9.95547981e-01
9.95633433e-01
9.95722174e-01
9.95814200e-01
9.95909483e-01
9.96007968e-01
9.96109563e-01
9.96214138e-01
9.96321521e-01
9.96431496e-01
9.96543810e-01
9.96658170e-01
9.96774252e-01
9.96891708e-01
9.97010175e-01
9.97129283e-01
9.97248667e-01
9.97367974e-01
9.97486877e-01
9.97605078e-01
9.97722319e-01
9.97838384e-01
9.97953107e-01
9.98066367e-01
9.98178095e-01
9.98288267e-01
9.98396899e-01
9.98504050e-01
9.98609808e-01
9.98714288e-01
9.98817626e-01
9.98919972e-01
9.99021484e-01
9.99122324e-01
9.99222652e-01
9.99322624e-01
9.99422390e-01
9.99522090e-01
9.99621853e-01
9.99721799e-01
9.99822039e-01
9.99922672e-01
1.00002379e+00
1.00012548e+00
1.00022782e+00
1.00033089e+00
1.00043476e+00
1.00053950e+00
1.00064517e+00
1.00075186e+00
1.00085962e+00
1.00096854e+00
1.00107867e+00
1.00119009e+00
1.00130287e+00
1.00141706e+00
1.00153273e+00
1.00164992e+00
1.00176868e+00
1.00188904e+00
1.00201101e+00
1.00213458e+00
1.00225974e+00
1.00238643e+00
1.00251459e+00
1.00264411e+00
1.00277485e+00
1.00290665e+00
1.00303932e+00
1.00317263e+00
1.00330631e+00
1.00344008e+00
1.00357362e+00
1.00370660e+00
1.00383864e+00
1.00396939e+00
1.00409846e+00
1.00422547e+00
1.00435006e+00
1.00447185e+00
1.00459049e+00
1.00470567e+00
1.00481708e+00
1.00492446e+00
1.00502758e+00
1.00512623e+00
1.00522027e+00
1.00530956e+00
1.00539401e+00
1.00547357e+00
1.00554821e+00
1.00561793e+00
1.00568273e+00
1.00574270e+00
1.00579786e+00
1.00584819e+00
1.00589387e+00
1.00593507e+00
1.00597161e+00
1.00600353e+00
1.00603139e+00
1.00605493e+00
1.00607378e+00
1.00608888e+00
1.00610012e+00
1.00610671e+00
1.00610951e+00
9.94570616e-01
9.94575351e-01
9.94584970e-01
9.94599312e-01
9.94618354e-01
9.94642309e-01
9.94670799e-01
9.94703506e-01
9.94740659e-01
9.94782064e-01
9.94827318e-01
9.94876393e-01
9.94929249e-01
9.94985662e-01
9.95045499e-01
9.95108729e-01
9.95175290e-01
9.95245110e-01
9.95318173e-01
9.95394483e-01
9.95474040e-01
9.95556853e-01
9.95642935e-01
9.95732292e-01
9.95824909e-01
9.95920755e-01
9.96019768e-01
9.96121852e-01
9.96226875e-01
9.96334663e-01
9.96445002e-01
9.96557639e-01
9.96672287e-01
9.96788625e-01
9.96906314e-01
9.97024996e-01
9.97144308e-01
9.97263894e-01
9.97383408e-01
9.97502526e-01
9.97620957e-01
9.97738445e-01
9.97854774e-01
9.97969778e-01
9.98083332e-01
9.98195361e-01
9.98305833e-01
9.98414757e-01
9.98522179e-01
9.98628179e-01
9.98732858e-01
9.98836343e-01
9.98938771e-01
9.99040291e-01
9.99141055e-01
9.99241217e-01
9.99340926e-01
9.99440328e-01
9.99539560e-01
9.99638751e-01
9.99738023e-01
9.99837487e-01
9.99937248e-01
1.00003740e+00
1.00013805e+00
1.00023926e+00
1.00034114e+00
1.00044375e+00
1.00054719e+00
1.00065152e+00
1.00075684e+00
1.00086321e+00
1.00097073e+00
1.00107946e+00
1.00118950e+00
1.00130090e+00
1.00141375e+00
1.00152812e+00
1.00164405e+00
1.00176160e+00
1.00188080e+00
1.00200168e+00
1.00212422e+00
1.00224842e+00
1.00237423e+00
1.00250157e+00
1.00263035e+00
1.00276043e+00
1.00289166e+00
1.00302383e+00
1.00315672e+00
1.00329006e+00
1.00342358e+00
1.00355695e+00
1.00368984e+00
1.00382188e+00
1.00395272e+00
1.00408196e+00
1.00420924e+00
1.00433416e+00
1.00445637e+00
1.00457551e+00
1.00469125e+00
1.00480329e+00
1.00491135e+00
1.00501519e+00
1.00511461e+00
1.00520942e+00
1.00529949e+00
1.00538472e+00
1.00546503e+00
1.00554040e+00
1.00561082e+00
1.00567626e+00
1.00573676e+00
1.00579244e+00
1.00584332e+00
1.00588936e+00
1.00593075e+00
1.00596771e+00
1.00600004e+00
1.00602776e+00
1.00605142e+00
1.00607086e+00
1.00608581e+00
1.00609672e+00
1.00610366e+00
1.00610672e+00
9.94571984e-01
9.94576671e-01
9.94586333e-01
9.94600755e-01
9.94620049e-01
9.94644163e-01
9.94672723e-01
9.94705801e-01
9.94743333e-01
9.94784949e-01
9.94830562e-01
9.94880128e-01
9.94933418e-01
9.94990275e-01
9.95050653e-01
9.95114462e-01
9.95181601e-01
9.95252032e-01
9.95325741e-01
9.95402707e-01
9.95482924e-01
9.95566400e-01
9.95653140e-01
9.95743138e-01
9.95836375e-01
9.95932814e-01
9.96032386e-01
9.96134992e-01
9.96240496e-01
9.96348723e-01
9.96459461e-01
9.96572458e-01
9.96687430e-01
9.96804064e-01
9.96922023e-01
9.97040959e-01
9.97160517e-01
9.97280344e-01
9.97400103e-01
9.97519477e-01
9.97638176e-01
9.97755947e-01
9.97872576e-01
9.97987891e-01
9.98101766e-01
9.98214119e-01
9.98324910e-01
9.98434138e-01
9.98541838e-01
9.98648078e-01
9.98752949e-01
9.98856563e-01
9.98959049e-01
9.99060545e-01
9.99161193e-01
9.99261140e-01
9.99360531e-01
9.99459505e-01
9.99558200e-01
9.99656743e-01
9.99755258e-01
9.99853861e-01
9.99952660e-01
1.00005176e+00
1.00015126e+00
1.00025126e+00
1.00035185e+00
1.00045311e+00
1.00055516e+00
1.00065806e+00
1.00076192e+00
1.00086682e+00
1.00097285e+00
1.00108011e+00
1.00118868e+00
1.00129865e+00
1.00141009e+00
1.00152309e+00
1.00163771e+00
1.00175399e+00
1.00187199e+00
1.00199173e+00
1.00211321e+00
1.00223641e+00
1.00236129e+00
1.00248779e+00
1.00261581e+00
1.00274521e+00
1.00287583e+00
1.00300749e+00
1.00313994e+00
1.00327294e+00
1.00340620e+00
1.00353939e+00
1.00367220e+00
1.00380425e+00
1.00393517e+00
1.00406460e+00
1.00419214e+00
1.00431741e+00
1.00444005e+00
1.00455971e+00
1.00467603e+00
1.00478871e+00
1.00489747e+00
1.00500205e+00
1.00510224e+00
1.00519784e+00
1.00528870e+00
1.00537472e+00
1.00545581e+00
1.00553190e+00
1.00560299e+00
1.00566910e+00
1.00573020e+00
1.00578635e+00
1.00583766e+00
1.00588419e+00
1.00592589e+00
1.00596298e+00
1.00599563e+00
1.00602367e+00
1.00604728e+00
1.00606680e+00
1.00608198e+00
1.00609291e+00
1.00609988e+00
1.00610285e+00
9.94574067e-01
9.94578723e-01
9.94588326e-01
9.94602963e-01
9.94622446e-01
9.94646576e-01
9.94675391e-01
9.94708832e-01
9.94746556e-01
9.94788462e-01
9.94834522e-01
9.94884487e-01
9.94938176e-01
9.94995540e-01
9.95056468e-01
9.95120825e-01
9.95188554e-01
9.95259623e-01
9.95333986e-01
9.95411617e-01
9.95492515e-01
9.95576677e-01
9.95664095e-01
9.95754759e-01
9.95848644e-01
9.95945704e-01
9.96045865e-01
9.96149023e-01
9.96255041e-01
9.96363742e-01
9.96474913e-01
9.96588305e-01
9.96703638e-01
9.96820603e-01
9.96938870e-01
9.97058097e-01
9.97177935e-01
9.97298040e-01
9.97418080e-01
9.97537742e-01
9.97656741e-01
9.97774824e-01
9.97891778e-01
9.98007427e-01
9.98121642e-01
9.98234332e-01
9.98345449e-01
9.98454981e-01
9.98562954e-01
9.98669422e-01
9.98774464e-01
9.98878180e-01
9.98980688e-01
9.99082116e-01
9.99182598e-01
9.99282272e-01
9.99381279e-01
9.99479756e-01
9.99577837e-01
9.99675652e-01
9.99773326e-01
9.99870980e-01
9.99968728e-01
1.00006668e+00
1.00016495e+00
1.00026364e+00
1.00036285e+00
1.00046269e+00
1.00056325e+00
1.00066464e+00
1.00076696e+00
1.00087032e+00
1.00097480e+00
1.00108052e+00
1.00118757e+00
1.00129605e+00
1.00140604e+00
1.00151762e+00
1.00163088e+00
1.00174586e+00
1.00186262e+00
1.00198118e+00
1.00210156e+00
1.00222374e+00
1.00234768e+00
1.00247331e+00
1.00260054e+00
1.00272924e+00
1.00285924e+00
1.00299036e+00
1.00312237e+00
1.00325501e+00
1.00338800e+00
1.00352102e+00
1.00365373e+00
1.00378578e+00
1.00391680e+00
1.00404640e+00
1.00417421e+00
1.00429984e+00
1.00442292e+00
1.00454309e+00
1.00466000e+00
1.00477334e+00
1.00488280e+00
1.00498813e+00
1.00508909e+00
1.00518548e+00
1.00527714e+00
1.00536394e+00
1.00544580e+00
1.00552263e+00
1.00559440e+00
1.00566112e+00
1.00572282e+00
1.00577950e+00
1.00583121e+00
1.00587810e+00
1.00592022e+00
1.00595754e+00
1.00599029e+00
1.00601864e+00
1.00604244e+00
1.00606187e+00
1.00607719e+00
1.00608832e+00
1.00609520e+00
1.00609813e+00
9.94576816e-01
9.94581576e-01
9.94591282e-01
9.94605997e-01
9.94625556e-01
9.94649890e-01
9.94678968e-01
9.94712572e-01
9.94750547e-01
9.94792843e-01
9.94839243e-01
9.94889556e-01
9.94943710e-01
9.95001579e-01
9.95063008e-01
9.95127921e-01
9.95196265e-01
9.95267968e-01
9.95342984e-01
9.95421296e-01
9.95502892e-01
9.95587753e-01
9.95675869e-01
9.95767222e-01
9.95861779e-01
9.95959486e-01
9.96060264e-01
9.96164006e-01
9.96270569e-01
9.96379776e-01
9.96491413e-01
9.96605234e-01
9.96720962e-01
9.96838292e-01
9.96956900e-01
9.97076450e-01
9.97196601e-01
9.97317014e-01
9.97437363e-01
9.97557340e-01
9.97676661e-01
9.97795077e-01
9.97912372e-01
9.98028368e-01
9.98142928e-01
9.98255956e-01
9.98367394e-01
9.98477220e-01
9.98585447e-01
9.98692117e-01
9.98797297e-01
9.98901076e-01
9.99003560e-01
9.99104865e-01
9.99205120e-01
9.99304455e-01
9.99403005e-01
9.99500907e-01
9.99598292e-01
9.99695294e-01
9.99792041e-01
9.99888658e-01
9.99985267e-01
1.00008199e+00
1.00017894e+00
1.00027623e+00
1.00037398e+00
1.00047231e+00
1.00057132e+00
1.00067113e+00
1.00077185e+00
1.00087360e+00
1.00097648e+00
1.00108061e+00
1.00118609e+00
1.00129304e+00
1.00140153e+00
1.00151167e+00
1.00162354e+00
1.00173719e+00
1.00185268e+00
1.00197005e+00
1.00208931e+00
1.00221044e+00
1.00233342e+00
1.00245816e+00
1.00258459e+00
1.00271257e+00
1.00284194e+00
1.00297252e+00
1.00310407e+00
1.00323634e+00
1.00336904e+00
1.00350187e+00
1.00363448e+00
1.00376652e+00
1.00389762e+00
1.00402740e+00
1.00415548e+00
1.00428146e+00
1.00440498e+00
1.00452566e+00
1.00464315e+00
1.00475713e+00
1.00486729e+00
1.00497336e+00
1.00507509e+00
1.00517227e+00
1.00526472e+00
1.00535230e+00
1.00543490e+00
1.00551246e+00
1.00558491e+00
1.00565225e+00
1.00571448e+00
1.00577168e+00
1.00582385e+00
1.00587106e+00
1.00591348e+00
1.00595114e+00
1.00598407e+00
1.00601250e+00
1.00603651e+00
1.00605609e+00
1.00607143e+00
1.00608262e+00
1.00608960e+00
1.00609266e+00
9.94580556e-01
9.94585432e-01
9.94595252e-01
9.94610017e-01
9.94629693e-01
9.94654243e-01
9.94683480e-01
9.94717269e-01
9.94755556e-01
9.94798151e-01
9.94844845e-01
9.94895558e-01
9.94950159e-01
9.95008476e-01
9.95070412e-01
9.95135897e-01
9.95204837e-01
9.95277163e-01
9.95352843e-01
9.95431847e-01
9.95514143e-01
9.95599716e-01
9.95688548e-01
9.95780610e-01
9.95875860e-01
9.95974238e-01
9.96075661e-01
9.96180014e-01
9.96287151e-01
9.96396894e-01
9.96509029e-01
9.96623310e-01
9.96739463e-01
9.96857188e-01
9.96976166e-01
9.97096068e-01
9.97216557e-01
9.97337302e-01
9.97457980e-01
9.97578289e-01
9.97697948e-01
9.97816706e-01
9.97934346e-01
9.98050688e-01
9.98165589e-01
9.98278944e-01
9.98390685e-01
9.98500780e-01
9.98609230e-01
9.98716064e-01
9.98821338e-01
9.98925128e-01
9.99027528e-01
9.99128648e-01
9.99228604e-01
9.99327525e-01
9.99425539e-01
9.99522782e-01
9.99619387e-01
9.99715487e-01
9.99811217e-01
9.99906708e-01
1.00000209e+00
1.00009749e+00
1.00019304e+00
1.00028886e+00
1.00038508e+00
1.00048182e+00
1.00057922e+00
1.00067738e+00
1.00077645e+00
1.00087654e+00
1.00097778e+00
1.00108028e+00
1.00118416e+00
1.00128954e+00
1.00139652e+00
1.00150519e+00
1.00161565e+00
1.00172796e+00
1.00184217e+00
1.00195833e+00
1.00207646e+00
1.00219653e+00
1.00231853e+00
1.00244238e+00
1.00256799e+00
1.00269524e+00
1.00282397e+00
1.00295398e+00
1.00308506e+00
1.00321694e+00
1.00334935e+00
1.00348197e+00
1.00361447e+00
1.00374649e+00
1.00387766e+00
1.00400760e+00
1.00413593e+00
1.00426226e+00
1.00438619e+00
1.00450737e+00
1.00462544e+00
1.00474005e+00
1.00485089e+00
1.00495768e+00
1.00506016e+00
1.00515810e+00
1.00525132e+00
1.00533966e+00
1.00542300e+00
1.00550124e+00
1.00557435e+00
1.00564230e+00
1.00570507e+00
1.00576273e+00
1.00581534e+00
1.00586293e+00
1.00590559e+00
1.00594350e+00
1.00597670e+00
1.00600525e+00
1.00602936e+00
1.00604912e+00
1.00606454e+00
1.00607577e+00
1.00608289e+00
1.00608610e+00
9.94585528e-01
9.94590485e-01
9.94600375e-01
9.94615259e-01
9.94635080e-01
9.94659748e-01
9.94689139e-01
9.94723173e-01
9.94761700e-01
9.94804532e-01
9.94851560e-01
9.94902655e-01
9.94957639e-01
9.95016399e-01
9.95078850e-01
9.95144877e-01
9.95214393e-01
9.95287347e-01
9.95363691e-01
9.95443379e-01
9.95526382e-01
9.95612679e-01
9.95702238e-01
9.95795022e-01
9.95890984e-01
9.95990057e-01
9.96092147e-01
9.96197137e-01
9.96304875e-01
9.96415182e-01
9.96527842e-01
9.96642610e-01
9.96759215e-01
9.96877360e-01
9.96996732e-01
9.97117006e-01
9.97237852e-01
9.97358943e-01
9.97479963e-01
9.97600611e-01
9.97720609e-01
9.97839708e-01
9.97957687e-01
9.98074362e-01
9.98189585e-01
9.98303241e-01
9.98415254e-01
9.98525581e-01
9.98634210e-01
9.98741158e-01
9.98846468e-01
9.98950205e-01
9.99052453e-01
9.99153312e-01
9.99252892e-01
9.99351314e-01
9.99448707e-01
9.99545202e-01
9.99640936e-01
9.99736045e-01
9.99830668e-01
9.99924945e-01
1.00001901e+00
1.00011301e+00
1.00020708e+00
1.00030135e+00
1.00039597e+00
1.00049107e+00
1.00058679e+00
1.00068326e+00
1.00078063e+00
1.00087903e+00
1.00097858e+00
1.00107943e+00
1.00118169e+00
1.00128549e+00
1.00139094e+00
1.00149814e+00
1.00160717e+00
1.00171813e+00
1.00183106e+00
1.00194601e+00
1.00206300e+00
1.00218201e+00
1.00230302e+00
1.00242597e+00
1.00255076e+00
1.00267726e+00
1.00280533e+00
1.00293477e+00
1.00306536e+00
1.00319684e+00
1.00332894e+00
1.00346134e+00
1.00359371e+00
1.00372569e+00
1.00385691e+00
1.00398700e+00
1.00411555e+00
1.00424220e+00
1.00436653e+00
1.00448819e+00
1.00460680e+00
1.00472201e+00
1.00483351e+00
1.00494100e+00
1.00504420e+00
1.00514288e+00
1.00523683e+00
1.00532589e+00
1.00540993e+00
1.00548884e+00
1.00556256e+00
1.00563107e+00
1.00569438e+00
1.00575248e+00
1.00580546e+00
1.00585341e+00
1.00589638e+00
1.00593449e+00
1.00596789e+00
1.00599665e+00
1.00602087e+00
1.00604072e+00
1.00605628e+00
1.00606764e+00
1.00607487e+00
1.00607820e+00
9.94591890e-01
9.94596961e-01
9.94606934e-01
9.94621929e-01
9.94641862e-01
9.94666645e-01
9.94696209e-01
9.94730436e-01
9.94769151e-01
9.94812239e-01
9.94859576e-01
9.94910986e-01
9.94966341e-01
9.95025544e-01
9.95088468e-01
9.95155009e-01
9.95225098e-01
9.95298669e-01
9.95375661e-01
9.95456030e-01
9.95539744e-01
9.95626767e-01
9.95717060e-01
9.95810580e-01
9.95907270e-01
9.96007054e-01
9.96109832e-01
9.96215480e-01
9.96323843e-01
9.96434736e-01
9.96547944e-01
9.96663223e-01
9.96780300e-01
9.96898884e-01
9.97018666e-01
9.97139325e-01
9.97260536e-01
9.97381980e-01
9.97503342e-01
9.97624325e-01
9.97744654e-01
9.97864078e-01
9.97982376e-01
9.98099358e-01
9.98214869e-01
9.98328789e-01
9.98441029e-01
9.98551536e-01
9.98660285e-01
9.98767283e-01
9.98872560e-01
9.98976170e-01
9.99078187e-01
9.99178701e-01
9.99277818e-01
9.99375653e-01
9.99472332e-01
9.99567988e-01
9.99662758e-01
9.99756784e-01
9.99850211e-01
9.99943186e-01
1.00003586e+00
1.00012837e+00
1.00022089e+00