# vtk DataFile Version 2.0
LBM Flow Field - Timestep 1210
ASCII
DATASET STRUCTURED_POINTS
DIMENSIONS 128 128 1
ORIGIN 0.0 0.0 0.0
SPACING 1.0 1.0 1.0
POINT_DATA 16384
SCALARS density double 1
LOOKUP_TABLE default
1.00038123e+00
1.00036054e+00
1.00033700e+00
1.00033540e+00
1.00033293e+00
1.00032712e+00
1.00032293e+00
1.00032031e+00
1.00031687e+00
1.00031286e+00
1.00030836e+00
1.00030293e+00
1.00029613e+00
1.00028782e+00
1.00027781e+00
1.00026590e+00
1.00025195e+00
1.00023583e+00
1.00021744e+00
1.00019669e+00
1.00017349e+00
1.00014775e+00
1.00011937e+00
1.00008823e+00
1.00005419e+00
1.00001713e+00
9.99976889e-01
9.99933354e-01
9.99886421e-01
9.99836039e-01
9.99782223e-01
9.99725076e-01
9.99664809e-01
9.99601758e-01
9.99536390e-01
9.99469313e-01
9.99401272e-01
9.99333141e-01
9.99265904e-01
9.99200634e-01
9.99138467e-01
9.99080563e-01
9.99028080e-01
9.98982135e-01
9.98943773e-01
9.98913941e-01
9.98893458e-01
9.98883000e-01
9.98883084e-01
9.98894064e-01
9.98916125e-01
9.98949284e-01
9.98993400e-01
9.99048178e-01
9.99113183e-01
9.99187847e-01
9.99271486e-01
9.99363309e-01
9.99462429e-01
9.99567875e-01
9.99678606e-01
9.99793515e-01
9.99911447e-01
1.00003121e+00
1.00015157e+00
1.00027131e+00
1.00038918e+00
1.00050398e+00
1.00061451e+00
1.00071965e+00
1.00081834e+00
1.00090962e+00
1.00099264e+00
1.00106668e+00
1.00113115e+00
1.00118563e+00
1.00122986e+00
1.00126376e+00
1.00128740e+00
1.00130105e+00
1.00130510e+00
1.00130012e+00
1.00128677e+00
1.00126586e+00
1.00123824e+00
1.00120483e+00
1.00116661e+00
1.00112452e+00
1.00107952e+00
1.00103251e+00
1.00098433e+00
1.00093577e+00
1.00088749e+00
1.00084011e+00
1.00079411e+00
1.00074988e+00
1.00070772e+00
1.00066783e+00
1.00063032e+00
1.00059524e+00
1.00056255e+00
1.00053215e+00
1.00050392e+00
1.00047767e+00
1.00045321e+00
1.00043030e+00
1.00040873e+00
1.00038827e+00
1.00036869e+00
1.00034981e+00
1.00033143e+00
1.00031341e+00
1.00029562e+00
1.00027799e+00
1.00026044e+00
1.00024296e+00
1.00022557e+00
1.00020840e+00
1.00019141e+00
1.00017459e+00
1.00015833e+00
1.00014319e+00
1.00012781e+00
1.00011264e+00
1.00010134e+00
1.00009232e+00
1.00006997e+00
1.00005243e+00
1.00036385e+00
1.00035628e+00
1.00033966e+00
1.00033535e+00
1.00033070e+00
1.00032657e+00
1.00032246e+00
1.00031930e+00
1.00031569e+00
1.00031181e+00
1.00030713e+00
1.00030154e+00
1.00029464e+00
1.00028629e+00
1.00027621e+00
1.00026427e+00
1.00025030e+00
1.00023418e+00
1.00021581e+00
1.00019510e+00
1.00017195e+00
1.00014627e+00
1.00011795e+00
1.00008690e+00
1.00005297e+00
1.00001604e+00
9.99975974e-01
9.99932663e-01
9.99886016e-01
9.99835990e-01
9.99782611e-01
9.99725988e-01
9.99666335e-01
9.99603985e-01
9.99539399e-01
9.99473174e-01
9.99406038e-01
9.99338846e-01
9.99272558e-01
9.99208224e-01
9.99146952e-01
9.99089879e-01
9.99038141e-01
9.98992834e-01
9.98954990e-01
9.98925541e-01
9.98905302e-01
9.98894944e-01
9.98894988e-01
9.98905791e-01
9.98927543e-01
9.98960272e-01
9.99003845e-01
9.99057979e-01
9.99122249e-01
9.99196097e-01
9.99278849e-01
9.99369721e-01
9.99467837e-01
9.99572235e-01
9.99681878e-01
9.99795672e-01
9.99912467e-01
1.00003108e+00
1.00015029e+00
1.00026889e+00
1.00038564e+00
1.00049935e+00
1.00060884e+00
1.00071299e+00
1.00081078e+00
1.00090125e+00
1.00098357e+00
1.00105701e+00
1.00112101e+00
1.00117516e+00
1.00121920e+00
1.00125306e+00
1.00127681e+00
1.00129070e+00
1.00129513e+00
1.00129064e+00
1.00127791e+00
1.00125770e+00
1.00123085e+00
1.00119828e+00
1.00116092e+00
1.00111971e+00
1.00107557e+00
1.00102940e+00
1.00098201e+00
1.00093418e+00
1.00088658e+00
1.00083978e+00
1.00079428e+00
1.00075046e+00
1.00070862e+00
1.00066897e+00
1.00063161e+00
1.00059660e+00
1.00056390e+00
1.00053344e+00
1.00050508e+00
1.00047866e+00
1.00045399e+00
1.00043084e+00
1.00040901e+00
1.00038828e+00
1.00036844e+00
1.00034929e+00
1.00033066e+00
1.00031241e+00
1.00029442e+00
1.00027661e+00
1.00025892e+00
1.00024136e+00
1.00022391e+00
1.00020669e+00
1.00018967e+00
1.00017309e+00
1.00015687e+00
1.00014157e+00
1.00012646e+00
1.00011263e+00
1.00009993e+00
1.00008936e+00
1.00007197e+00
1.00006387e+00
1.00034590e+00
1.00034489e+00
1.00034547e+00
1.00033543e+00
1.00032768e+00
1.00032561e+00
1.00032244e+00
1.00031825e+00
1.00031448e+00
1.00031063e+00
1.00030579e+00
1.00029996e+00
1.00029294e+00
1.00028446e+00
1.00027427e+00
1.00026225e+00
1.00024823e+00
1.00023209e+00
1.00021373e+00
1.00019305e+00
1.00016997e+00
1.00014438e+00
1.00011618e+00
1.00008528e+00
1.00005154e+00
1.00001484e+00
9.99975059e-01
9.99932089e-01
9.99885847e-01
9.99836300e-01
9.99783475e-01
9.99727485e-01
9.99668543e-01
9.99606976e-01
9.99543238e-01
9.99477910e-01
9.99411707e-01
9.99345460e-01
9.99280112e-01
9.99216686e-01
9.99156271e-01
9.99099980e-01
9.99048930e-01
9.99004202e-01
9.98966812e-01
9.98937684e-01
9.98917626e-01
9.98907309e-01
9.98907251e-01
9.98917815e-01
9.98939197e-01
9.98971431e-01
9.99014395e-01
9.99067813e-01
9.99131270e-01
9.99204220e-01
9.99285998e-01
9.99375830e-01
9.99472851e-01
9.99576108e-01
9.99684577e-01
9.99797171e-01
9.99912756e-01
1.00003016e+00
1.00014817e+00
1.00026559e+00
1.00038121e+00
1.00049383e+00
1.00060230e+00
1.00070552e+00
1.00080247e+00
1.00089220e+00
1.00097389e+00
1.00104684e+00
1.00111049e+00
1.00116443e+00
1.00120841e+00
1.00124234e+00
1.00126631e+00
1.00128057e+00
1.00128549e+00
1.00128161e+00
1.00126959e+00
1.00125017e+00
1.00122419e+00
1.00119252e+00
1.00115609e+00
1.00111582e+00
1.00107260e+00
1.00102731e+00
1.00098076e+00
1.00093369e+00
1.00088676e+00
1.00084056e+00
1.00079555e+00
1.00075212e+00
1.00071057e+00
1.00067111e+00
1.00063384e+00
1.00059883e+00
1.00056605e+00
1.00053542e+00
1.00050683e+00
1.00048013e+00
1.00045512e+00
1.00043161e+00
1.00040938e+00
1.00038825e+00
1.00036799e+00
1.00034844e+00
1.00032942e+00
1.00031080e+00
1.00029247e+00
1.00027436e+00
1.00025640e+00
1.00023863e+00
1.00022103e+00
1.00020362e+00
1.00018653e+00
1.00017006e+00
1.00015386e+00
1.00013795e+00
1.00012370e+00
1.00011147e+00
1.00009671e+00
1.00008211e+00
1.00007709e+00
1.00007373e+00
1.00035040e+00
1.00034561e+00
1.00034058e+00
1.00033331e+00
1.00032959e+00
1.00032570e+00
1.00032140e+00
1.00031766e+00
1.00031396e+00
1.00030954e+00
1.00030440e+00
1.00029836e+00
1.00029110e+00
1.00028236e+00
1.00027200e+00
1.00025983e+00
1.00024571e+00
1.00022952e+00
1.00021114e+00
1.00019050e+00
1.00016748e+00
1.00014200e+00
1.00011395e+00
1.00008323e+00
1.00004972e+00
1.00001329e+00
9.99973836e-01
9.99931242e-01
9.99885440e-01
9.99836400e-01
9.99784156e-01
9.99728824e-01
9.99670617e-01
9.99609858e-01
9.99546994e-01
9.99482598e-01
9.99417366e-01
9.99352116e-01
9.99287767e-01
9.99225321e-01
9.99165842e-01
9.99110422e-01
9.99060156e-01
9.99016103e-01
9.98979265e-01
9.98950552e-01
9.98930760e-01
9.98920554e-01
9.98920451e-01
9.98930811e-01
9.98951836e-01
9.98983563e-01
9.99025879e-01
9.99078516e-01
9.99141070e-01
9.99213006e-01
9.99293671e-01
9.99382306e-01
9.99478057e-01
9.99579988e-01
9.99687089e-01
9.99798290e-01
9.99912472e-01
1.00002848e+00
1.00014512e+00
1.00026122e+00
1.00037557e+00
1.00048701e+00
1.00059439e+00
1.00069664e+00
1.00079273e+00
1.00088176e+00
1.00096290e+00
1.00103546e+00
1.00109888e+00
1.00115276e+00
1.00119686e+00
1.00123107e+00
1.00125548e+00
1.00127032e+00
1.00127596e+00
1.00127292e+00
1.00126183e+00
1.00124341e+00
1.00121848e+00
1.00118790e+00
1.00115255e+00
1.00111333e+00
1.00107113e+00
1.00102680e+00
1.00098112e+00
1.00093484e+00
1.00088858e+00
1.00084294e+00
1.00079837e+00
1.00075526e+00
1.00071390e+00
1.00067451e+00
1.00063720e+00
1.00060204e+00
1.00056902e+00
1.00053807e+00
1.00050909e+00
1.00048192e+00
1.00045641e+00
1.00043236e+00
1.00040958e+00
1.00038787e+00
1.00036705e+00
1.00034695e+00
1.00032741e+00
1.00030829e+00
1.00028951e+00
1.00027099e+00
1.00025268e+00
1.00023458e+00
1.00021675e+00
1.00019921e+00
1.00018197e+00
1.00016521e+00
1.00014924e+00
1.00013383e+00
1.00011897e+00
1.00010562e+00
1.00009392e+00
1.00008138e+00
1.00007238e+00
1.00006600e+00
1.00035354e+00
1.00034650e+00
1.00033810e+00
1.00033472e+00
1.00033112e+00
1.00032526e+00
1.00032120e+00
1.00031778e+00
1.00031341e+00
1.00030843e+00
1.00030303e+00
1.00029664e+00
1.00028897e+00
1.00027991e+00
1.00026929e+00
1.00025690e+00
1.00024262e+00
1.00022633e+00
1.00020791e+00
1.00018726e+00
1.00016430e+00
1.00013893e+00
1.00011103e+00
1.00008050e+00
1.00004723e+00
1.00001109e+00
9.99971974e-01
9.99929785e-01
9.99884454e-01
9.99835962e-01
9.99784347e-01
9.99729730e-01
9.99672325e-01
9.99612453e-01
9.99550556e-01
9.99487193e-01
9.99423049e-01
9.99358920e-01
9.99295703e-01
9.99234376e-01
9.99175976e-01
9.99121570e-01
9.99072226e-01
9.99028981e-01
9.98992816e-01
9.98964623e-01
9.98945186e-01
9.98935159e-01
9.98935055e-01
9.98945232e-01
9.98965892e-01
9.98997079e-01
9.99038684e-01
9.99090452e-01
9.99151988e-01
9.99222771e-01
9.99302162e-01
9.99389419e-01
9.99483704e-01
9.99584099e-01
9.99689615e-01
9.99799201e-01
9.99911760e-01
1.00002616e+00
1.00014123e+00
1.00025581e+00
1.00036873e+00
1.00047883e+00
1.00058501e+00
1.00068619e+00
1.00078138e+00
1.00086967e+00
1.00095027e+00
1.00102248e+00
1.00108576e+00
1.00113969e+00
1.00118404e+00
1.00121871e+00
1.00124374e+00
1.00125938e+00
1.00126596e+00
1.00126398e+00
1.00125405e+00
1.00123687e+00
1.00121322e+00
1.00118393e+00
1.00114986e+00
1.00111189e+00
1.00107086e+00
1.00102762e+00
1.00098292e+00
1.00093749e+00
1.00089196e+00
1.00084688e+00
1.00080274e+00
1.00075990e+00
1.00071867e+00
1.00067926e+00
1.00064181e+00
1.00060638e+00
1.00057297e+00
1.00054155e+00
1.00051200e+00
1.00048421e+00
1.00045802e+00
1.00043327e+00
1.00040976e+00
1.00038732e+00
1.00036578e+00
1.00034498e+00
1.00032478e+00
1.00030505e+00
1.00028570e+00
1.00026667e+00
1.00024794e+00
1.00022946e+00
1.00021129e+00
1.00019353e+00
1.00017623e+00
1.00015924e+00
1.00014301e+00
1.00012808e+00
1.00011362e+00
1.00009912e+00
1.00008768e+00
1.00007803e+00
1.00006671e+00
1.00005862e+00
1.00035287e+00
1.00034743e+00
1.00034109e+00
1.00033590e+00
1.00033027e+00
1.00032593e+00
1.00032212e+00
1.00031740e+00
1.00031244e+00
1.00030735e+00
1.00030145e+00
1.00029446e+00
1.00028636e+00
1.00027695e+00
1.00026597e+00
1.00025330e+00
1.00023882e+00
1.00022238e+00
1.00020389e+00
1.00018324e+00
1.00016033e+00
1.00013507e+00
1.00010733e+00
1.00007702e+00
1.00004402e+00
1.00000821e+00
9.99969489e-01
9.99927758e-01
9.99882961e-01
9.99835083e-01
9.99784171e-01
9.99730349e-01
9.99673833e-01
9.99614942e-01
9.99554111e-01
9.99491889e-01
9.99428945e-01
9.99366054e-01
9.99304090e-01
9.99244005e-01
9.99186808e-01
9.99133537e-01
9.99085232e-01
9.99042905e-01
9.99007512e-01
9.98979926e-01
9.98960914e-01
9.98951120e-01
9.98951047e-01
9.98961050e-01
9.98981332e-01
9.99011940e-01
9.99052772e-01
9.99103583e-01
9.99163990e-01
9.99233486e-01
9.99311450e-01
9.99397157e-01
9.99489791e-01
9.99588454e-01
9.99692180e-01
9.99799945e-01
9.99910674e-01
1.00002326e+00
1.00013657e+00
1.00024945e+00
1.00036078e+00
1.00046941e+00
1.00057426e+00
1.00067428e+00
1.00076850e+00
1.00085603e+00
1.00093608e+00
1.00100797e+00
1.00107116e+00
1.00112524e+00
1.00116996e+00
1.00120520e+00
1.00123103e+00
1.00124763e+00
1.00125533e+00
1.00125462e+00
1.00124605e+00
1.00123030e+00
1.00120812e+00
1.00118032e+00
1.00114771e+00
1.00111113e+00
1.00107143e+00
1.00102940e+00
1.00098578e+00
1.00094129e+00
1.00089653e+00
1.00085206e+00
1.00080835e+00
1.00076577e+00
1.00072463e+00
1.00068515e+00
1.00064748e+00
1.00061168e+00
1.00057779e+00
1.00054577e+00
1.00051554e+00
1.00048700e+00
1.00046000e+00
1.00043441e+00
1.00041004e+00
1.00038675e+00
1.00036437e+00
1.00034276e+00
1.00032179e+00
1.00030135e+00
1.00028136e+00
1.00026174e+00
1.00024250e+00
1.00022363e+00
1.00020512e+00
1.00018700e+00
1.00016950e+00
1.00015266e+00
1.00013628e+00
1.00012072e+00
1.00010674e+00
1.00009358e+00
1.00008091e+00
1.00007016e+00
1.00006041e+00
1.00005343e+00
1.00035365e+00
1.00034824e+00
1.00034274e+00
1.00033640e+00
1.00033100e+00
1.00032691e+00
1.00032189e+00
1.00031660e+00
1.00031153e+00
1.00030582e+00
1.00029916e+00
1.00029168e+00
1.00028314e+00
1.00027325e+00
1.00026187e+00
1.00024891e+00
1.00023419e+00
1.00021760e+00
1.00019903e+00
1.00017838e+00
1.00015554e+00
1.00013040e+00
1.00010287e+00
1.00007282e+00
1.00004014e+00
1.00000471e+00
9.99966431e-01
9.99925220e-01
9.99881023e-01
9.99833832e-01
9.99783699e-01
9.99730754e-01
9.99675214e-01
9.99617397e-01
9.99557729e-01
9.99496752e-01
9.99435114e-01
9.99373572e-01
9.99312975e-01
9.99254247e-01
9.99198366e-01
9.99146340e-01
9.99099178e-01
9.99057865e-01
9.99023330e-01
9.98996424e-01
9.98977896e-01
9.98968375e-01
9.98968355e-01
9.98978186e-01
9.98998070e-01
9.99028059e-01
9.99068056e-01
9.99117825e-01
9.99176999e-01
9.99245085e-01
9.99321481e-01
9.99405483e-01
9.99496296e-01
9.99593049e-01
9.99694801e-01
9.99800556e-01
9.99909268e-01
1.00001986e+00
1.00013122e+00
1.00024225e+00
1.00035183e+00
1.00045885e+00
1.00056226e+00
1.00066104e+00
1.00075423e+00
1.00084095e+00
1.00092044e+00
1.00099203e+00
1.00105517e+00
1.00110946e+00
1.00115463e+00
1.00119057e+00
1.00121731e+00
1.00123502e+00
1.00124401e+00
1.00124472e+00
1.00123769e+00
1.00122356e+00
1.00120303e+00
1.00117687e+00
1.00114587e+00
1.00111085e+00
1.00107260e+00
1.00103189e+00
1.00098945e+00
1.00094596e+00
1.00090204e+00
1.00085821e+00
1.00081495e+00
1.00077262e+00
1.00073155e+00
1.00069196e+00
1.00065400e+00
1.00061778e+00
1.00058332e+00
1.00055062e+00
1.00051962e+00
1.00049023e+00
1.00046233e+00
1.00043580e+00
1.00041049e+00
1.00038625e+00
1.00036295e+00
1.00034046e+00
1.00031866e+00
1.00029745e+00
1.00027676e+00
1.00025654e+00
1.00023675e+00
1.00021741e+00
1.00019858e+00
1.00018023e+00
1.00016239e+00
1.00014540e+00
1.00012927e+00
1.00011365e+00
1.00009917e+00
1.00008651e+00
1.00007429e+00
1.00006293e+00
1.00005388e+00
1.00004689e+00
1.00035544e+00
1.00034935e+00
1.00034295e+00
1.00033707e+00
1.00033199e+00
1.00032658e+00
1.00032099e+00
1.00031573e+00
1.00030992e+00
1.00030333e+00
1.00029617e+00
1.00028819e+00
1.00027904e+00
1.00026864e+00
1.00025688e+00
1.00024359e+00
1.00022862e+00
1.00021188e+00
1.00019325e+00
1.00017262e+00
1.00014988e+00
1.00012492e+00
1.00009763e+00
1.00006788e+00
1.00003558e+00
1.00000059e+00
9.99962824e-01
9.99922201e-01
9.99878674e-01
9.99832243e-01
9.99782967e-01
9.99730980e-01
9.99676500e-01
9.99619843e-01
9.99561431e-01
9.99501792e-01
9.99441558e-01
9.99381465e-01
9.99322336e-01
9.99265065e-01
9.99210599e-01
9.99159914e-01
9.99113988e-01
9.99073773e-01
9.99040171e-01
9.99014009e-01
9.98996015e-01
9.98986803e-01
9.98986855e-01
9.98996516e-01
9.99015986e-01
9.99045319e-01
9.99084425e-01
9.99133080e-01
9.99190928e-01
9.99257496e-01
9.99332200e-01
9.99414359e-01
9.99503204e-01
9.99597888e-01
9.99697502e-01
9.99801079e-01
9.99907606e-01
1.00001604e+00
1.00012530e+00
1.00023432e+00
1.00034200e+00
1.00044730e+00
1.00054916e+00
1.00064660e+00
1.00073869e+00
1.00082456e+00
1.00090347e+00
1.00097475e+00
1.00103787e+00
1.00109241e+00
1.00113811e+00
1.00117483e+00
1.00120260e+00
1.00122154e+00
1.00123196e+00
1.00123423e+00
1.00122889e+00
1.00121651e+00
1.00119778e+00
1.00117342e+00
1.00114418e+00
1.00111083e+00
1.00107415e+00
1.00103487e+00
1.00099370e+00
1.00095129e+00
1.00090825e+00
1.00086510e+00
1.00082230e+00
1.00078024e+00
1.00073922e+00
1.00069949e+00
1.00066122e+00
1.00062453e+00
1.00058945e+00
1.00055602e+00
1.00052418e+00
1.00049387e+00
1.00046501e+00
1.00043748e+00
1.00041116e+00
1.00038593e+00
1.00036167e+00
1.00033826e+00
1.00031559e+00
1.00029359e+00
1.00027219e+00
1.00025135e+00
1.00023105e+00
1.00021126e+00
1.00019205e+00
1.00017350e+00
1.00015558e+00
1.00013830e+00
1.00012204e+00
1.00010687e+00
1.00009239e+00
1.00007918e+00
1.00006750e+00
1.00005675e+00
1.00004725e+00
1.00003973e+00
1.00035575e+00
1.00034956e+00
1.00034302e+00
1.00033721e+00
1.00033147e+00
1.00032548e+00
1.00031979e+00
1.00031379e+00
1.00030708e+00
1.00029999e+00
1.00029229e+00
1.00028359e+00
1.00027385e+00
1.00026300e+00
1.00025083e+00
1.00023720e+00
1.00022201e+00
1.00020515e+00
1.00018648e+00
1.00016590e+00
1.00014330e+00
1.00011856e+00
1.00009156e+00
1.00006218e+00
1.00003031e+00
9.99995830e-01
9.99958645e-01
9.99918681e-01
9.99875899e-01
9.99830305e-01
9.99781965e-01
9.99731017e-01
9.99677682e-01
9.99622274e-01
9.99565207e-01
9.99506998e-01
9.99448262e-01
9.99389713e-01
9.99332146e-01
9.99276426e-01
9.99223467e-01
9.99174211e-01
9.99129601e-01
9.99090558e-01
9.99057955e-01
9.99032591e-01
9.99015174e-01
9.99006300e-01
9.99006439e-01
9.99015930e-01
9.99034969e-01
9.99063613e-01
9.99101780e-01
9.99149255e-01
9.99205699e-01
9.99270655e-01
9.99343561e-01
9.99423759e-01
9.99510506e-01
9.99602986e-01
9.99700320e-01
9.99801572e-01
9.99905765e-01
1.00001189e+00
1.00011891e+00
1.00022577e+00
1.00033145e+00
1.00043489e+00
1.00053510e+00
1.00063111e+00
1.00072202e+00
1.00080699e+00
1.00088528e+00
1.00095624e+00
1.00101933e+00
1.00107415e+00
1.00112042e+00
1.00115799e+00
1.00118686e+00
1.00120713e+00
1.00121907e+00
1.00122304e+00
1.00121950e+00
1.00120902e+00
1.00119222e+00
1.00116978e+00
1.00114242e+00
1.00111087e+00
1.00107586e+00
1.00103811e+00
1.00099829e+00
1.00095704e+00
1.00091494e+00
1.00087251e+00
1.00083021e+00
1.00078843e+00
1.00074748e+00
1.00070761e+00
1.00066901e+00
1.00063182e+00
1.00059610e+00
1.00056190e+00
1.00052919e+00
1.00049795e+00
1.00046809e+00
1.00043954e+00
1.00041220e+00
1.00038596e+00
1.00036072e+00
1.00033638e+00
1.00031286e+00
1.00029009e+00
1.00026800e+00
1.00024656e+00
1.00022577e+00
1.00020562e+00
1.00018608e+00
1.00016726e+00
1.00014928e+00
1.00013206e+00
1.00011564e+00
1.00010043e+00
1.00008636e+00
1.00007319e+00
1.00006144e+00
1.00005102e+00
1.00004161e+00
1.00003405e+00
1.00035472e+00
1.00034869e+00
1.00034226e+00
1.00033594e+00
1.00032967e+00
1.00032357e+00
1.00031726e+00
1.00031037e+00
1.00030318e+00
1.00029552e+00
1.00028703e+00
1.00027770e+00
1.00026747e+00
1.00025613e+00
1.00024354e+00
1.00022962e+00
1.00021424e+00
1.00019728e+00
1.00017861e+00
1.00015814e+00
1.00013573e+00
1.00011126e+00
1.00008462e+00
1.00005567e+00
1.00002430e+00
9.99990401e-01
9.99953869e-01
9.99914641e-01
9.99872681e-01
9.99828003e-01
9.99780680e-01
9.99730854e-01
9.99678748e-01
9.99624674e-01
9.99569039e-01
9.99512346e-01
9.99455196e-01
9.99398277e-01
9.99342358e-01
9.99288272e-01
9.99236901e-01
9.99189149e-01
9.99145927e-01
9.99108120e-01
9.99076571e-01
9.99052052e-01
9.99035248e-01
9.99026737e-01
9.99026976e-01
9.99036296e-01
9.99054891e-01
9.99082820e-01
9.99120008e-01
9.99166252e-01
9.99221227e-01
9.99284494e-01
9.99355513e-01
9.99433652e-01
9.99518196e-01
9.99608358e-01
9.99703291e-01
9.99802095e-01
9.99903828e-01
1.00000752e+00
1.00011216e+00
1.00021676e+00
1.00032029e+00
1.00042177e+00
1.00052022e+00
1.00061472e+00
1.00070437e+00
1.00078837e+00
1.00086599e+00
1.00093659e+00
1.00099965e+00
1.00105475e+00
1.00110161e+00
1.00114006e+00
1.00117008e+00
1.00119175e+00
1.00120530e+00
1.00121104e+00
1.00120942e+00
1.00120093e+00
1.00118617e+00
1.00116576e+00
1.00114039e+00
1.00111075e+00
1.00107752e+00
1.00104139e+00
1.00100300e+00
1.00096298e+00
1.00092189e+00
1.00088025e+00
1.00083849e+00
1.00079702e+00
1.00075616e+00
1.00071617e+00
1.00067726e+00
1.00063958e+00
1.00060323e+00
1.00056826e+00
1.00053469e+00
1.00050251e+00
1.00047167e+00
1.00044210e+00
1.00041375e+00
1.00038652e+00
1.00036033e+00
1.00033511e+00
1.00031077e+00
1.00028727e+00
1.00026456e+00
1.00024259e+00
1.00022134e+00
1.00020086e+00
1.00018114e+00
1.00016216e+00
1.00014404e+00
1.00012691e+00
1.00011068e+00
1.00009540e+00
1.00008145e+00
1.00006870e+00
1.00005702e+00
1.00004659e+00
1.00003751e+00
1.00003010e+00
1.00035233e+00
1.00034617e+00
1.00033967e+00
1.00033310e+00
1.00032659e+00
1.00032001e+00
1.00031295e+00
1.00030557e+00
1.00029782e+00
1.00028938e+00
1.00028024e+00
1.00027039e+00
1.00025962e+00
1.00024779e+00
1.00023486e+00
1.00022069e+00
1.00020515e+00
1.00018814e+00
1.00016954e+00
1.00014923e+00
1.00012707e+00
1.00010295e+00
1.00007673e+00
1.00004829e+00
1.00001750e+00
9.99984250e-01
9.99948451e-01
9.99910037e-01
9.99868981e-01
9.99825302e-01
9.99779079e-01
9.99730458e-01
9.99679665e-01
9.99627008e-01
9.99572888e-01
9.99517796e-01
9.99462313e-01
9.99407105e-01
9.99352912e-01
9.99300536e-01
9.99250823e-01
9.99204642e-01
9.99162868e-01
9.99126352e-01
9.99095904e-01
9.99072269e-01
9.99056108e-01
9.99047980e-01
9.99048330e-01
9.99057479e-01
9.99075620e-01
9.99102815e-01
9.99138994e-01
9.99183967e-01
9.99237422e-01
9.99298942e-01
9.99368007e-01
9.99444011e-01
9.99526268e-01
9.99614022e-01
9.99706457e-01
9.99802711e-01
9.99901878e-01
1.00000302e+00
1.00010518e+00
1.00020740e+00
1.00030869e+00
1.00040810e+00
1.00050469e+00
1.00059757e+00
1.00068588e+00
1.00076883e+00
1.00084572e+00
1.00091591e+00
1.00097890e+00
1.00103426e+00
1.00108170e+00
1.00112104e+00
1.00115223e+00
1.00117534e+00
1.00119055e+00
1.00119814e+00
1.00119850e+00
1.00119209e+00
1.00117946e+00
1.00116119e+00
1.00113791e+00
1.00111026e+00
1.00107891e+00
1.00104449e+00
1.00100763e+00
1.00096892e+00
1.00092892e+00
1.00088812e+00
1.00084698e+00
1.00080587e+00
1.00076515e+00
1.00072509e+00
1.00068591e+00
1.00064778e+00
1.00061083e+00
1.00057514e+00
1.00054074e+00
1.00050766e+00
1.00047587e+00
1.00044534e+00
1.00041603e+00
1.00038786e+00
1.00036079e+00
1.00033474e+00
1.00030967e+00
1.00028551e+00
1.00026223e+00
1.00023982e+00
1.00021824e+00
1.00019749e+00
1.00017762e+00
1.00015865e+00
1.00014054e+00
1.00012342e+00
1.00010741e+00
1.00009242e+00
1.00007855e+00
1.00006603e+00
1.00005466e+00
1.00004446e+00
1.00003559e+00
1.00002816e+00
1.00034796e+00
1.00034169e+00
1.00033507e+00
1.00032837e+00
1.00032154e+00
1.00031437e+00
1.00030684e+00
1.00029895e+00
1.00029049e+00
1.00028141e+00
1.00027175e+00
1.00026133e+00
1.00025004e+00
1.00023783e+00
1.00022461e+00
1.00021023e+00
1.00019460e+00
1.00017762e+00
1.00015915e+00
1.00013906e+00
1.00011724e+00
1.00009354e+00
1.00006782e+00
1.00003996e+00
1.00000983e+00
9.99977313e-01
9.99942329e-01
9.99904813e-01
9.99864744e-01
9.99822148e-01
9.99777109e-01
9.99729777e-01
9.99680379e-01
9.99629222e-01
9.99576697e-01
9.99523283e-01
9.99469542e-01
9.99416118e-01
9.99363721e-01
9.99313121e-01
9.99265128e-01
9.99220576e-01
9.99180301e-01
9.99145122e-01
9.99115815e-01
9.99093096e-01
9.99077604e-01
9.99069877e-01
9.99070349e-01
9.99079332e-01
9.99097016e-01
9.99123464e-01
9.99158617e-01
9.99202292e-01
9.99254195e-01
9.99313927e-01
9.99380992e-01
9.99454808e-01
9.99534716e-01
9.99619994e-01
9.99709860e-01
9.99803484e-01
9.99900000e-01
9.99998509e-01
1.00009809e+00
1.00019783e+00
1.00029677e+00
1.00039402e+00
1.00048866e+00
1.00057982e+00
1.00066670e+00
1.00074852e+00
1.00082459e+00
1.00089431e+00
1.00095717e+00
1.00101274e+00
1.00106074e+00
1.00110095e+00
1.00113332e+00
1.00115788e+00
1.00117477e+00
1.00118425e+00
1.00118665e+00
1.00118238e+00
1.00117195e+00
1.00115589e+00
1.00113478e+00
1.00110923e+00
1.00107984e+00
1.00104723e+00
1.00101199e+00
1.00097469e+00
1.00093586e+00
1.00089600e+00
1.00085554e+00
1.00081489e+00
1.00077438e+00
1.00073432e+00
1.00069494e+00
1.00065644e+00
1.00061895e+00
1.00058260e+00
1.00054745e+00
1.00051354e+00
1.00048088e+00
1.00044947e+00
1.00041927e+00
1.00039026e+00
1.00036239e+00
1.00033561e+00
1.00030989e+00
1.00028519e+00
1.00026146e+00
1.00023869e+00
1.00021689e+00
1.00019601e+00
1.00017608e+00
1.00015714e+00
1.00013922e+00
1.00012228e+00
1.00010644e+00
1.00009178e+00
1.00007825e+00
1.00006593e+00
1.00005487e+00
1.00004502e+00
1.00003637e+00
1.00002897e+00
1.00034106e+00
1.00033479e+00
1.00032815e+00
1.00032127e+00
1.00031408e+00
1.00030651e+00
1.00029854e+00
1.00029005e+00
1.00028099e+00
1.00027141e+00
1.00026120e+00
1.00025026e+00
1.00023857e+00
1.00022605e+00
1.00021258e+00
1.00019807e+00
1.00018244e+00
1.00016556e+00
1.00014730e+00
1.00012753e+00
1.00010611e+00
1.00008291e+00
1.00005778e+00
1.00003058e+00
1.00000120e+00
9.99969504e-01
9.99935421e-01
9.99898889e-01
9.99859892e-01
9.99818464e-01
9.99774692e-01
9.99728732e-01
9.99680811e-01
9.99631232e-01
9.99580378e-01
9.99528716e-01
9.99476790e-01
9.99425216e-01
9.99374678e-01
9.99325912e-01
9.99279694e-01
9.99236819e-01
9.99198088e-01
9.99164284e-01
9.99136151e-01
9.99114378e-01
9.99099577e-01
9.99092271e-01
9.99092877e-01
9.99101702e-01
9.99118932e-01
9.99144633e-01
9.99178752e-01
9.99221119e-01
9.99271455e-01
9.99329378e-01
9.99394417e-01
9.99466013e-01
9.99543537e-01
9.99626296e-01
9.99713541e-01
9.99804479e-01
9.99898280e-01
9.99994086e-01
1.00009102e+00
1.00018819e+00
1.00028470e+00
1.00037969e+00
1.00047227e+00
1.00056163e+00
1.00064698e+00
1.00072757e+00
1.00080275e+00
1.00087191e+00
1.00093456e+00
1.00099029e+00
1.00103878e+00
1.00107983e+00
1.00111335e+00
1.00113934e+00
1.00115792e+00
1.00116930e+00
1.00117377e+00
1.00117170e+00
1.00116352e+00
1.00114974e+00
1.00113089e+00
1.00110751e+00
1.00108018e+00
1.00104947e+00
1.00101595e+00
1.00098015e+00
1.00094260e+00
1.00090377e+00
1.00086411e+00
1.00082401e+00
1.00078383e+00
1.00074386e+00
1.00070438e+00
1.00066560e+00
1.00062769e+00
1.00059078e+00
1.00055497e+00
1.00052034e+00
1.00048692e+00
1.00045473e+00
1.00042376e+00
1.00039402e+00
1.00036547e+00
1.00033808e+00
1.00031183e+00
1.00028670e+00
1.00026264e+00
1.00023965e+00
1.00021771e+00
1.00019683e+00
1.00017698e+00
1.00015818e+00
1.00014048e+00
1.00012388e+00
1.00010836e+00
1.00009402e+00
1.00008089e+00
1.00006895e+00
1.00005822e+00
1.00004870e+00
1.00004037e+00
1.00003312e+00
1.00033135e+00
1.00032512e+00
1.00031847e+00
1.00031143e+00
1.00030397e+00
1.00029606e+00
1.00028762e+00
1.00027863e+00
1.00026912e+00
1.00025904e+00
1.00024834e+00
1.00023701e+00
1.00022500e+00
1.00021222e+00
1.00019860e+00
1.00018407e+00
1.00016851e+00
1.00015182e+00
1.00013385e+00
1.00011448e+00
1.00009357e+00
1.00007095e+00
1.00004650e+00
1.00002006e+00
9.99991502e-01
9.99960719e-01
9.99927624e-01
9.99892163e-01
9.99854325e-01
9.99814148e-01
9.99771728e-01
9.99727221e-01
9.99680855e-01
9.99632929e-01
9.99583821e-01
9.99533980e-01
9.99483932e-01
9.99434270e-01
9.99385648e-01
9.99338768e-01
9.99294371e-01
9.99253216e-01
9.99216068e-01
9.99183673e-01
9.99156745e-01
9.99135943e-01
9.99121857e-01
9.99114991e-01
9.99115749e-01
9.99124431e-01
9.99141219e-01
9.99166183e-01
9.99199277e-01
9.99240341e-01
9.99289112e-01
9.99345228e-01
9.99408235e-01
9.99477603e-01
9.99552728e-01
9.99632947e-01
9.99717544e-01
9.99805761e-01
9.99896805e-01
9.99989854e-01
1.00008407e+00
1.00017861e+00
1.00027262e+00
1.00036525e+00
1.00045570e+00
1.00054315e+00
1.00062687e+00
1.00070613e+00
1.00078031e+00
1.00084882e+00
1.00091117e+00
1.00096697e+00
1.00101588e+00
1.00105771e+00
1.00109233e+00
1.00111972e+00
1.00113998e+00
1.00115325e+00
1.00115980e+00
1.00115995e+00
1.00115408e+00
1.00114264e+00
1.00112610e+00
1.00110498e+00
1.00107980e+00
1.00105110e+00
1.00101940e+00
1.00098523e+00
1.00094907e+00
1.00091140e+00
1.00087266e+00
1.00083323e+00
1.00079350e+00
1.00075376e+00
1.00071431e+00
1.00067538e+00
1.00063717e+00
1.00059983e+00
1.00056351e+00
1.00052828e+00
1.00049423e+00
1.00046140e+00
1.00042980e+00
1.00039946e+00
1.00037036e+00
1.00034250e+00
1.00031586e+00
1.00029043e+00
1.00026618e+00
1.00024310e+00
1.00022116e+00
1.00020037e+00
1.00018073e+00
1.00016221e+00
1.00014482e+00
1.00012861e+00
1.00011354e+00
1.00009963e+00
1.00008693e+00
1.00007544e+00
1.00006513e+00
1.00005600e+00
1.00004801e+00
1.00004095e+00
1.00031851e+00
1.00031231e+00
1.00030569e+00
1.00029857e+00
1.00029090e+00
1.00028267e+00
1.00027385e+00
1.00026447e+00
1.00025454e+00
1.00024404e+00
1.00023298e+00
1.00022135e+00
1.00020909e+00
1.00019616e+00
1.00018251e+00
1.00016804e+00
1.00015266e+00
1.00013625e+00
1.00011867e+00
1.00009980e+00
1.00007948e+00
1.00005755e+00
1.00003385e+00
1.00000826e+00
9.99980623e-01
9.99950837e-01
9.99918817e-01
9.99884513e-01
9.99847919e-01
9.99809078e-01
9.99768090e-01
9.99725116e-01
9.99680381e-01
9.99634183e-01
9.99586888e-01
9.99538933e-01
9.99490825e-01
9.99443130e-01
9.99396474e-01
9.99351528e-01
9.99308994e-01
9.99269598e-01
9.99234067e-01
9.99203113e-01
9.99177418e-01
9.99157615e-01
9.99144269e-01
9.99137867e-01
9.99138801e-01
9.99147361e-01
9.99163731e-01
9.99187982e-01
9.99220073e-01
9.99259857e-01
9.99307085e-01
9.99361411e-01
9.99422404e-01
9.99489556e-01
9.99562290e-01
9.99639972e-01
9.99721915e-01
9.99807397e-01
9.99895658e-01
9.99985917e-01
1.00007737e+00
1.00016922e+00
1.00026065e+00
1.00035087e+00
1.00043908e+00
1.00052454e+00
1.00060652e+00
1.00068435e+00
1.00075742e+00
1.00082517e+00
1.00088712e+00
1.00094288e+00
1.00099213e+00
1.00103465e+00
1.00107030e+00
1.00109905e+00
1.00112093e+00
1.00113609e+00
1.00114471e+00
1.00114710e+00
1.00114356e+00
1.00113451e+00
1.00112036e+00
1.00110158e+00
1.00107865e+00
1.00105206e+00
1.00102231e+00
1.00098988e+00
1.00095525e+00
1.00091888e+00
1.00088120e+00
1.00084260e+00
1.00080346e+00
1.00076411e+00
1.00072485e+00
1.00068592e+00
1.00064757e+00
1.00060997e+00
1.00057328e+00
1.00053763e+00
1.00050310e+00
1.00046978e+00
1.00043771e+00
1.00040692e+00
1.00037743e+00
1.00034924e+00
1.00032236e+00
1.00029677e+00
1.00027245e+00
1.00024941e+00
1.00022761e+00
1.00020705e+00
1.00018770e+00
1.00016958e+00
1.00015264e+00
1.00013689e+00
1.00012234e+00
1.00010897e+00
1.00009677e+00
1.00008577e+00
1.00007593e+00
1.00006725e+00
1.00005964e+00
1.00005280e+00
1.00030221e+00
1.00029609e+00
1.00028954e+00
1.00028238e+00
1.00027456e+00
1.00026608e+00
1.00025698e+00
1.00024729e+00
1.00023703e+00
1.00022623e+00
1.00021492e+00
1.00020308e+00
1.00019069e+00
1.00017773e+00
1.00016414e+00
1.00014983e+00
1.00013473e+00
1.00011870e+00
1.00010162e+00
1.00008334e+00
1.00006370e+00
1.00004255e+00
1.00001971e+00
9.99995050e-01
9.99968424e-01
9.99939723e-01
9.99908864e-01
9.99875802e-01
9.99840535e-01
9.99803112e-01
9.99763636e-01
9.99722270e-01
9.99679241e-01
9.99634839e-01
9.99589423e-01
9.99543416e-01
9.99497303e-01
9.99451628e-01
9.99406986e-01
9.99364015e-01
9.99323385e-01
9.99285783e-01
9.99251902e-01
9.99222420e-01
9.99197988e-01
9.99179213e-01
9.99166636e-01
9.99160728e-01
9.99161869e-01
9.99170342e-01
9.99186329e-01
9.99209902e-01
9.99241029e-01
9.99279572e-01
9.99325296e-01
9.99377872e-01
9.99436888e-01
9.99501858e-01
9.99572230e-01
9.99647395e-01
9.99726700e-01
9.99809450e-01
9.99894923e-01
9.99982373e-01
1.00007104e+00