# vtk DataFile Version 2.0
LBM Flow Field - Timestep 1570
ASCII
DATASET STRUCTURED_POINTS
DIMENSIONS 128 128 1
ORIGIN 0.0 0.0 0.0
SPACING 1.0 1.0 1.0
POINT_DATA 16384
SCALARS density double 1
LOOKUP_TABLE default
9.94989952e-01
9.95022036e-01
9.95062061e-01
9.95088665e-01
9.95125362e-01
9.95172274e-01
9.95224683e-01
9.95282270e-01
9.95345969e-01
9.95414807e-01
9.95488015e-01
9.95565191e-01
9.95645920e-01
9.95729715e-01
9.95816189e-01
9.95905009e-01
9.95995892e-01
9.96088613e-01
9.96182997e-01
9.96278910e-01
9.96376259e-01
9.96474981e-01
9.96575029e-01
9.96676368e-01
9.96778962e-01
9.96882771e-01
9.96987736e-01
9.97093783e-01
9.97200810e-01
9.97308692e-01
9.97417277e-01
9.97526383e-01
9.97635807e-01
9.97745321e-01
9.97854683e-01
9.97963633e-01
9.98071906e-01
9.98179232e-01
9.98285346e-01
9.98389989e-01
9.98492918e-01
9.98593906e-01
9.98692753e-01
9.98789285e-01
9.98883358e-01
9.98974863e-01
9.99063728e-01
9.99149917e-01
9.99233430e-01
9.99314306e-01
9.99392618e-01
9.99468475e-01
9.99542014e-01
9.99613402e-01
9.99682831e-01
9.99750512e-01
9.99816673e-01
9.99881555e-01
9.99945410e-01
1.00000849e+00
1.00007106e+00
1.00013336e+00
1.00019566e+00
1.00025820e+00
1.00032122e+00
1.00038494e+00
1.00044958e+00
1.00051535e+00
1.00058245e+00
1.00065105e+00
1.00072132e+00
1.00079341e+00
1.00086746e+00
1.00094359e+00
1.00102188e+00
1.00110243e+00
1.00118530e+00
1.00127051e+00
1.00135808e+00
1.00144800e+00
1.00154023e+00
1.00163470e+00
1.00173132e+00
1.00182998e+00
1.00193053e+00
1.00203283e+00
1.00213668e+00
1.00224191e+00
1.00234830e+00
1.00245565e+00
1.00256375e+00
1.00267238e+00
1.00278136e+00
1.00289048e+00
1.00299956e+00
1.00310845e+00
1.00321698e+00
1.00332502e+00
1.00343246e+00
1.00353919e+00
1.00364511e+00
1.00375013e+00
1.00385417e+00
1.00395714e+00
1.00405896e+00
1.00415952e+00
1.00425871e+00
1.00435640e+00
1.00445243e+00
1.00454665e+00
1.00463884e+00
1.00472880e+00
1.00481626e+00
1.00490097e+00
1.00498265e+00
1.00506100e+00
1.00513571e+00
1.00520640e+00
1.00527285e+00
1.00533491e+00
1.00539194e+00
1.00544305e+00
1.00549003e+00
1.00553279e+00
1.00556528e+00
1.00558836e+00
1.00563311e+00
1.00567063e+00
9.95025444e-01
9.95044076e-01
9.95077484e-01
9.95106959e-01
9.95145204e-01
9.95190239e-01
9.95242033e-01
9.95299421e-01
9.95362477e-01
9.95430466e-01
9.95503006e-01
9.95579503e-01
9.95659521e-01
9.95742611e-01
9.95828411e-01
9.95916572e-01
9.96006820e-01
9.96098927e-01
9.96192719e-01
9.96288061e-01
9.96384857e-01
9.96483038e-01
9.96582555e-01
9.96683369e-01
9.96785439e-01
9.96888721e-01
9.96993156e-01
9.97098667e-01
9.97205153e-01
9.97312489e-01
9.97420525e-01
9.97529081e-01
9.97637958e-01
9.97746933e-01
9.97855767e-01
9.97964206e-01
9.98071988e-01
9.98178851e-01
9.98284531e-01
9.98388775e-01
9.98491343e-01
9.98592011e-01
9.98690581e-01
9.98786879e-01
9.98880765e-01
9.98972127e-01
9.99060893e-01
9.99147025e-01
9.99230522e-01
9.99311418e-01
9.99389786e-01
9.99465728e-01
9.99539381e-01
9.99610906e-01
9.99680490e-01
9.99748343e-01
9.99814689e-01
9.99879766e-01
9.99943822e-01
1.00000711e+00
1.00006988e+00
1.00013240e+00
1.00019491e+00
1.00025765e+00
1.00032087e+00
1.00038479e+00
1.00044963e+00
1.00051560e+00
1.00058288e+00
1.00065166e+00
1.00072210e+00
1.00079434e+00
1.00086853e+00
1.00094478e+00
1.00102319e+00
1.00110382e+00
1.00118674e+00
1.00127198e+00
1.00135955e+00
1.00144943e+00
1.00154158e+00
1.00163594e+00
1.00173240e+00
1.00183087e+00
1.00193119e+00
1.00203321e+00
1.00213676e+00
1.00224164e+00
1.00234766e+00
1.00245462e+00
1.00256230e+00
1.00267051e+00
1.00277904e+00
1.00288770e+00
1.00299633e+00
1.00310475e+00
1.00321281e+00
1.00332039e+00
1.00342736e+00
1.00353362e+00
1.00363906e+00
1.00374360e+00
1.00384715e+00
1.00394962e+00
1.00405091e+00
1.00415092e+00
1.00424955e+00
1.00434664e+00
1.00444207e+00
1.00453564e+00
1.00462717e+00
1.00471643e+00
1.00480319e+00
1.00488718e+00
1.00496813e+00
1.00504573e+00
1.00511970e+00
1.00518972e+00
1.00525552e+00
1.00531668e+00
1.00537311e+00
1.00542419e+00
1.00547054e+00
1.00551094e+00
1.00554570e+00
1.00557254e+00
1.00560851e+00
1.00562851e+00
9.95069913e-01
9.95081558e-01
9.95097786e-01
9.95132093e-01
9.95172285e-01
9.95215177e-01
9.95265713e-01
9.95322943e-01
9.95385269e-01
9.95452389e-01
9.95524131e-01
9.95599839e-01
9.95679027e-01
9.95761294e-01
9.95846264e-01
9.95933600e-01
9.96023033e-01
9.96114335e-01
9.96207328e-01
9.96301883e-01
9.96397901e-01
9.96495311e-01
9.96594060e-01
9.96694109e-01
9.96795415e-01
9.96897932e-01
9.97001601e-01
9.97106345e-01
9.97212063e-01
9.97318633e-01
9.97425906e-01
9.97533708e-01
9.97641842e-01
9.97750090e-01
9.97858218e-01
9.97965977e-01
9.98073111e-01
9.98179360e-01
9.98284467e-01
9.98388183e-01
9.98490269e-01
9.98590507e-01
9.98688697e-01
9.98784669e-01
9.98878279e-01
9.98969419e-01
9.99058012e-01
9.99144018e-01
9.99227434e-01
9.99308291e-01
9.99386656e-01
9.99462630e-01
9.99536342e-01
9.99607952e-01
9.99677643e-01
9.99745618e-01
9.99812100e-01
9.99877323e-01
9.99941533e-01
1.00000498e+00
1.00006792e+00
1.00013060e+00
1.00019327e+00
1.00025618e+00
1.00031956e+00
1.00038364e+00
1.00044863e+00
1.00051475e+00
1.00058218e+00
1.00065110e+00
1.00072167e+00
1.00079403e+00
1.00086833e+00
1.00094467e+00
1.00102314e+00
1.00110382e+00
1.00118675e+00
1.00127198e+00
1.00135949e+00
1.00144928e+00
1.00154129e+00
1.00163546e+00
1.00173170e+00
1.00182989e+00
1.00192990e+00
1.00203156e+00
1.00213470e+00
1.00223913e+00
1.00234467e+00
1.00245112e+00
1.00255826e+00
1.00266590e+00
1.00277385e+00
1.00288192e+00
1.00298995e+00
1.00309775e+00
1.00320520e+00
1.00331216e+00
1.00341851e+00
1.00352413e+00
1.00362894e+00
1.00373283e+00
1.00383572e+00
1.00393751e+00
1.00403811e+00
1.00413742e+00
1.00423531e+00
1.00433165e+00
1.00442629e+00
1.00451905e+00
1.00460975e+00
1.00469816e+00
1.00478405e+00
1.00486716e+00
1.00494721e+00
1.00502392e+00
1.00509699e+00
1.00516616e+00
1.00523110e+00
1.00529128e+00
1.00534691e+00
1.00539800e+00
1.00544275e+00
1.00548031e+00
1.00551781e+00
1.00555118e+00
1.00556461e+00
1.00557557e+00
9.95099584e-01
9.95112954e-01
9.95134449e-01
9.95166163e-01
9.95202084e-01
9.95245550e-01
9.95296131e-01
9.95352138e-01
9.95413450e-01
9.95479882e-01
9.95550755e-01
9.95625522e-01
9.95703789e-01
9.95785136e-01
9.95869169e-01
9.95955567e-01
9.96044059e-01
9.96134423e-01
9.96226481e-01
9.96320100e-01
9.96415182e-01
9.96511656e-01
9.96609468e-01
9.96708574e-01
9.96808933e-01
9.96910499e-01
9.97013212e-01
9.97116996e-01
9.97221752e-01
9.97327362e-01
9.97433679e-01
9.97540535e-01
9.97647736e-01
9.97755072e-01
9.97862312e-01
9.97969215e-01
9.98075529e-01
9.98181002e-01
9.98285380e-01
9.98388418e-01
9.98489882e-01
9.98589556e-01
9.98687243e-01
9.98782772e-01
9.98876003e-01
9.98966822e-01
9.99055154e-01
9.99140955e-01
9.99224218e-01
9.99304971e-01
9.99383276e-01
9.99459229e-01
9.99532954e-01
9.99604606e-01
9.99674362e-01
9.99742424e-01
9.99809007e-01
9.99874342e-01
9.99938672e-01
1.00000224e+00
1.00006531e+00
1.00012812e+00
1.00019092e+00
1.00025395e+00
1.00031745e+00
1.00038165e+00
1.00044676e+00
1.00051299e+00
1.00058051e+00
1.00064952e+00
1.00072017e+00
1.00079260e+00
1.00086695e+00
1.00094331e+00
1.00102178e+00
1.00110244e+00
1.00118531e+00
1.00127044e+00
1.00135782e+00
1.00144742e+00
1.00153921e+00
1.00163310e+00
1.00172901e+00
1.00182682e+00
1.00192639e+00
1.00202756e+00
1.00213017e+00
1.00223404e+00
1.00233897e+00
1.00244477e+00
1.00255124e+00
1.00265819e+00
1.00276542e+00
1.00287277e+00
1.00298005e+00
1.00308712e+00
1.00319382e+00
1.00330002e+00
1.00340562e+00
1.00351048e+00
1.00361452e+00
1.00371765e+00
1.00381975e+00
1.00392075e+00
1.00402055e+00
1.00411902e+00
1.00421607e+00
1.00431154e+00
1.00440529e+00
1.00449714e+00
1.00458690e+00
1.00467436e+00
1.00475927e+00
1.00484140e+00
1.00492047e+00
1.00499620e+00
1.00506829e+00
1.00513643e+00
1.00520044e+00
1.00525993e+00
1.00531437e+00
1.00536396e+00
1.00540894e+00
1.00544745e+00
1.00547931e+00
1.00550916e+00
1.00552933e+00
1.00554282e+00
9.95137367e-01
9.95152625e-01
9.95175909e-01
9.95203172e-01
9.95238459e-01
9.95282681e-01
9.95331921e-01
9.95386595e-01
9.95447202e-01
9.95512763e-01
9.95582560e-01
9.95656301e-01
9.95733552e-01
9.95813845e-01
9.95896816e-01
9.95982152e-01
9.96069575e-01
9.96158867e-01
9.96249853e-01
9.96342397e-01
9.96436398e-01
9.96531785e-01
9.96628503e-01
9.96726507e-01
9.96825754e-01
9.96926198e-01
9.97027780e-01
9.97130424e-01
9.97234038e-01
9.97338503e-01
9.97443678e-01
9.97549401e-01
9.97655484e-01
9.97761723e-01
9.97867894e-01
9.97973764e-01
9.98079087e-01
9.98183616e-01
9.98287106e-01
9.98389315e-01
9.98490016e-01
9.98588993e-01
9.98686055e-01
9.98781030e-01
9.98873778e-01
9.98964185e-01
9.99052174e-01
9.99137697e-01
9.99220743e-01
9.99301336e-01
9.99379533e-01
9.99455422e-01
9.99529124e-01
9.99600787e-01
9.99670583e-01
9.99738705e-01
9.99805367e-01
9.99870794e-01
9.99935223e-01
9.99998899e-01
1.00006207e+00
1.00012499e+00
1.00018789e+00
1.00025102e+00
1.00031462e+00
1.00037891e+00
1.00044411e+00
1.00051041e+00
1.00057800e+00
1.00064706e+00
1.00071775e+00
1.00079021e+00
1.00086456e+00
1.00094090e+00
1.00101932e+00
1.00109989e+00
1.00118265e+00
1.00126761e+00
1.00135478e+00
1.00144412e+00
1.00153559e+00
1.00162912e+00
1.00172459e+00
1.00182191e+00
1.00192094e+00
1.00202151e+00
1.00212347e+00
1.00222663e+00
1.00233082e+00
1.00243584e+00
1.00254150e+00
1.00264762e+00
1.00275400e+00
1.00286049e+00
1.00296690e+00
1.00307309e+00
1.00317891e+00
1.00328424e+00
1.00338896e+00
1.00349294e+00
1.00359611e+00
1.00369834e+00
1.00379956e+00
1.00389966e+00
1.00399854e+00
1.00409608e+00
1.00419218e+00
1.00428668e+00
1.00437943e+00
1.00447027e+00
1.00455900e+00
1.00464540e+00
1.00472924e+00
1.00481029e+00
1.00488826e+00
1.00496290e+00
1.00503393e+00
1.00510099e+00
1.00516382e+00
1.00522240e+00
1.00527614e+00
1.00532413e+00
1.00536747e+00
1.00540714e+00
1.00543817e+00
1.00546219e+00
1.00548491e+00
1.00550067e+00
9.95183793e-01
9.95197366e-01
9.95218618e-01
9.95246562e-01
9.95282575e-01
9.95324531e-01
9.95372361e-01
9.95426712e-01
9.95486378e-01
9.95550641e-01
9.95619338e-01
9.95692012e-01
9.95768101e-01
9.95847208e-01
9.95928994e-01
9.96013135e-01
9.96099355e-01
9.96187436e-01
9.96277202e-01
9.96368519e-01
9.96461287e-01
9.96555429e-01
9.96650890e-01
9.96747625e-01
9.96845591e-01
9.96944739e-01
9.97045014e-01
9.97146343e-01
9.97248634e-01
9.97351774e-01
9.97455628e-01
9.97560039e-01
9.97664828e-01
9.97769796e-01
9.97874728e-01
9.97979398e-01
9.98083569e-01
9.98187002e-01
9.98289456e-01
9.98390699e-01
9.98490505e-01
9.98588666e-01
9.98684989e-01
9.98779309e-01
9.98871482e-01
9.98961395e-01
9.99048967e-01
9.99134147e-01
9.99216922e-01
9.99297307e-01
9.99375355e-01
9.99451148e-01
9.99524800e-01
9.99596450e-01
9.99666265e-01
9.99734433e-01
9.99801160e-01
9.99866666e-01
9.99931185e-01
9.99994956e-01
1.00005822e+00
1.00012124e+00
1.00018423e+00
1.00024746e+00
1.00031114e+00
1.00037551e+00
1.00044077e+00
1.00050713e+00
1.00057477e+00
1.00064386e+00
1.00071456e+00
1.00078702e+00
1.00086134e+00
1.00093763e+00
1.00101596e+00
1.00109640e+00
1.00117899e+00
1.00126374e+00
1.00135063e+00
1.00143965e+00
1.00153073e+00
1.00162380e+00
1.00171876e+00
1.00181549e+00
1.00191387e+00
1.00201373e+00
1.00211492e+00
1.00221727e+00
1.00232059e+00
1.00242471e+00
1.00252943e+00
1.00263458e+00
1.00273999e+00
1.00284547e+00
1.00295088e+00
1.00305607e+00
1.00316088e+00
1.00326521e+00
1.00336892e+00
1.00347191e+00
1.00357407e+00
1.00367531e+00
1.00377552e+00
1.00387460e+00
1.00397245e+00
1.00406896e+00
1.00416399e+00
1.00425741e+00
1.00434907e+00
1.00443878e+00
1.00452637e+00
1.00461161e+00
1.00469428e+00
1.00477414e+00
1.00485093e+00
1.00492435e+00
1.00499418e+00
1.00506015e+00
1.00512182e+00
1.00517893e+00
1.00523168e+00
1.00527949e+00
1.00532113e+00
1.00535786e+00
1.00538998e+00
1.00541498e+00
1.00543488e+00
1.00544822e+00
9.95234838e-01
9.95247870e-01
9.95267822e-01
9.95295852e-01
9.95330529e-01
9.95371086e-01
9.95418585e-01
9.95471921e-01
9.95530144e-01
9.95593287e-01
9.95660894e-01
9.95732292e-01
9.95807077e-01
9.95884905e-01
9.95965388e-01
9.96048198e-01
9.96133079e-01
9.96219811e-01
9.96308216e-01
9.96398161e-01
9.96489544e-01
9.96582287e-01
9.96676334e-01
9.96771638e-01
9.96868157e-01
9.96965843e-01
9.97064642e-01
9.97164483e-01
9.97265279e-01
9.97366922e-01
9.97469283e-01
9.97572212e-01
9.97675537e-01
9.97779069e-01
9.97882601e-01
9.97985916e-01
9.98088785e-01
9.98190977e-01
9.98292261e-01
9.98392408e-01
9.98491200e-01
9.98588433e-01
9.98683918e-01
9.98777489e-01
9.98869005e-01
9.98958351e-01
9.99045443e-01
9.99130227e-01
9.99212684e-01
9.99292824e-01
9.99370693e-01
9.99446365e-01
9.99519947e-01
9.99591572e-01
9.99661398e-01
9.99729606e-01
9.99796395e-01
9.99861980e-01
9.99926589e-01
9.99990456e-01
1.00005382e+00
1.00011693e+00
1.00018003e+00
1.00024334e+00
1.00030711e+00
1.00037155e+00
1.00043687e+00
1.00050328e+00
1.00057096e+00
1.00064008e+00
1.00071078e+00
1.00078322e+00
1.00085749e+00
1.00093370e+00
1.00101192e+00
1.00109220e+00
1.00117458e+00
1.00125906e+00
1.00134564e+00
1.00143427e+00
1.00152489e+00
1.00161743e+00
1.00171179e+00
1.00180786e+00
1.00190549e+00
1.00200455e+00
1.00210487e+00
1.00220628e+00
1.00230863e+00
1.00241172e+00
1.00251538e+00
1.00261944e+00
1.00272374e+00
1.00282810e+00
1.00293238e+00
1.00303643e+00
1.00314012e+00
1.00324331e+00
1.00334590e+00
1.00344777e+00
1.00354881e+00
1.00364893e+00
1.00374801e+00
1.00384597e+00
1.00394268e+00
1.00403804e+00
1.00413190e+00
1.00422414e+00
1.00431459e+00
1.00440308e+00
1.00448942e+00
1.00457341e+00
1.00465480e+00
1.00473337e+00
1.00480888e+00
1.00488103e+00
1.00494953e+00
1.00501418e+00
1.00507477e+00
1.00513072e+00
1.00518182e+00
1.00522852e+00
1.00526995e+00
1.00530497e+00
1.00533543e+00
1.00536062e+00
1.00537874e+00
1.00539128e+00
9.95289803e-01
9.95302541e-01
9.95322507e-01
9.95349381e-01
9.95382737e-01
9.95422967e-01
9.95469453e-01
9.95521235e-01
9.95578365e-01
9.95640422e-01
9.95706652e-01
9.95776656e-01
9.95850096e-01
9.95926530e-01
9.96005575e-01
9.96086938e-01
9.96170357e-01
9.96255611e-01
9.96342523e-01
9.96430959e-01
9.96520815e-01
9.96612015e-01
9.96704500e-01
9.96798223e-01
9.96893140e-01
9.96989208e-01
9.97086373e-01
9.97184567e-01
9.97283708e-01
9.97383694e-01
9.97484403e-01
9.97585692e-01
9.97687398e-01
9.97789342e-01
9.97891325e-01
9.97993141e-01
9.98094570e-01
9.98195390e-01
9.98295378e-01
9.98394313e-01
9.98491983e-01
9.98588187e-01
9.98682742e-01
9.98775484e-01
9.98866270e-01
9.98954985e-01
9.99041542e-01
9.99125884e-01
9.99207985e-01
9.99287850e-01
9.99365517e-01
9.99441054e-01
9.99514557e-01
9.99586152e-01
9.99655989e-01
9.99724240e-01
9.99791098e-01
9.99856772e-01
9.99921481e-01
9.99985457e-01
1.00004894e+00
1.00011216e+00
1.00017536e+00
1.00023877e+00
1.00030263e+00
1.00036715e+00
1.00043255e+00
1.00049902e+00
1.00056674e+00
1.00063588e+00
1.00070659e+00
1.00077899e+00
1.00085321e+00
1.00092932e+00
1.00100741e+00
1.00108751e+00
1.00116965e+00
1.00125383e+00
1.00134004e+00
1.00142823e+00
1.00151834e+00
1.00161029e+00
1.00170399e+00
1.00179930e+00
1.00189611e+00
1.00199426e+00
1.00209361e+00
1.00219400e+00
1.00229525e+00
1.00239721e+00
1.00249969e+00
1.00260255e+00
1.00270562e+00
1.00280874e+00
1.00291176e+00
1.00301456e+00
1.00311699e+00
1.00321893e+00
1.00332027e+00
1.00342090e+00
1.00352071e+00
1.00361960e+00
1.00371745e+00
1.00381417e+00
1.00390964e+00
1.00400374e+00
1.00409635e+00
1.00418730e+00
1.00427646e+00
1.00436363e+00
1.00444864e+00
1.00453128e+00
1.00461132e+00
1.00468852e+00
1.00476264e+00
1.00483345e+00
1.00490063e+00
1.00496387e+00
1.00502302e+00
1.00507792e+00
1.00512791e+00
1.00517282e+00
1.00521314e+00
1.00524795e+00
1.00527677e+00
1.00530046e+00
1.00531863e+00
1.00533077e+00
9.95349627e-01
9.95361834e-01
9.95381098e-01
9.95406929e-01
9.95439618e-01
9.95478924e-01
9.95523962e-01
9.95574644e-01
9.95630683e-01
9.95691289e-01
9.95756064e-01
9.95824691e-01
9.95896669e-01
9.95971569e-01
9.96049078e-01
9.96128891e-01
9.96210732e-01
9.96294388e-01
9.96379685e-01
9.96466487e-01
9.96554689e-01
9.96644214e-01
9.96735002e-01
9.96827006e-01
9.96920184e-01
9.97014492e-01
9.97109878e-01
9.97206281e-01
9.97303622e-01
9.97401806e-01
9.97500718e-01
9.97600225e-01
9.97700172e-01
9.97800389e-01
9.97900690e-01
9.98000877e-01
9.98100742e-01
9.98200072e-01
9.98298652e-01
9.98396270e-01
9.98492721e-01
9.98587809e-01
9.98681354e-01
9.98773193e-01
9.98863187e-01
9.98951217e-01
9.99037195e-01
9.99121058e-01
9.99202775e-01
9.99282345e-01
9.99359796e-01
9.99435190e-01
9.99508613e-01
9.99580183e-01
9.99650040e-01
9.99718349e-01
9.99785293e-01
9.99851074e-01
9.99915906e-01
9.99980014e-01
1.00004363e+00
1.00010698e+00
1.00017032e+00
1.00023386e+00
1.00029783e+00
1.00036246e+00
1.00042795e+00
1.00049449e+00
1.00056227e+00
1.00063144e+00
1.00070216e+00
1.00077454e+00
1.00084870e+00
1.00092472e+00
1.00100265e+00
1.00108255e+00
1.00116443e+00
1.00124829e+00
1.00133410e+00
1.00142181e+00
1.00151136e+00
1.00160267e+00
1.00169563e+00
1.00179013e+00
1.00188603e+00
1.00198321e+00
1.00208150e+00
1.00218076e+00
1.00228082e+00
1.00238153e+00
1.00248274e+00
1.00258428e+00
1.00268600e+00
1.00278776e+00
1.00288942e+00
1.00299085e+00
1.00309191e+00
1.00319249e+00
1.00329247e+00
1.00339175e+00
1.00349022e+00
1.00358777e+00
1.00368429e+00
1.00377968e+00
1.00387381e+00
1.00396657e+00
1.00405782e+00
1.00414741e+00
1.00423519e+00
1.00432098e+00
1.00440458e+00
1.00448580e+00
1.00456441e+00
1.00464019e+00
1.00471288e+00
1.00478222e+00
1.00484800e+00
1.00490993e+00
1.00496762e+00
1.00502102e+00
1.00506996e+00
1.00511376e+00
1.00515243e+00
1.00518625e+00
1.00521436e+00
1.00523677e+00
1.00525405e+00
1.00526544e+00
9.95413242e-01
9.95424627e-01
9.95443094e-01
9.95468292e-01
9.95500130e-01
9.95538121e-01
9.95582030e-01
9.95631620e-01
9.95686202e-01
9.95745334e-01
9.95808716e-01
9.95875826e-01
9.95946200e-01
9.96019503e-01
9.96095392e-01
9.96173543e-01
9.96253701e-01
9.96335654e-01
9.96419227e-01
9.96504282e-01
9.96590715e-01
9.96678447e-01
9.96767418e-01
9.96857581e-01
9.96948893e-01
9.97041314e-01
9.97134795e-01
9.97229277e-01
9.97324689e-01
9.97420942e-01
9.97517929e-01
9.97615526e-01
9.97713589e-01
9.97811959e-01
9.97910459e-01
9.98008904e-01
9.98107096e-01
9.98204832e-01
9.98301908e-01
9.98398119e-01
9.98493267e-01
9.98587162e-01
9.98679629e-01
9.98770508e-01
9.98859657e-01
9.98946960e-01
9.99032322e-01
9.99115680e-01
9.99196994e-01
9.99276256e-01
9.99353489e-01
9.99428742e-01
9.99502094e-01
9.99573653e-01
9.99643550e-01
9.99711940e-01
9.99778998e-01
9.99844917e-01
9.99909905e-01
9.99974179e-01
1.00003796e+00
1.00010149e+00
1.00016499e+00
1.00022870e+00
1.00029282e+00
1.00035759e+00
1.00042320e+00
1.00048985e+00
1.00055771e+00
1.00062694e+00
1.00069768e+00
1.00077006e+00
1.00084417e+00
1.00092010e+00
1.00099789e+00
1.00107758e+00
1.00115919e+00
1.00124270e+00
1.00132809e+00
1.00141529e+00
1.00150424e+00
1.00159486e+00
1.00168704e+00
1.00178066e+00
1.00187559e+00
1.00197171e+00
1.00206887e+00
1.00216691e+00
1.00226570e+00
1.00236508e+00
1.00246491e+00
1.00256503e+00
1.00266531e+00
1.00276560e+00
1.00286579e+00
1.00296573e+00
1.00306532e+00
1.00316443e+00
1.00326296e+00
1.00336079e+00
1.00345781e+00
1.00355393e+00
1.00364903e+00
1.00374300e+00
1.00383571e+00
1.00392705e+00
1.00401687e+00
1.00410503e+00
1.00419136e+00
1.00427570e+00
1.00435784e+00
1.00443759e+00
1.00451472e+00
1.00458901e+00
1.00466024e+00
1.00472811e+00
1.00479239e+00
1.00485288e+00
1.00490928e+00
1.00496122e+00
1.00500867e+00
1.00505144e+00
1.00508896e+00
1.00512129e+00
1.00514849e+00
1.00517020e+00
1.00518646e+00
1.00519673e+00
9.95479825e-01
9.95490562e-01
9.95508273e-01
9.95532638e-01
9.95563390e-01
9.95600270e-01
9.95643080e-01
9.95691272e-01
9.95744380e-01
9.95802111e-01
9.95863955e-01
9.95929417e-01
9.95998151e-01
9.96069787e-01
9.96143950e-01
9.96220349e-01
9.96298735e-01
9.96378892e-01
9.96460642e-01
9.96543851e-01
9.96628412e-01
9.96714247e-01
9.96801295e-01
9.96889508e-01
9.96978846e-01
9.97069268e-01
9.97160731e-01
9.97253180e-01
9.97346550e-01
9.97440759e-01
9.97535710e-01
9.97631287e-01
9.97727359e-01
9.97823775e-01
9.97920374e-01
9.98016978e-01
9.98113404e-01
9.98209459e-01
9.98304947e-01
9.98399675e-01
9.98493450e-01
9.98586091e-01
9.98677425e-01
9.98767295e-01
9.98855560e-01
9.98942103e-01
9.99026828e-01
9.99109663e-01
9.99190566e-01
9.99269521e-01
9.99346540e-01
9.99421665e-01
9.99494966e-01
9.99566539e-01
9.99636506e-01
9.99705012e-01
9.99772223e-01
9.99838323e-01
9.99903511e-01
9.99967998e-01
1.00003200e+00
1.00009575e+00
1.00015947e+00
1.00022339e+00
1.00028771e+00
1.00035267e+00
1.00041845e+00
1.00048524e+00
1.00055322e+00
1.00062255e+00
1.00069335e+00
1.00076575e+00
1.00083984e+00
1.00091569e+00
1.00099335e+00
1.00107285e+00
1.00115418e+00
1.00123734e+00
1.00132229e+00
1.00140896e+00
1.00149729e+00
1.00158718e+00
1.00167853e+00
1.00177122e+00
1.00186513e+00
1.00196013e+00
1.00205608e+00
1.00215285e+00
1.00225028e+00
1.00234824e+00
1.00244660e+00
1.00254521e+00
1.00264395e+00
1.00274269e+00
1.00284130e+00
1.00293968e+00
1.00303769e+00
1.00313524e+00
1.00323221e+00
1.00332849e+00
1.00342399e+00
1.00351859e+00
1.00361219e+00
1.00370465e+00
1.00379588e+00
1.00388573e+00
1.00397406e+00
1.00406073e+00
1.00414557e+00
1.00422840e+00
1.00430904e+00
1.00438728e+00
1.00446290e+00
1.00453568e+00
1.00460538e+00
1.00467179e+00
1.00473459e+00
1.00479356e+00
1.00484854e+00
1.00489921e+00
1.00494522e+00
1.00498659e+00
1.00502307e+00
1.00505426e+00
1.00508026e+00
1.00510104e+00
1.00511638e+00
1.00512580e+00
9.95548754e-01
9.95558799e-01
9.95575790e-01
9.95599235e-01
9.95628949e-01
9.95664745e-01
9.95706247e-01
9.95753013e-01
9.95804721e-01
9.95860916e-01
9.95921102e-01
9.95984908e-01
9.96051946e-01
9.96121810e-01
9.96194173e-01
9.96268752e-01
9.96345287e-01
9.96423561e-01
9.96503406e-01
9.96584682e-01
9.96667285e-01
9.96751133e-01
9.96836165e-01
9.96922336e-01
9.97009604e-01
9.97097933e-01
9.97187282e-01
9.97277601e-01
9.97368833e-01
9.97460902e-01
9.97553722e-01
9.97647186e-01
9.97741175e-01
9.97835550e-01
9.97930161e-01
9.98024844e-01
9.98119426e-01
9.98213727e-01
9.98307561e-01
9.98400744e-01
9.98493093e-01
9.98584430e-01
9.98674589e-01
9.98763415e-01
9.98850769e-01
9.98936532e-01
9.99020605e-01
9.99102914e-01
9.99183407e-01
9.99262063e-01
9.99338886e-01
9.99413907e-01
9.99487186e-01
9.99558809e-01
9.99628887e-01
9.99697555e-01
9.99764969e-01
9.99831304e-01
9.99896750e-01
9.99961512e-01
1.00002580e+00
1.00008983e+00
1.00015384e+00
1.00021802e+00
1.00028261e+00
1.00034781e+00
1.00041382e+00
1.00048082e+00
1.00054898e+00
1.00061845e+00
1.00068936e+00
1.00076182e+00
1.00083592e+00
1.00091173e+00
1.00098928e+00
1.00106859e+00
1.00114966e+00
1.00123248e+00
1.00131698e+00
1.00140311e+00
1.00149079e+00
1.00157993e+00
1.00167043e+00
1.00176215e+00
1.00185500e+00
1.00194883e+00
1.00204352e+00
1.00213893e+00
1.00223494e+00
1.00233141e+00
1.00242823e+00
1.00252525e+00
1.00262237e+00
1.00271946e+00
1.00281642e+00
1.00291313e+00
1.00300948e+00
1.00310537e+00
1.00320071e+00
1.00329537e+00
1.00338926e+00
1.00348227e+00
1.00357429e+00
1.00366520e+00
1.00375487e+00
1.00384318e+00
1.00392998e+00
1.00401511e+00
1.00409842e+00
1.00417972e+00
1.00425883e+00
1.00433553e+00
1.00440963e+00
1.00448089e+00
1.00454907e+00
1.00461394e+00
1.00467529e+00
1.00473282e+00
1.00478630e+00
1.00483558e+00
1.00488035e+00
1.00492036e+00
1.00495555e+00
1.00498570e+00
1.00501063e+00
1.00503039e+00
1.00504489e+00
1.00505344e+00
9.95619434e-01
9.95628761e-01
9.95644949e-01
9.95667469e-01
9.95696156e-01
9.95730755e-01
9.95770909e-01
9.95816291e-01
9.95866502e-01
9.95921064e-01
9.95979591e-01
9.96041692e-01
9.96106941e-01
9.96174977e-01
9.96245490e-01
9.96318179e-01
9.96392791e-01
9.96469117e-01
9.96546985e-01
9.96626258e-01
9.96706828e-01
9.96788614e-01
9.96871555e-01
9.96955605e-01
9.97040726e-01
9.97126882e-01
9.97214036e-01
9.97302146e-01
9.97391159e-01
9.97481010e-01
9.97571621e-01
9.97662896e-01
9.97754727e-01
9.97846989e-01
9.97939543e-01
9.98032240e-01
9.98124917e-01
9.98217407e-01
9.98309536e-01
9.98401127e-01
9.98492007e-01
9.98582005e-01
9.98670960e-01
9.98758720e-01
9.98845148e-01
9.98930123e-01
9.99013543e-01
9.99095330e-01
9.99175428e-01
9.99253805e-01
9.99330458e-01
9.99405408e-01
9.99478706e-01
9.99550425e-01
9.99620666e-01
9.99689553e-01
9.99757232e-01
9.99823868e-01
9.99889643e-01
9.99954750e-01
1.00001940e+00
1.00008379e+00
1.00014815e+00
1.00021269e+00
1.00027762e+00
1.00034314e+00
1.00040945e+00
1.00047672e+00
1.00054513e+00
1.00061480e+00
1.00068588e+00
1.00075845e+00
1.00083261e+00
1.00090841e+00
1.00098589e+00
1.00106505e+00
1.00114588e+00
1.00122836e+00
1.00131243e+00
1.00139802e+00
1.00148505e+00
1.00157342e+00
1.00166303e+00
1.00175377e+00
1.00184551e+00
1.00193813e+00
1.00203151e+00
1.00212553e+00
1.00222005e+00
1.00231498e+00
1.00241018e+00
1.00250554e+00
1.00260097e+00
1.00269634e+00
1.00279156e+00
1.00288653e+00
1.00298115e+00
1.00307532e+00
1.00316894e+00
1.00326190e+00
1.00335412e+00
1.00344548e+00
1.00353586e+00
1.00362516e+00
1.00371324e+00
1.00379996e+00
1.00388519e+00
1.00396877e+00
1.00405053e+00
1.00413028e+00
1.00420785e+00
1.00428302e+00
1.00435558e+00
1.00442531e+00
1.00449199e+00
1.00455536e+00
1.00461521e+00
1.00467132e+00
1.00472340e+00
1.00477124e+00
1.00481470e+00
1.00485349e+00
1.00488742e+00
1.00491643e+00
1.00494035e+00
1.00495914e+00
1.00497272e+00
1.00498038e+00
9.95691108e-01
9.95699680e-01
9.95715068e-01
9.95736669e-01
9.95764271e-01
9.95797631e-01
9.95836458e-01
9.95880398e-01
9.95929031e-01
9.95981960e-01
9.96038797e-01
9.96099114e-01
9.96162530e-01
9.96228706e-01
9.96297311e-01
9.96368053e-01
9.96440692e-01
9.96515016e-01
9.96590852e-01
9.96668063e-01
9.96746542e-01
9.96826206e-01
9.96906995e-01
9.96988863e-01
9.97071773e-01
9.97155693e-01
9.97240590e-01
9.97326426e-01
9.97413158e-01
9.97500728e-01
9.97589067e-01
9.97678094e-01
9.97767709e-01
9.97857803e-01
9.97948248e-01
9.98038909e-01
9.98129636e-01
9.98220273e-01
9.98310658e-01
9.98400626e-01
9.98490010e-01
9.98578647e-01
9.98666382e-01
9.98753066e-01
9.98838563e-01
9.98922752e-01
9.99005529e-01
9.99086810e-01
9.99166534e-01
9.99244663e-01
9.99321183e-01
9.99396106e-01
9.99469472e-01
9.99541343e-01
9.99611810e-01
9.99680985e-01
9.99749002e-01
9.99816017e-01
9.99882201e-01
9.99947740e-01
1.00001283e+00
1.00007768e+00
1.00014249e+00
1.00020747e+00
1.00027282e+00
1.00033876e+00
1.00040545e+00
1.00047308e+00
1.00054181e+00
1.00061176e+00
1.00068307e+00
1.00075583e+00
1.00083010e+00
1.00090595e+00
1.00098340e+00
1.00106244e+00
1.00114306e+00
1.00122523e+00
1.00130888e+00
1.00139394e+00
1.00148032e+00
1.00156792e+00
1.00165664e+00
1.00174636e+00
1.00183697e+00
1.00192836e+00
1.00202039e+00
1.00211296e+00
1.00220597e+00
1.00229929e+00
1.00239282e+00
1.00248647e+00
1.00258014e+00
1.00267373e+00
1.00276715e+00
1.00286031e+00
1.00295313e+00
1.00304551e+00
1.00313735e+00
1.00322857e+00
1.00331906e+00
1.00340871e+00
1.00349742e+00
1.00358506e+00
1.00367151e+00
1.00375663e+00
1.00384027e+00
1.00392228e+00
1.00400248e+00
1.00408069e+00
1.00415672e+00
1.00423036e+00
1.00430141e+00
1.00436964e+00
1.00443483e+00
1.00449674e+00
1.00455513e+00
1.00460980e+00
1.00466051e+00
1.00470701e+00
1.00474913e+00
1.00478669e+00
1.00481946e+00
1.00484733e+00
1.00487022e+00
1.00488809e+00
1.00490079e+00
1.00490756e+00
9.95763090e-01
9.95770916e-01
9.95785473e-01
9.95806121e-01
9.95832615e-01
9.95864736e-01
9.95902203e-01
9.95944649e-01
9.95991699e-01
9.96042974e-01
9.96098062e-01
9.96156566e-01
9.96218130e-01
9.96282401e-01
9.96349056e-01
9.96417819e-01
9.96488446e-01
9.96560726e-01
9.96634489e-01
9.96709596e-01
9.96785940e-01
9.96863439e-01
9.96942031e-01
9.97021670e-01
9.97102323e-01
9.97183959e-01
9.97266550e-01
9.97350066e-01
9.97434469e-01
9.97519712e-01
9.97605735e-01
9.97692469e-01
9.97779828e-01
9.97867713e-01
9.97956013e-01
9.98044603e-01
9.98133349e-01
9.98222107e-01
9.98310725e-01
9.98399049e-01
9.98486923e-01
9.98574191e-01
9.98660701e-01
9.98746310e-01
9.98830883e-01
9.98914299e-01
9.98996452e-01
9.99077254e-01
9.99156637e-01
9.99234556e-01
9.99310989e-01
9.99385938e-01
9.99459431e-01
9.99531521e-01
9.99602286e-01
9.99671826e-01
9.99740265e-01
9.99807746e-01
9.99874431e-01
9.99940497e-01
1.00000613e+00
1.00007153e+00
1.00013689e+00
1.00020241e+00
1.00026830e+00
1.00033474e+00
1.00040192e+00
1.00047000e+00
1.00053914e+00
1.00060946e+00
1.00068108e+00
1.00075409e+00
1.00082855e+00
1.00090451e+00
1.00098198e+00
1.00106095e+00
1.00114141e+00
1.00122329e+00
1.00130655e+00
1.00139109e+00
1.00147683e+00
1.00156367e+00
1.00165149e+00
1.00174020e+00
1.00182966e+00
1.00191978e+00
1.00201045e+00
1.00210155e+00
1.00219299e+00
1.00228466e+00
1.00237649e+00
1.00246837e+00
1.00256023e+00
1.00265199e+00
1.00274356e+00
1.00283487e+00
1.00292583e+00
1.00301636e+00
1.00310638e+00
1.00319580e+00
1.00328452e+00
1.00337244e+00
1.00345944e+00
1.00354540e+00
1.00363021e+00
1.00371371e+00
1.00379576e+00
1.00387620e+00
1.00395485e+00
1.00403153e+00
1.00410605e+00
1.00417820e+00
1.00424776e+00
1.00431452e+00
1.00437826e+00
1.00443874e+00
1.00449573e+00
1.00454901e+00
1.00459836e+00
1.00464358e+00
1.00468443e+00
1.00472075e+00
1.00475239e+00
1.00477919e+00
1.00480107e+00
1.00481802e+00
1.00482984e+00
1.00483576e+00
9.95834679e-01
9.95841748e-01
9.95855468e-01
9.95875149e-01
9.95900530e-01
9.95931397e-01
9.95967472e-01
9.96008419e-01
9.96053878e-01
9.96103462e-01
9.96156781e-01
9.96213465e-01
9.96273149e-01
9.96335488e-01
9.96400176e-01
9.96466938e-01
9.96535527e-01
9.96605738e-01
9.96677402e-01
9.96750379e-01
9.96824561e-01
9.96899865e-01
9.96976230e-01
9.97053611e-01
9.97131975e-01
9.97211296e-01
9.97291550e-01
9.97372714e-01
9.97454757e-01
9.97537642e-01
9.97621320e-01
9.97705733e-01
9.97790809e-01
9.97876461e-01
9.97962593e-01
9.98049094e-01
9.98135842e-01
9.98222706e-01
9.98309547e-01
9.98396223e-01
9.98482584e-01
9.98568483e-01
9.98653776e-01
9.98738322e-01
9.98821988e-01
9.98904654e-01
9.98986211e-01
9.99066568e-01
9.99145651e-01
9.99223409e-01
9.99299809e-01
9.99374844e-01
9.99448533e-01
9.99520915e-01
9.99592058e-01
9.99662049e-01
9.99731002e-01
9.99799047e-01
9.99866336e-01
9.99933033e-01
9.99999317e-01
1.00006537e+00
1.00013140e+00
1.00019758e+00
1.00026411e+00