# vtk DataFile Version 2.0
LBM Flow Field - Timestep 560
ASCII
DATASET STRUCTURED_POINTS
DIMENSIONS 128 128 1
ORIGIN 0.0 0.0 0.0
SPACING 1.0 1.0 1.0
POINT_DATA 16384
SCALARS density double 1
LOOKUP_TABLE default
9.95954777e-01
9.95949644e-01
9.95944452e-01
9.95945945e-01
9.95948682e-01
9.95951830e-01
9.95956507e-01
9.95962579e-01
9.95969375e-01
9.95976954e-01
9.95985453e-01
9.95994803e-01
9.96004956e-01
9.96015975e-01
9.96027923e-01
9.96040865e-01
9.96054922e-01
9.96070292e-01
9.96087251e-01
9.96106184e-01
9.96127633e-01
9.96152323e-01
9.96181190e-01
9.96215402e-01
9.96256364e-01
9.96305685e-01
9.96365124e-01
9.96436500e-01
9.96521572e-01
9.96621893e-01
9.96738662e-01
9.96872573e-01
9.97023693e-01
9.97191375e-01
9.97374219e-01
9.97570086e-01
9.97776182e-01
9.97989178e-01
9.98205381e-01
9.98420930e-01
9.98632003e-01
9.98835012e-01
9.99026786e-01
9.99204701e-01
9.99366783e-01
9.99511747e-01
9.99638998e-01
9.99748580e-01
9.99841098e-01
9.99917606e-01
9.99979494e-01
1.00002836e+00
1.00006592e+00
1.00009386e+00
1.00011382e+00
1.00012729e+00
1.00013560e+00
1.00013990e+00
1.00014113e+00
1.00014008e+00
1.00013736e+00
1.00013346e+00
1.00012874e+00
1.00012349e+00
1.00011792e+00
1.00011222e+00
1.00010655e+00
1.00010106e+00
1.00009595e+00
1.00009144e+00
1.00008785e+00
1.00008556e+00
1.00008508e+00
1.00008708e+00
1.00009236e+00
1.00010192e+00
1.00011695e+00
1.00013881e+00
1.00016904e+00
1.00020926e+00
1.00026119e+00
1.00032649e+00
1.00040669e+00
1.00050306e+00
1.00061646e+00
1.00074725e+00
1.00089516e+00
1.00105921e+00
1.00123771e+00
1.00142827e+00
1.00162793e+00
1.00183325e+00
1.00204058e+00
1.00224624e+00
1.00244676e+00
1.00263911e+00
1.00282084e+00
1.00299020e+00
1.00314616e+00
1.00328840e+00
1.00341720e+00
1.00353331e+00
1.00363783e+00
1.00373205e+00
1.00381729e+00
1.00389485e+00
1.00396589e+00
1.00403141e+00
1.00409225e+00
1.00414904e+00
1.00420230e+00
1.00425238e+00
1.00429953e+00
1.00434396e+00
1.00438575e+00
1.00442491e+00
1.00446151e+00
1.00449562e+00
1.00452709e+00
1.00455571e+00
1.00458179e+00
1.00460537e+00
1.00462539e+00
1.00464179e+00
1.00465603e+00
1.00466613e+00
1.00466838e+00
1.00466895e+00
9.95950689e-01
9.95949290e-01
9.95946654e-01
9.95948136e-01
9.95950570e-01
9.95954122e-01
9.95958830e-01
9.95964738e-01
9.95971534e-01
9.95979211e-01
9.95987759e-01
9.95997177e-01
9.96007457e-01
9.96018636e-01
9.96030775e-01
9.96043965e-01
9.96058343e-01
9.96074117e-01
9.96091581e-01
9.96111143e-01
9.96133357e-01
9.96158953e-01
9.96188856e-01
9.96224209e-01
9.96266361e-01
9.96316845e-01
9.96377322e-01
9.96449496e-01
9.96535008e-01
9.96635301e-01
9.96751484e-01
9.96884197e-01
9.97033497e-01
9.97198773e-01
9.97378707e-01
9.97571290e-01
9.97773885e-01
9.97983340e-01
9.98196145e-01
9.98408608e-01
9.98617054e-01
9.98818006e-01
9.99008358e-01
9.99185513e-01
9.99347474e-01
9.99492901e-01
9.99621109e-01
9.99732036e-01
9.99826171e-01
9.99904454e-01
9.99968169e-01
1.00001883e+00
1.00005807e+00
1.00008753e+00
1.00010883e+00
1.00012345e+00
1.00013271e+00
1.00013777e+00
1.00013960e+00
1.00013901e+00
1.00013664e+00
1.00013299e+00
1.00012846e+00
1.00012334e+00
1.00011788e+00
1.00011227e+00
1.00010668e+00
1.00010130e+00
1.00009633e+00
1.00009202e+00
1.00008868e+00
1.00008675e+00
1.00008675e+00
1.00008936e+00
1.00009542e+00
1.00010594e+00
1.00012213e+00
1.00014533e+00
1.00017707e+00
1.00021895e+00
1.00027263e+00
1.00033968e+00
1.00042155e+00
1.00051938e+00
1.00063393e+00
1.00076542e+00
1.00091349e+00
1.00107708e+00
1.00125447e+00
1.00144330e+00
1.00164064e+00
1.00184321e+00
1.00204749e+00
1.00225001e+00
1.00244749e+00
1.00263708e+00
1.00281647e+00
1.00298401e+00
1.00313871e+00
1.00328024e+00
1.00340881e+00
1.00352510e+00
1.00363009e+00
1.00372496e+00
1.00381093e+00
1.00388922e+00
1.00396093e+00
1.00402703e+00
1.00408832e+00
1.00414545e+00
1.00419892e+00
1.00424909e+00
1.00429625e+00
1.00434057e+00
1.00438215e+00
1.00442108e+00
1.00445738e+00
1.00449106e+00
1.00452207e+00
1.00455035e+00
1.00457595e+00
1.00459877e+00
1.00461839e+00
1.00463477e+00
1.00464832e+00
1.00465813e+00
1.00466277e+00
1.00466617e+00
9.95946062e-01
9.95947152e-01
9.95949570e-01
9.95950149e-01
9.95951967e-01
9.95956170e-01
9.95961128e-01
9.95966792e-01
9.95973594e-01
9.95981424e-01
9.95990060e-01
9.95999569e-01
9.96010024e-01
9.96021432e-01
9.96033842e-01
9.96047377e-01
9.96062194e-01
9.96078507e-01
9.96096626e-01
9.96116980e-01
9.96140129e-01
9.96166798e-01
9.96197897e-01
9.96234529e-01
9.96277979e-01
9.96329694e-01
9.96391227e-01
9.96464167e-01
9.96550031e-01
9.96650156e-01
9.96765568e-01
9.96896862e-01
9.97044093e-01
9.97206701e-01
9.97383465e-01
9.97572516e-01
9.97771384e-01
9.97977106e-01
9.98186358e-01
9.98395621e-01
9.98601364e-01
9.98800219e-01
9.98989144e-01
9.99165557e-01
9.99327437e-01
9.99473377e-01
9.99602601e-01
9.99714935e-01
9.99810749e-01
9.99890865e-01
9.99956463e-01
1.00000896e+00
1.00004993e+00
1.00008097e+00
1.00010364e+00
1.00011944e+00
1.00012967e+00
1.00013552e+00
1.00013798e+00
1.00013788e+00
1.00013587e+00
1.00013249e+00
1.00012815e+00
1.00012318e+00
1.00011783e+00
1.00011232e+00
1.00010683e+00
1.00010157e+00
1.00009674e+00
1.00009263e+00
1.00008957e+00
1.00008800e+00
1.00008849e+00
1.00009172e+00
1.00009857e+00
1.00011006e+00
1.00012740e+00
1.00015195e+00
1.00018522e+00
1.00022877e+00
1.00028420e+00
1.00035302e+00
1.00043657e+00
1.00053589e+00
1.00065162e+00
1.00078386e+00
1.00093214e+00
1.00109534e+00
1.00127169e+00
1.00145883e+00
1.00165392e+00
1.00185377e+00
1.00205504e+00
1.00225442e+00
1.00244884e+00
1.00263562e+00
1.00281261e+00
1.00297824e+00
1.00313159e+00
1.00327232e+00
1.00340060e+00
1.00351702e+00
1.00362245e+00
1.00371796e+00
1.00380469e+00
1.00388375e+00
1.00395618e+00
1.00402291e+00
1.00408469e+00
1.00414218e+00
1.00419585e+00
1.00424610e+00
1.00429318e+00
1.00433728e+00
1.00437853e+00
1.00441704e+00
1.00445283e+00
1.00448581e+00
1.00451613e+00
1.00454389e+00
1.00456866e+00
1.00459027e+00
1.00460956e+00
1.00462613e+00
1.00463805e+00
1.00464669e+00
1.00465535e+00
1.00466107e+00
9.95946707e-01
9.95947396e-01
9.95949209e-01
9.95950921e-01
9.95954013e-01
9.95957883e-01
9.95962605e-01
9.95968482e-01
9.95975375e-01
9.95983141e-01
9.95991828e-01
9.96001476e-01
9.96012080e-01
9.96023687e-01
9.96036387e-01
9.96050299e-01
9.96065589e-01
9.96082501e-01
9.96101368e-01
9.96122632e-01
9.96146870e-01
9.96174812e-01
9.96207354e-01
9.96245561e-01
9.96290657e-01
9.96343995e-01
9.96407014e-01
9.96481163e-01
9.96567821e-01
9.96668188e-01
9.96783178e-01
9.96913312e-01
9.97058620e-01
9.97218570e-01
9.97392030e-01
9.97577268e-01
9.97771996e-01
9.97973455e-01
9.98178537e-01
9.98383930e-01
9.98586284e-01
9.98782374e-01
9.98969254e-01
9.99144387e-01
9.99305744e-01
9.99451869e-01
9.99581893e-01
9.99695530e-01
9.99793016e-01
9.99875044e-01
9.99942668e-01
9.99997200e-01
1.00004011e+00
1.00007295e+00
1.00009723e+00
1.00011442e+00
1.00012583e+00
1.00013264e+00
1.00013587e+00
1.00013637e+00
1.00013482e+00
1.00013179e+00
1.00012771e+00
1.00012294e+00
1.00011775e+00
1.00011238e+00
1.00010703e+00
1.00010192e+00
1.00009730e+00
1.00009345e+00
1.00009074e+00
1.00008963e+00
1.00009072e+00
1.00009471e+00
1.00010251e+00
1.00011514e+00
1.00013384e+00
1.00015994e+00
1.00019492e+00
1.00024032e+00
1.00029764e+00
1.00036832e+00
1.00045357e+00
1.00055431e+00
1.00067103e+00
1.00080374e+00
1.00095185e+00
1.00111417e+00
1.00128893e+00
1.00147381e+00
1.00166608e+00
1.00186270e+00
1.00206051e+00
1.00225644e+00
1.00244761e+00
1.00263154e+00
1.00280620e+00
1.00297015e+00
1.00312245e+00
1.00326275e+00
1.00339114e+00
1.00350809e+00
1.00361435e+00
1.00371087e+00
1.00379866e+00
1.00387874e+00
1.00395208e+00
1.00401956e+00
1.00408192e+00
1.00413979e+00
1.00419366e+00
1.00424390e+00
1.00429080e+00
1.00433457e+00
1.00437533e+00
1.00441318e+00
1.00444820e+00
1.00448041e+00
1.00450979e+00
1.00453638e+00
1.00456027e+00
1.00458127e+00
1.00459929e+00
1.00461447e+00
1.00462683e+00
1.00463637e+00
1.00464432e+00
1.00464911e+00
9.95947122e-01
9.95947745e-01
9.95948922e-01
9.95951795e-01
9.95955262e-01
9.95958783e-01
9.95963627e-01
9.95969665e-01
9.95976484e-01
9.95984208e-01
9.95992987e-01
9.96002753e-01
9.96013503e-01
9.96025344e-01
9.96038383e-01
9.96052737e-01
9.96068600e-01
9.96086249e-01
9.96106043e-01
9.96128447e-01
9.96154059e-01
9.96183619e-01
9.96218005e-01
9.96258240e-01
9.96305472e-01
9.96360946e-01
9.96425957e-01
9.96501792e-01
9.96589655e-01
9.96690580e-01
9.96805341e-01
9.96934363e-01
9.97077636e-01
9.97234656e-01
9.97404385e-01
9.97585248e-01
9.97775165e-01
9.97971617e-01
9.98171748e-01
9.98372494e-01
9.98570724e-01
9.98763388e-01
9.98947662e-01
9.99121071e-01
9.99281588e-01
9.99427702e-01
9.99558451e-01
9.99673417e-01
9.99772689e-01
9.99856809e-01
9.99926684e-01
9.99983500e-01
1.00002862e+00
1.00006351e+00
1.00008965e+00
1.00010844e+00
1.00012122e+00
1.00012916e+00
1.00013330e+00
1.00013451e+00
1.00013352e+00
1.00013091e+00
1.00012716e+00
1.00012264e+00
1.00011765e+00
1.00011245e+00
1.00010727e+00
1.00010236e+00
1.00009799e+00
1.00009446e+00
1.00009217e+00
1.00009161e+00
1.00009340e+00
1.00009829e+00
1.00010719e+00
1.00012115e+00
1.00014140e+00
1.00016927e+00
1.00020620e+00
1.00025367e+00
1.00031310e+00
1.00038581e+00
1.00047289e+00
1.00057510e+00
1.00069279e+00
1.00082583e+00
1.00097352e+00
1.00113461e+00
1.00130732e+00
1.00148941e+00
1.00167825e+00
1.00187101e+00
1.00206476e+00
1.00225667e+00
1.00244413e+00
1.00262484e+00
1.00279697e+00
1.00295915e+00
1.00311048e+00
1.00325054e+00
1.00337933e+00
1.00349718e+00
1.00360468e+00
1.00370262e+00
1.00379186e+00
1.00387333e+00
1.00394790e+00
1.00401639e+00
1.00407951e+00
1.00413788e+00
1.00419200e+00
1.00424225e+00
1.00428892e+00
1.00433226e+00
1.00437241e+00
1.00440946e+00
1.00444350e+00
1.00447469e+00
1.00450299e+00
1.00452827e+00
1.00455086e+00
1.00457095e+00
1.00458788e+00
1.00460162e+00
1.00461378e+00
1.00462363e+00
1.00462990e+00
1.00463430e+00
9.95946807e-01
9.95947880e-01
9.95949679e-01
9.95952237e-01
9.95955335e-01
9.95959395e-01
9.95964449e-01
9.95970235e-01
9.95977023e-01
9.95984894e-01
9.95993740e-01
9.96003588e-01
9.96014556e-01
9.96026716e-01
9.96040161e-01
9.96055060e-01
9.96071642e-01
9.96090200e-01
9.96111122e-01
9.96134909e-01
9.96162178e-01
9.96193667e-01
9.96230237e-01
9.96272862e-01
9.96322603e-01
9.96380579e-01
9.96447931e-01
9.96525764e-01
9.96615088e-01
9.96716754e-01
9.96831381e-01
9.96959280e-01
9.97100396e-01
9.97254246e-01
9.97419891e-01
9.97595924e-01
9.97780487e-01
9.97971326e-01
9.98165865e-01
9.98361315e-01
9.98554791e-01
9.98743448e-01
9.98924606e-01
9.99095867e-01
9.99255220e-01
9.99401105e-01
9.99532460e-01
9.99648732e-01
9.99749852e-01
9.99836194e-01
9.99908502e-01
9.99967818e-01
1.00001539e+00
1.00005257e+00
1.00008079e+00
1.00010142e+00
1.00011576e+00
1.00012501e+00
1.00013021e+00
1.00013226e+00
1.00013193e+00
1.00012983e+00
1.00012646e+00
1.00012224e+00
1.00011750e+00
1.00011252e+00
1.00010757e+00
1.00010291e+00
1.00009883e+00
1.00009569e+00
1.00009390e+00
1.00009399e+00
1.00009660e+00
1.00010253e+00
1.00011268e+00
1.00012816e+00
1.00015016e+00
1.00018002e+00
1.00021911e+00
1.00026885e+00
1.00033057e+00
1.00040545e+00
1.00049443e+00
1.00059812e+00
1.00071671e+00
1.00084990e+00
1.00099691e+00
1.00115643e+00
1.00132669e+00
1.00150551e+00
1.00169044e+00
1.00187885e+00
1.00206808e+00
1.00225557e+00
1.00243897e+00
1.00261623e+00
1.00278566e+00
1.00294600e+00
1.00309637e+00
1.00323629e+00
1.00336564e+00
1.00348460e+00
1.00359358e+00
1.00369319e+00
1.00378416e+00
1.00386726e+00
1.00394327e+00
1.00401295e+00
1.00407697e+00
1.00413594e+00
1.00419036e+00
1.00424062e+00
1.00428704e+00
1.00432986e+00
1.00436927e+00
1.00440543e+00
1.00443841e+00
1.00446829e+00
1.00449526e+00
1.00451940e+00
1.00454057e+00
1.00455893e+00
1.00457486e+00
1.00458819e+00
1.00459890e+00
1.00460744e+00
1.00461388e+00
1.00461829e+00
9.95947251e-01
9.95948221e-01
9.95950080e-01
9.95952380e-01
9.95955569e-01
9.95959826e-01
9.95964722e-01
9.95970482e-01
9.95977385e-01
9.95985290e-01
9.95994183e-01
9.96004208e-01
9.96015446e-01
9.96027957e-01
9.96041885e-01
9.96057436e-01
9.96074856e-01
9.96094469e-01
9.96116704e-01
9.96142090e-01
9.96171262e-01
9.96204960e-01
9.96244023e-01
9.96289364e-01
9.96341949e-01
9.96402762e-01
9.96472769e-01
9.96552879e-01
9.96643893e-01
9.96746462e-01
9.96861029e-01
9.96987787e-01
9.97126622e-01
9.97277072e-01
9.97438299e-01
9.97609072e-01
9.97787775e-01
9.97972435e-01
9.98160783e-01
9.98350330e-01
9.98538465e-01
9.98722571e-01
9.98900132e-01
9.99068847e-01
9.99226727e-01
9.99372172e-01
9.99504018e-01
9.99621571e-01
9.99724591e-01
9.99813272e-01
9.99888183e-01
9.99950202e-01
1.00000044e+00
1.00004015e+00
1.00007068e+00
1.00009335e+00
1.00010945e+00
1.00012018e+00
1.00012658e+00
1.00012961e+00
1.00013004e+00
1.00012853e+00
1.00012562e+00
1.00012176e+00
1.00011732e+00
1.00011260e+00
1.00010791e+00
1.00010355e+00
1.00009983e+00
1.00009714e+00
1.00009593e+00
1.00009676e+00
1.00010032e+00
1.00010741e+00
1.00011899e+00
1.00013615e+00
1.00016010e+00
1.00019213e+00
1.00023359e+00
1.00028580e+00
1.00034996e+00
1.00042714e+00
1.00051810e+00
1.00062327e+00
1.00074268e+00
1.00087589e+00
1.00102199e+00
1.00117963e+00
1.00134705e+00
1.00152219e+00
1.00170276e+00
1.00188638e+00
1.00207066e+00
1.00225335e+00
1.00243237e+00
1.00260592e+00
1.00277251e+00
1.00293093e+00
1.00308034e+00
1.00322020e+00
1.00335025e+00
1.00347049e+00
1.00358117e+00
1.00368268e+00
1.00377559e+00
1.00386052e+00
1.00393815e+00
1.00400915e+00
1.00407418e+00
1.00413380e+00
1.00418852e+00
1.00423875e+00
1.00428486e+00
1.00432710e+00
1.00436565e+00
1.00440076e+00
1.00443256e+00
1.00446111e+00
1.00448657e+00
1.00450921e+00
1.00452902e+00
1.00454589e+00
1.00456035e+00
1.00457270e+00
1.00458233e+00
1.00458964e+00
1.00459557e+00
1.00459936e+00
9.95948043e-01
9.95948607e-01
9.95950117e-01
9.95952580e-01
9.95955876e-01
9.95959852e-01
9.95964703e-01
9.95970646e-01
9.95977540e-01
9.95985417e-01
9.95994461e-01
9.96004718e-01
9.96016229e-01
9.96029144e-01
9.96043649e-01
9.96059947e-01
9.96078318e-01
9.96099137e-01
9.96122867e-01
9.96150060e-01
9.96181371e-01
9.96217542e-01
9.96259378e-01
9.96307727e-01
9.96363447e-01
9.96427377e-01
9.96500299e-01
9.96582912e-01
9.96675795e-01
9.96779388e-01
9.96893951e-01
9.97019545e-01
9.97155992e-01
9.97302850e-01
9.97459381e-01
9.97624536e-01
9.97796948e-01
9.97974944e-01
9.98156576e-01
9.98339679e-01
9.98521938e-01
9.98700984e-01
9.98874487e-01
9.99040259e-01
9.99196347e-01
9.99341114e-01
9.99473302e-01
9.99592070e-01
9.99697003e-01
9.99788103e-01
9.99865751e-01
9.99930649e-01
9.99983757e-01
1.00002621e+00
1.00005927e+00
1.00008419e+00
1.00010225e+00
1.00011462e+00
1.00012239e+00
1.00012651e+00
1.00012781e+00
1.00012698e+00
1.00012461e+00
1.00012118e+00
1.00011708e+00
1.00011268e+00
1.00010831e+00
1.00010429e+00
1.00010099e+00
1.00009882e+00
1.00009828e+00
1.00009996e+00
1.00010458e+00
1.00011298e+00
1.00012614e+00
1.00014516e+00
1.00017124e+00
1.00020564e+00
1.00024965e+00
1.00030448e+00
1.00037123e+00
1.00045080e+00
1.00054378e+00
1.00065041e+00
1.00077055e+00
1.00090359e+00
1.00104854e+00
1.00120399e+00
1.00136824e+00
1.00153931e+00
1.00171514e+00
1.00189358e+00
1.00207256e+00
1.00225014e+00
1.00242453e+00
1.00259418e+00
1.00275777e+00
1.00291421e+00
1.00306266e+00
1.00320249e+00
1.00333333e+00
1.00345499e+00
1.00356751e+00
1.00367110e+00
1.00376611e+00
1.00385302e+00
1.00393240e+00
1.00400484e+00
1.00407092e+00
1.00413123e+00
1.00418625e+00
1.00423643e+00
1.00428214e+00
1.00432370e+00
1.00436135e+00
1.00439528e+00
1.00442572e+00
1.00445290e+00
1.00447689e+00
1.00449780e+00
1.00451602e+00
1.00453168e+00
1.00454468e+00
1.00455535e+00
1.00456409e+00
1.00457083e+00
1.00457554e+00
1.00457826e+00
9.95948414e-01
9.95948854e-01
9.95950228e-01
9.95952654e-01
9.95955817e-01
9.95959726e-01
9.95964652e-01
9.95970562e-01
9.95977427e-01
9.95985430e-01
9.95994648e-01
9.96005111e-01
9.96016960e-01
9.96030371e-01
9.96045523e-01
9.96062661e-01
9.96082118e-01
9.96104303e-01
9.96129708e-01
9.96158921e-01
9.96192611e-01
9.96231511e-01
9.96276386e-01
9.96328011e-01
9.96387128e-01
9.96454416e-01
9.96530465e-01
9.96615754e-01
9.96710634e-01
9.96815324e-01
9.96929897e-01
9.97054275e-01
9.97188216e-01
9.97331292e-01
9.97482869e-01
9.97642084e-01
9.97807825e-01
9.97978729e-01
9.98153184e-01
9.98329364e-01
9.98505269e-01
9.98678796e-01
9.98847817e-01
9.99010274e-01
9.99164260e-01
9.99308114e-01
9.99440483e-01
9.99560382e-01
9.99667216e-01
9.99760789e-01
9.99841280e-01
9.99909208e-01
9.99965366e-01
1.00001076e+00
1.00004654e+00
1.00007392e+00
1.00009412e+00
1.00010831e+00
1.00011759e+00
1.00012295e+00
1.00012523e+00
1.00012518e+00
1.00012342e+00
1.00012048e+00
1.00011680e+00
1.00011277e+00
1.00010876e+00
1.00010515e+00
1.00010233e+00
1.00010076e+00
1.00010097e+00
1.00010360e+00
1.00010939e+00
1.00011924e+00
1.00013413e+00
1.00015518e+00
1.00018356e+00
1.00022051e+00
1.00026723e+00
1.00032483e+00
1.00039429e+00
1.00047632e+00
1.00057133e+00
1.00067939e+00
1.00080014e+00
1.00093286e+00
1.00107644e+00
1.00122943e+00
1.00139019e+00
1.00155688e+00
1.00172763e+00
1.00190058e+00
1.00207397e+00
1.00224617e+00
1.00241570e+00
1.00258127e+00
1.00274172e+00
1.00289609e+00
1.00304351e+00
1.00318332e+00
1.00331497e+00
1.00343812e+00
1.00355258e+00
1.00365834e+00
1.00375558e+00
1.00384460e+00
1.00392583e+00
1.00399978e+00
1.00406699e+00
1.00412799e+00
1.00418330e+00
1.00423339e+00
1.00427866e+00
1.00431945e+00
1.00435609e+00
1.00438882e+00
1.00441786e+00
1.00444349e+00
1.00446594e+00
1.00448533e+00
1.00450189e+00
1.00451600e+00
1.00452771e+00
1.00453706e+00
1.00454460e+00
1.00455044e+00
1.00455425e+00
1.00455638e+00
9.95948373e-01
9.95948788e-01
9.95950193e-01
9.95952459e-01
9.95955513e-01
9.95959494e-01
9.95964392e-01
9.95970235e-01
9.95977201e-01
9.95985360e-01
9.95994731e-01
9.96005467e-01
9.96017746e-01
9.96031716e-01
9.96047597e-01
9.96065697e-01
9.96086382e-01
9.96110090e-01
9.96137357e-01
9.96168801e-01
9.96205097e-01
9.96246961e-01
9.96295113e-01
9.96350244e-01
9.96412968e-01
9.96483798e-01
9.96563125e-01
9.96651202e-01
9.96748150e-01
9.96853963e-01
9.96968526e-01
9.97091624e-01
9.97222946e-01
9.97362078e-01
9.97508488e-01
9.97661499e-01
9.97820261e-01
9.97983721e-01
9.98150616e-01
9.98319465e-01
9.98488598e-01
9.98656193e-01
9.98820341e-01
9.98979124e-01
9.99130700e-01
9.99273390e-01
9.99405757e-01
9.99526672e-01
9.99635360e-01
9.99731423e-01
9.99814832e-01
9.99885909e-01
9.99945272e-01
9.99993785e-01
1.00003248e+00
1.00006250e+00
1.00008503e+00
1.00010122e+00
1.00011217e+00
1.00011889e+00
1.00012227e+00
1.00012310e+00
1.00012204e+00
1.00011966e+00
1.00011645e+00
1.00011285e+00
1.00010927e+00
1.00010612e+00
1.00010385e+00
1.00010295e+00
1.00010400e+00
1.00010769e+00
1.00011479e+00
1.00012622e+00
1.00014299e+00
1.00016622e+00
1.00019708e+00
1.00023673e+00
1.00028631e+00
1.00034682e+00
1.00041906e+00
1.00050360e+00
1.00060065e+00
1.00071006e+00
1.00083132e+00
1.00096354e+00
1.00110552e+00
1.00125581e+00
1.00141281e+00
1.00157485e+00
1.00174025e+00
1.00190746e+00
1.00207502e+00
1.00224163e+00
1.00240612e+00
1.00256745e+00
1.00272465e+00
1.00287683e+00
1.00302315e+00
1.00316288e+00
1.00329533e+00
1.00341996e+00
1.00353639e+00
1.00364438e+00
1.00374390e+00
1.00383509e+00
1.00391823e+00
1.00399373e+00
1.00406209e+00
1.00412380e+00
1.00417938e+00
1.00422934e+00
1.00427412e+00
1.00431411e+00
1.00434966e+00
1.00438113e+00
1.00440880e+00
1.00443288e+00
1.00445371e+00
1.00447161e+00
1.00448670e+00
1.00449920e+00
1.00450955e+00
1.00451788e+00
1.00452424e+00
1.00452900e+00
1.00453230e+00
1.00453397e+00
9.95948072e-01
9.95948428e-01
9.95949788e-01
9.95952009e-01
9.95955066e-01
9.95959022e-01
9.95963888e-01
9.95969812e-01
9.95976898e-01
9.95985179e-01
9.95994789e-01
9.96005898e-01
9.96018650e-01
9.96033250e-01
9.96049979e-01
9.96069169e-01
9.96091218e-01
9.96116619e-01
9.96145943e-01
9.96179824e-01
9.96218943e-01
9.96263993e-01
9.96315637e-01
9.96374467e-01
9.96440964e-01
9.96515468e-01
9.96598165e-01
9.96689082e-01
9.96788108e-01
9.96895019e-01
9.97009513e-01
9.97131239e-01
9.97259820e-01
9.97394857e-01
9.97535919e-01
9.97682514e-01
9.97834049e-01
9.97989788e-01
9.98148812e-01
9.98309998e-01
9.98472008e-01
9.98633315e-01
9.98792240e-01
9.98947021e-01
9.99095890e-01
9.99237164e-01
9.99369330e-01
9.99491123e-01
9.99601591e-01
9.99700128e-01
9.99786497e-01
9.99860811e-01
9.99923507e-01
9.99975292e-01
1.00001708e+00
1.00004992e+00
1.00007495e+00
1.00009330e+00
1.00010607e+00
1.00011430e+00
1.00011891e+00
1.00012072e+00
1.00012044e+00
1.00011870e+00
1.00011603e+00
1.00011293e+00
1.00010983e+00
1.00010722e+00
1.00010557e+00
1.00010542e+00
1.00010741e+00
1.00011225e+00
1.00012077e+00
1.00013392e+00
1.00015273e+00
1.00017830e+00
1.00021178e+00
1.00025428e+00
1.00030685e+00
1.00037036e+00
1.00044547e+00
1.00053254e+00
1.00063159e+00
1.00074228e+00
1.00086392e+00
1.00099547e+00
1.00113566e+00
1.00128304e+00
1.00143606e+00
1.00159321e+00
1.00175307e+00
1.00191434e+00
1.00207591e+00
1.00223678e+00
1.00239609e+00
1.00255304e+00
1.00270685e+00
1.00285671e+00
1.00300183e+00
1.00314136e+00
1.00327451e+00
1.00340056e+00
1.00351891e+00
1.00362911e+00
1.00373091e+00
1.00382428e+00
1.00390936e+00
1.00398644e+00
1.00405594e+00
1.00411836e+00
1.00417421e+00
1.00422401e+00
1.00426826e+00
1.00430742e+00
1.00434190e+00
1.00437207e+00
1.00439833e+00
1.00442098e+00
1.00444029e+00
1.00445664e+00
1.00447033e+00
1.00448154e+00
1.00449057e+00
1.00449776e+00
1.00450321e+00
1.00450717e+00
1.00450982e+00
1.00451096e+00
9.95947400e-01
9.95947721e-01
9.95949060e-01
9.95951313e-01
9.95954382e-01
9.95958313e-01
9.95963244e-01
9.95969293e-01
9.95976496e-01
9.95984982e-01
9.95994921e-01
9.96006447e-01
9.96019747e-01
9.96035090e-01
9.96052783e-01
9.96073186e-01
9.96096755e-01
9.96124026e-01
9.96155597e-01
9.96192117e-01
9.96234265e-01
9.96282700e-01
9.96338015e-01
9.96400695e-01
9.96471080e-01
9.96549332e-01
9.96635429e-01
9.96729175e-01
9.96830234e-01
9.96938169e-01
9.97052498e-01
9.97172743e-01
9.97298463e-01
9.97429276e-01
9.97564849e-01
9.97704871e-01
9.97849003e-01
9.97996817e-01
9.98147740e-01
9.98301003e-01
9.98455608e-01
9.98610325e-01
9.98763718e-01
9.98914192e-01
9.99060068e-01
9.99199670e-01
9.99331420e-01
9.99453928e-01
9.99566066e-01
9.99667029e-01
9.99756363e-01
9.99833973e-01
9.99900102e-01
9.99955291e-01
1.00000032e+00
1.00003616e+00
1.00006386e+00
1.00008453e+00
1.00009928e+00
1.00010915e+00
1.00011511e+00
1.00011801e+00
1.00011861e+00
1.00011760e+00
1.00011554e+00
1.00011300e+00
1.00011046e+00
1.00010844e+00
1.00010749e+00
1.00010818e+00
1.00011120e+00
1.00011731e+00
1.00012738e+00
1.00014238e+00
1.00016336e+00
1.00019142e+00
1.00022766e+00
1.00027315e+00
1.00032882e+00
1.00039541e+00
1.00047342e+00
1.00056302e+00
1.00066403e+00
1.00077591e+00
1.00089778e+00
1.00102851e+00
1.00116673e+00
1.00131100e+00
1.00145986e+00
1.00161197e+00
1.00176614e+00
1.00192135e+00
1.00207681e+00
1.00223184e+00
1.00238587e+00
1.00253833e+00
1.00268862e+00
1.00283603e+00
1.00297977e+00
1.00311895e+00
1.00325266e+00
1.00337999e+00
1.00350014e+00
1.00361245e+00
1.00371648e+00
1.00381198e+00
1.00389897e+00
1.00397761e+00
1.00404826e+00
1.00411137e+00
1.00416748e+00
1.00421712e+00
1.00426084e+00
1.00429916e+00
1.00433258e+00
1.00436152e+00
1.00438640e+00
1.00440765e+00
1.00442561e+00
1.00444057e+00
1.00445291e+00
1.00446299e+00
1.00447094e+00
1.00447708e+00
1.00448174e+00
1.00448510e+00
1.00448715e+00
1.00448783e+00
9.95946317e-01
9.95946679e-01
9.95948060e-01
9.95950332e-01
9.95953429e-01
9.95957440e-01
9.95962490e-01
9.95968664e-01
9.95976067e-01
9.95984856e-01
9.95995168e-01
9.96007180e-01
9.96021144e-01
9.96037341e-01
9.96056108e-01
9.96077870e-01
9.96103128e-01
9.96132447e-01
9.96166453e-01
9.96205811e-01
9.96251182e-01
9.96303176e-01
9.96362309e-01
9.96428951e-01
9.96503289e-01
9.96585304e-01
9.96674769e-01
9.96771272e-01
9.96874259e-01
9.96983094e-01
9.97097126e-01
9.97215758e-01
9.97338494e-01
9.97464968e-01
9.97594945e-01
9.97728289e-01
9.97864904e-01
9.98004666e-01
9.98147336e-01
9.98292494e-01
9.98439481e-01
9.98587368e-01
9.98734967e-01
9.98880861e-01
9.99023471e-01
9.99161145e-01
9.99292254e-01
9.99415290e-01
9.99528963e-01
9.99632268e-01
9.99724540e-01
9.99805469e-01
9.99875100e-01
9.99933801e-01
9.99982213e-01
1.00002119e+00
1.00005172e+00
1.00007488e+00
1.00009176e+00
1.00010342e+00
1.00011085e+00
1.00011495e+00
1.00011654e+00
1.00011633e+00
1.00011497e+00
1.00011306e+00
1.00011115e+00
1.00010981e+00
1.00010963e+00
1.00011125e+00
1.00011540e+00
1.00012289e+00
1.00013463e+00
1.00015162e+00
1.00017491e+00
1.00020559e+00
1.00024473e+00
1.00029331e+00
1.00035217e+00
1.00042191e+00
1.00050284e+00
1.00059494e+00
1.00069783e+00
1.00081079e+00
1.00093277e+00
1.00106252e+00
1.00119860e+00
1.00133961e+00
1.00148418e+00
1.00163114e+00
1.00177953e+00
1.00192863e+00
1.00207793e+00
1.00222707e+00
1.00237574e+00
1.00252361e+00
1.00267025e+00
1.00281504e+00
1.00295721e+00
1.00309583e+00
1.00322987e+00
1.00335827e+00
1.00348003e+00
1.00359430e+00
1.00370042e+00
1.00379797e+00
1.00388680e+00
1.00396697e+00
1.00403874e+00
1.00410255e+00
1.00415890e+00
1.00420840e+00
1.00425162e+00
1.00428914e+00
1.00432153e+00
1.00434933e+00
1.00437297e+00
1.00439292e+00
1.00440962e+00
1.00442342e+00
1.00443464e+00
1.00444365e+00
1.00445074e+00
1.00445612e+00
1.00446008e+00
1.00446289e+00
1.00446454e+00
1.00446493e+00
9.95944875e-01
9.95945293e-01
9.95946755e-01
9.95949085e-01
9.95952269e-01
9.95956415e-01
9.95961617e-01
9.95967991e-01
9.95975684e-01
9.95984831e-01
9.95995592e-01
9.96008203e-01
9.96022933e-01
9.96040091e-01
9.96060074e-01
9.96083354e-01
9.96110467e-01
9.96142015e-01
9.96178649e-01
9.96221034e-01
9.96269800e-01
9.96325503e-01
9.96388566e-01
9.96459234e-01
9.96537536e-01
9.96623272e-01
9.96716015e-01
9.96815143e-01
9.96919900e-01
9.97029465e-01
9.97143035e-01
9.97259905e-01
9.97379533e-01
9.97501573e-01
9.97625885e-01
9.97752497e-01
9.97881549e-01
9.98013202e-01
9.98147543e-01
9.98284490e-01
9.98423714e-01
9.98564589e-01
9.98706177e-01
9.98847248e-01
9.98986338e-01
9.99121831e-01
9.99252060e-01
9.99375418e-01
9.99490460e-01
9.99595993e-01
9.99691140e-01
9.99775379e-01
9.99848552e-01
9.99910846e-01
9.99962752e-01
1.00000500e+00
1.00003852e+00
1.00006432e+00
1.00008348e+00
1.00009707e+00
1.00010610e+00
1.00011152e+00
1.00011419e+00
1.00011489e+00
1.00011431e+00
1.00011311e+00
1.00011190e+00
1.00011132e+00
1.00011199e+00
1.00011464e+00
1.00012002e+00
1.00012901e+00
1.00014255e+00
1.00016165e+00
1.00018738e+00
1.00022081e+00
1.00026297e+00
1.00031475e+00
1.00037687e+00
1.00044978e+00
1.00053362e+00
1.00062818e+00
1.00073287e+00
1.00084679e+00
1.00096874e+00
1.00109735e+00
1.00123117e+00
1.00136879e+00
1.00150899e+00
1.00165074e+00
1.00179333e+00
1.00193630e+00
1.00207945e+00
1.00222268e+00
1.00236595e+00
1.00250916e+00
1.00265201e+00
1.00279399e+00
1.00293437e+00
1.00307217e+00
1.00320626e+00
1.00333545e+00
1.00345856e+00
1.00357455e+00
1.00368257e+00
1.00378202e+00
1.00387259e+00
1.00395422e+00
1.00402709e+00
1.00409158e+00
1.00414822e+00
1.00419760e+00
1.00424037e+00
1.00427719e+00
1.00430866e+00
1.00433540e+00
1.00435796e+00
1.00437681e+00
1.00439241e+00
1.00440522e+00
1.00441556e+00
1.00442375e+00
1.00443013e+00
1.00443496e+00
1.00443844e+00
1.00444083e+00
1.00444221e+00
1.00444238e+00
9.95943116e-01
9.95943604e-01
9.95945159e-01
9.95947607e-01
9.95950937e-01
9.95955251e-01
9.95960674e-01
9.95967340e-01
9.95975384e-01
9.95984960e-01
9.95996281e-01
9.96009595e-01
9.96025194e-01
9.96043448e-01
9.96064801e-01
9.96089760e-01
9.96118904e-01
9.96152870e-01
9.96192322e-01
9.96237909e-01
9.96290226e-01
9.96349758e-01
9.96416825e-01
9.96491536e-01
9.96573762e-01
9.96663120e-01
9.96758989e-01
9.96860554e-01
9.96966871e-01
9.97076954e-01
9.97189864e-01
9.97304807e-01
9.97421203e-01
9.97538731e-01
9.97657341e-01
9.97777218e-01
9.97898721e-01
9.98022281e-01
9.98148292e-01
9.98276994e-01
9.98408381e-01
9.98542121e-01
9.98677529e-01
9.98813570e-01
9.98948904e-01
9.99081967e-01
9.99211072e-01
9.99334527e-01
9.99450748e-01
9.99558361e-01
9.99656288e-01
9.99743794e-01
9.99820518e-01
9.99886459e-01
9.99941950e-01
9.99987601e-01
1.00002423e+00
1.00005282e+00
1.00007441e+00
1.00009007e+00
1.00010084e+00
1.00010770e+00
1.00011156e+00
1.00011326e+00
1.00011355e+00
1.00011314e+00
1.00011273e+00
1.00011298e+00
1.00011460e+00
1.00011837e+00
1.00012509e+00
1.00013569e+00
1.00015114e+00
1.00017248e+00
1.00020079e+00
1.00023709e+00
1.00028237e+00
1.00033742e+00
1.00040285e+00
1.00047895e+00
1.00056568e+00
1.00066262e+00
1.00076901e+00
1.00088377e+00
1.00100554e+00
1.00113289e+00
1.00126431e+00
1.00139848e+00
1.00153424e+00
1.00167078e+00
1.00180760e+00
1.00194450e+00
1.00208154e+00
1.00221889e+00
1.00235676e+00
1.00249523e+00
1.00263416e+00
1.00277313e+00
1.00291145e+00
1.00304810e+00
1.00318190e+00
1.00331153e+00
1.00343566e+00
1.00355308e+00
1.00366275e+00
1.00376391e+00
1.00385608e+00
1.00393908e+00
1.00401301e+00
1.00407820e+00
1.00413516e+00
1.00418451e+00
1.00422693e+00
1.00426315e+00
1.00429386e+00
1.00431972e+00
1.00434135e+00
1.00435931e+00
1.00437407e+00
1.00438609e+00
1.00439577e+00
1.00440342e+00
1.00440932e+00
1.00441375e+00
1.00441694e+00
1.00441912e+00
1.00442029e+00
1.00442029e+00
9.95941060e-01
9.95941643e-01
9.95943327e-01
9.95945933e-01
9.95949454e-01
9.95954001e-01
9.95959720e-01
9.95966745e-01
9.95975217e-01
9.95985327e-01
9.95997306e-01
9.96011426e-01
9.96028026e-01
9.96047524e-01
9.96070402e-01
9.96097211e-01
9.96128573e-01
9.96165147e-01
9.96207595e-01
9.96256548e-01
9.96312550e-01
9.96375999e-01
9.96447102e-01
9.96525829e-01
9.96611884e-01
9.96704709e-01
9.96803499e-01
9.96907260e-01
9.97014881e-01
9.97125231e-01
9.97237259e-01
9.97350098e-01
9.97463140e-01
9.97576096e-01
9.97689000e-01
9.97802186e-01
9.97916213e-01
9.98031761e-01
9.98149511e-01
9.98270007e-01
9.98393547e-01
9.98520088e-01
9.98649196e-01
9.98780034e-01
9.98911398e-01
9.99041790e-01
9.99169522e-01
9.99292834e-01
9.99410019e-01
9.99519537e-01
9.99620115e-01
9.99710814e-01
9.99791066e-01
9.99860680e-01
9.99919824e-01
9.99968972e-01
1.00000885e+00
1.00004036e+00
1.00006452e+00
1.00008239e+00
1.00009502e+00
1.00010345e+00
1.00010862e+00
1.00011142e+00
1.00011267e+00