# vtk DataFile Version 2.0
LBM Flow Field - Timestep 1900
ASCII
DATASET STRUCTURED_POINTS
DIMENSIONS 128 128 1
ORIGIN 0.0 0.0 0.0
SPACING 1.0 1.0 1.0
POINT_DATA 16384
SCALARS density double 1
LOOKUP_TABLE default
9.96050474e-01
9.96052608e-01
9.96055017e-01
9.96059108e-01
9.96064026e-01
9.96069309e-01
9.96075832e-01
9.96083519e-01
9.96092101e-01
9.96101695e-01
9.96112550e-01
9.96124706e-01
9.96138248e-01
9.96153339e-01
9.96170125e-01
9.96188719e-01
9.96209257e-01
9.96231884e-01
9.96256735e-01
9.96283943e-01
9.96313644e-01
9.96345969e-01
9.96381044e-01
9.96418991e-01
9.96459924e-01
9.96503949e-01
9.96551164e-01
9.96601653e-01
9.96655491e-01
9.96712741e-01
9.96773450e-01
9.96837652e-01
9.96905366e-01
9.96976596e-01
9.97051330e-01
9.97129543e-01
9.97211194e-01
9.97296230e-01
9.97384584e-01
9.97476179e-01
9.97570928e-01
9.97668737e-01
9.97769506e-01
9.97873129e-01
9.97979499e-01
9.98088506e-01
9.98200041e-01
9.98313996e-01
9.98430261e-01
9.98548731e-01
9.98669298e-01
9.98791854e-01
9.98916290e-01
9.99042493e-01
9.99170341e-01
9.99299707e-01
9.99430452e-01
9.99562421e-01
9.99695447e-01
9.99829345e-01
9.99963911e-01
1.00009892e+00
1.00023414e+00
1.00036930e+00
1.00050413e+00
1.00063835e+00
1.00077165e+00
1.00090375e+00
1.00103435e+00
1.00116315e+00
1.00128988e+00
1.00141427e+00
1.00153611e+00
1.00165518e+00
1.00177132e+00
1.00188439e+00
1.00199431e+00
1.00210103e+00
1.00220453e+00
1.00230485e+00
1.00240205e+00
1.00249624e+00
1.00258752e+00
1.00267606e+00
1.00276201e+00
1.00284554e+00
1.00292682e+00
1.00300600e+00
1.00308325e+00
1.00315871e+00
1.00323250e+00
1.00330470e+00
1.00337541e+00
1.00344466e+00
1.00351248e+00
1.00357886e+00
1.00364379e+00
1.00370720e+00
1.00376905e+00
1.00382925e+00
1.00388771e+00
1.00394433e+00
1.00399902e+00
1.00405168e+00
1.00410221e+00
1.00415053e+00
1.00419657e+00
1.00424026e+00
1.00428155e+00
1.00432042e+00
1.00435686e+00
1.00439086e+00
1.00442244e+00
1.00445165e+00
1.00447855e+00
1.00450317e+00
1.00452560e+00
1.00454600e+00
1.00456438e+00
1.00458071e+00
1.00459534e+00
1.00460848e+00
1.00461948e+00
1.00462831e+00
1.00463668e+00
1.00464359e+00
1.00464574e+00
1.00464720e+00
9.96053040e-01
9.96056271e-01
9.96059529e-01
9.96063442e-01
9.96068642e-01
9.96074282e-01
9.96080922e-01
9.96088544e-01
9.96097231e-01
9.96106951e-01
9.96117881e-01
9.96130109e-01
9.96143757e-01
9.96158940e-01
9.96175800e-01
9.96194464e-01
9.96215069e-01
9.96237749e-01
9.96262642e-01
9.96289882e-01
9.96319603e-01
9.96351934e-01
9.96387002e-01
9.96424927e-01
9.96465823e-01
9.96509795e-01
9.96556938e-01
9.96607340e-01
9.96661073e-01
9.96718199e-01
9.96778767e-01
9.96842810e-01
9.96910347e-01
9.96981383e-01
9.97055908e-01
9.97133896e-01
9.97215308e-01
9.97300091e-01
9.97388182e-01
9.97479505e-01
9.97573976e-01
9.97671501e-01
9.97771983e-01
9.97875320e-01
9.97981405e-01
9.98090133e-01
9.98201396e-01
9.98315088e-01
9.98431102e-01
9.98549333e-01
9.98669676e-01
9.98792024e-01
9.98916269e-01
9.99042297e-01
9.99169989e-01
9.99299214e-01
9.99429834e-01
9.99561695e-01
9.99694627e-01
9.99828444e-01
9.99962940e-01
1.00009789e+00
1.00023306e+00
1.00036817e+00
1.00050297e+00
1.00063715e+00
1.00077044e+00
1.00090251e+00
1.00103309e+00
1.00116187e+00
1.00128858e+00
1.00141297e+00
1.00153480e+00
1.00165386e+00
1.00177000e+00
1.00188307e+00
1.00199298e+00
1.00209970e+00
1.00220319e+00
1.00230350e+00
1.00240069e+00
1.00249485e+00
1.00258611e+00
1.00267460e+00
1.00276049e+00
1.00284395e+00
1.00292513e+00
1.00300420e+00
1.00308133e+00
1.00315664e+00
1.00323026e+00
1.00330228e+00
1.00337279e+00
1.00344183e+00
1.00350943e+00
1.00357558e+00
1.00364028e+00
1.00370346e+00
1.00376508e+00
1.00382505e+00
1.00388329e+00
1.00393970e+00
1.00399420e+00
1.00404668e+00
1.00409705e+00
1.00414523e+00
1.00419114e+00
1.00423471e+00
1.00427592e+00
1.00431471e+00
1.00435109e+00
1.00438505e+00
1.00441661e+00
1.00444580e+00
1.00447269e+00
1.00449733e+00
1.00451980e+00
1.00454019e+00
1.00455857e+00
1.00457502e+00
1.00458973e+00
1.00460265e+00
1.00461377e+00
1.00462315e+00
1.00463152e+00
1.00463778e+00
1.00464165e+00
1.00464564e+00
9.96058606e-01
9.96062976e-01
9.96067867e-01
9.96071944e-01
9.96076763e-01
9.96082802e-01
9.96089610e-01
9.96097123e-01
9.96105774e-01
9.96115578e-01
9.96126509e-01
9.96138710e-01
9.96152353e-01
9.96167526e-01
9.96184346e-01
9.96202961e-01
9.96223509e-01
9.96246115e-01
9.96270918e-01
9.96298055e-01
9.96327657e-01
9.96359854e-01
9.96394771e-01
9.96432530e-01
9.96473243e-01
9.96517015e-01
9.96563942e-01
9.96614112e-01
9.96667597e-01
9.96724460e-01
9.96784749e-01
9.96848499e-01
9.96915730e-01
9.96986448e-01
9.97060642e-01
9.97138289e-01
9.97219352e-01
9.97303780e-01
9.97391509e-01
9.97482466e-01
9.97576570e-01
9.97673730e-01
9.97773849e-01
9.97876829e-01
9.97982565e-01
9.98090955e-01
9.98201893e-01
9.98315274e-01
9.98430996e-01
9.98548956e-01
9.98669049e-01
9.98791170e-01
9.98915213e-01
9.99041065e-01
9.99168606e-01
9.99297709e-01
9.99428232e-01
9.99560021e-01
9.99692907e-01
9.99826701e-01
9.99961196e-01
1.00009617e+00
1.00023137e+00
1.00036654e+00
1.00050140e+00
1.00063567e+00
1.00076904e+00
1.00090121e+00
1.00103188e+00
1.00116076e+00
1.00128758e+00
1.00141206e+00
1.00153399e+00
1.00165314e+00
1.00176935e+00
1.00188249e+00
1.00199247e+00
1.00209922e+00
1.00220275e+00
1.00230307e+00
1.00240025e+00
1.00249438e+00
1.00258559e+00
1.00267401e+00
1.00275980e+00
1.00284312e+00
1.00292415e+00
1.00300305e+00
1.00307997e+00
1.00315505e+00
1.00322841e+00
1.00330016e+00
1.00337037e+00
1.00343910e+00
1.00350637e+00
1.00357219e+00
1.00363653e+00
1.00369937e+00
1.00376063e+00
1.00382025e+00
1.00387814e+00
1.00393422e+00
1.00398839e+00
1.00404055e+00
1.00409061e+00
1.00413849e+00
1.00418412e+00
1.00422743e+00
1.00426838e+00
1.00430693e+00
1.00434308e+00
1.00437682e+00
1.00440818e+00
1.00443719e+00
1.00446389e+00
1.00448839e+00
1.00451073e+00
1.00453093e+00
1.00454918e+00
1.00456566e+00
1.00458019e+00
1.00459274e+00
1.00460410e+00
1.00461414e+00
1.00462155e+00
1.00462731e+00
1.00463474e+00
1.00464076e+00
9.96070059e-01
9.96074560e-01
9.96079140e-01
9.96083828e-01
9.96089053e-01
9.96094962e-01
9.96101650e-01
9.96109267e-01
9.96117879e-01
9.96127544e-01
9.96138380e-01
9.96150503e-01
9.96164013e-01
9.96179035e-01
9.96195702e-01
9.96214145e-01
9.96234494e-01
9.96256888e-01
9.96281462e-01
9.96308350e-01
9.96337686e-01
9.96369599e-01
9.96404217e-01
9.96441658e-01
9.96482038e-01
9.96525463e-01
9.96572029e-01
9.96621823e-01
9.96674920e-01
9.96731383e-01
9.96791263e-01
9.96854593e-01
9.96921397e-01
9.96991681e-01
9.97065436e-01
9.97142641e-01
9.97223259e-01
9.97307243e-01
9.97394529e-01
9.97485049e-01
9.97578720e-01
9.97675456e-01
9.97775163e-01
9.97877743e-01
9.97983095e-01
9.98091118e-01
9.98201709e-01
9.98314766e-01
9.98430188e-01
9.98547872e-01
9.98667718e-01
9.98789621e-01
9.98913474e-01
9.99039166e-01
9.99166577e-01
9.99295578e-01
9.99426030e-01
9.99557776e-01
9.99690645e-01
9.99824448e-01
9.99958976e-01
1.00009400e+00
1.00022928e+00
1.00036454e+00
1.00049951e+00
1.00063389e+00
1.00076739e+00
1.00089970e+00
1.00103052e+00
1.00115956e+00
1.00128652e+00
1.00141116e+00
1.00153323e+00
1.00165253e+00
1.00176888e+00
1.00188215e+00
1.00199224e+00
1.00209910e+00
1.00220271e+00
1.00230310e+00
1.00240032e+00
1.00249447e+00
1.00258566e+00
1.00267404e+00
1.00275975e+00
1.00284297e+00
1.00292385e+00
1.00300256e+00
1.00307926e+00
1.00315409e+00
1.00322716e+00
1.00329859e+00
1.00336845e+00
1.00343679e+00
1.00350365e+00
1.00356904e+00
1.00363293e+00
1.00369530e+00
1.00375608e+00
1.00381522e+00
1.00387262e+00
1.00392820e+00
1.00398186e+00
1.00403353e+00
1.00408310e+00
1.00413050e+00
1.00417565e+00
1.00421849e+00
1.00425899e+00
1.00429710e+00
1.00433282e+00
1.00436615e+00
1.00439711e+00
1.00442574e+00
1.00445208e+00
1.00447621e+00
1.00449821e+00
1.00451816e+00
1.00453613e+00
1.00455222e+00
1.00456659e+00
1.00457923e+00
1.00459019e+00
1.00459972e+00
1.00460790e+00
1.00461467e+00
1.00462111e+00
1.00462687e+00
9.96085730e-01
9.96090052e-01
9.96094318e-01
9.96099447e-01
9.96104911e-01
9.96110621e-01
9.96117237e-01
9.96124855e-01
9.96133319e-01
9.96142785e-01
9.96153460e-01
9.96165396e-01
9.96178670e-01
9.96193441e-01
9.96209844e-01
9.96227995e-01
9.96248027e-01
9.96270084e-01
9.96294300e-01
9.96320808e-01
9.96349744e-01
9.96381239e-01
9.96415420e-01
9.96452408e-01
9.96492319e-01
9.96535259e-01
9.96581328e-01
9.96630613e-01
9.96683190e-01
9.96739126e-01
9.96798470e-01
9.96861260e-01
9.96927520e-01
9.96997257e-01
9.97070466e-01
9.97147127e-01
9.97227205e-01
9.97310654e-01
9.97397414e-01
9.97487418e-01
9.97580586e-01
9.97676834e-01
9.97776069e-01
9.97878198e-01
9.97983121e-01
9.98090739e-01
9.98200951e-01
9.98313658e-01
9.98428759e-01
9.98546155e-01
9.98665744e-01
9.98787423e-01
9.98911088e-01
9.99036624e-01
9.99163915e-01
9.99292829e-01
9.99423225e-01
9.99554947e-01
9.99687822e-01
9.99821659e-01
9.99956247e-01
1.00009136e+00
1.00022674e+00
1.00036213e+00
1.00049724e+00
1.00063178e+00
1.00076546e+00
1.00089795e+00
1.00102896e+00
1.00115819e+00
1.00128536e+00
1.00141020e+00
1.00153247e+00
1.00165197e+00
1.00176852e+00
1.00188197e+00
1.00199224e+00
1.00209925e+00
1.00220300e+00
1.00230351e+00
1.00240082e+00
1.00249503e+00
1.00258625e+00
1.00267461e+00
1.00276028e+00
1.00284340e+00
1.00292414e+00
1.00300267e+00
1.00307914e+00
1.00315369e+00
1.00322644e+00
1.00329749e+00
1.00336694e+00
1.00343482e+00
1.00350119e+00
1.00356605e+00
1.00362939e+00
1.00369117e+00
1.00375134e+00
1.00380984e+00
1.00386660e+00
1.00392153e+00
1.00397453e+00
1.00402553e+00
1.00407444e+00
1.00412117e+00
1.00416566e+00
1.00420786e+00
1.00424771e+00
1.00428518e+00
1.00432029e+00
1.00435301e+00
1.00438337e+00
1.00441143e+00
1.00443724e+00
1.00446084e+00
1.00448232e+00
1.00450184e+00
1.00451941e+00
1.00453503e+00
1.00454899e+00
1.00456154e+00
1.00457227e+00
1.00458120e+00
1.00458963e+00
1.00459721e+00
1.00460273e+00
1.00460797e+00
9.96104881e-01
9.96109321e-01
9.96113899e-01
9.96118714e-01
9.96123940e-01
9.96129823e-01
9.96136417e-01
9.96143731e-01
9.96151983e-01
9.96161296e-01
9.96171706e-01
9.96183317e-01
9.96196285e-01
9.96210725e-01
9.96226748e-01
9.96244494e-01
9.96264105e-01
9.96285711e-01
9.96309448e-01
9.96335456e-01
9.96363870e-01
9.96394821e-01
9.96428438e-01
9.96464844e-01
9.96504157e-01
9.96546485e-01
9.96591929e-01
9.96640578e-01
9.96692512e-01
9.96747797e-01
9.96806486e-01
9.96868619e-01
9.96934221e-01
9.97003303e-01
9.97075861e-01
9.97151877e-01
9.97231319e-01
9.97314142e-01
9.97400290e-01
9.97489697e-01
9.97582287e-01
9.97677977e-01
9.97776678e-01
9.97878298e-01
9.97982739e-01
9.98089905e-01
9.98199698e-01
9.98312020e-01
9.98426771e-01
9.98543853e-01
9.98663167e-01
9.98784610e-01
9.98908076e-01
9.99033454e-01
9.99160624e-01
9.99289456e-01
9.99419806e-01
9.99551518e-01
9.99684417e-01
9.99818309e-01
9.99952982e-01
1.00008820e+00
1.00022372e+00
1.00035927e+00
1.00049457e+00
1.00062931e+00
1.00076320e+00
1.00089592e+00
1.00102717e+00
1.00115665e+00
1.00128408e+00
1.00140917e+00
1.00153171e+00
1.00165146e+00
1.00176826e+00
1.00188195e+00
1.00199244e+00
1.00209967e+00
1.00220360e+00
1.00230427e+00
1.00240171e+00
1.00249601e+00
1.00258729e+00
1.00267566e+00
1.00276129e+00
1.00284432e+00
1.00292493e+00
1.00300326e+00
1.00307947e+00
1.00315371e+00
1.00322609e+00
1.00329672e+00
1.00336568e+00
1.00343304e+00
1.00349883e+00
1.00356307e+00
1.00362574e+00
1.00368682e+00
1.00374626e+00
1.00380400e+00
1.00385997e+00
1.00391410e+00
1.00396629e+00
1.00401646e+00
1.00406454e+00
1.00411044e+00
1.00415409e+00
1.00419546e+00
1.00423449e+00
1.00427116e+00
1.00430545e+00
1.00433740e+00
1.00436701e+00
1.00439432e+00
1.00441940e+00
1.00444233e+00
1.00446318e+00
1.00448200e+00
1.00449899e+00
1.00451423e+00
1.00452768e+00
1.00453951e+00
1.00455008e+00
1.00455927e+00
1.00456705e+00
1.00457392e+00
1.00457995e+00
1.00458542e+00
9.96128098e-01
9.96132431e-01
9.96136993e-01
9.96141556e-01
9.96146669e-01
9.96152489e-01
9.96158848e-01
9.96165918e-01
9.96173954e-01
9.96182967e-01
9.96193013e-01
9.96204260e-01
9.96216835e-01
9.96230832e-01
9.96246381e-01
9.96263630e-01
9.96282710e-01
9.96303753e-01
9.96326901e-01
9.96352295e-01
9.96380068e-01
9.96410355e-01
9.96443288e-01
9.96478992e-01
9.96517584e-01
9.96559178e-01
9.96603875e-01
9.96651769e-01
9.96702939e-01
9.96757456e-01
9.96815375e-01
9.96876739e-01
9.96941574e-01
9.97009894e-01
9.97081698e-01
9.97156970e-01
9.97235680e-01
9.97317788e-01
9.97403238e-01
9.97491968e-01
9.97583904e-01
9.97678965e-01
9.97777065e-01
9.97878115e-01
9.97982019e-01
9.98088684e-01
9.98198013e-01
9.98309909e-01
9.98424277e-01
9.98541017e-01
9.98660032e-01
9.98781220e-01
9.98904476e-01
9.99029687e-01
9.99156733e-01
9.99285484e-01
9.99415794e-01
9.99547506e-01
9.99680442e-01
9.99814407e-01
9.99949187e-01
1.00008455e+00
1.00022024e+00
1.00035598e+00
1.00049149e+00
1.00062647e+00
1.00076062e+00
1.00089361e+00
1.00102515e+00
1.00115492e+00
1.00128265e+00
1.00140806e+00
1.00153090e+00
1.00165096e+00
1.00176806e+00
1.00188204e+00
1.00199281e+00
1.00210029e+00
1.00220446e+00
1.00230532e+00
1.00240293e+00
1.00249736e+00
1.00258871e+00
1.00267712e+00
1.00276271e+00
1.00284566e+00
1.00292612e+00
1.00300424e+00
1.00308017e+00
1.00315406e+00
1.00322603e+00
1.00329618e+00
1.00336460e+00
1.00343135e+00
1.00349647e+00
1.00355999e+00
1.00362189e+00
1.00368215e+00
1.00374074e+00
1.00379760e+00
1.00385265e+00
1.00390583e+00
1.00395706e+00
1.00400625e+00
1.00405334e+00
1.00409824e+00
1.00414090e+00
1.00418127e+00
1.00421931e+00
1.00425500e+00
1.00428833e+00
1.00431932e+00
1.00434800e+00
1.00437441e+00
1.00439861e+00
1.00442069e+00
1.00444076e+00
1.00445884e+00
1.00447506e+00
1.00448963e+00
1.00450259e+00
1.00451386e+00
1.00452384e+00
1.00453281e+00
1.00454031e+00
1.00454661e+00
1.00455266e+00
1.00455793e+00
9.96155262e-01
9.96159270e-01
9.96163441e-01
9.96167980e-01
9.96172992e-01
9.96178437e-01
9.96184527e-01
9.96191423e-01
9.96199115e-01
9.96207698e-01
9.96217355e-01
9.96228177e-01
9.96240247e-01
9.96253707e-01
9.96268703e-01
9.96285355e-01
9.96303797e-01
9.96324174e-01
9.96346628e-01
9.96371295e-01
9.96398315e-01
9.96427825e-01
9.96459958e-01
9.96494842e-01
9.96532598e-01
9.96573340e-01
9.96617175e-01
9.96664197e-01
9.96714490e-01
9.96768127e-01
9.96825165e-01
9.96885651e-01
9.96949613e-01
9.97017069e-01
9.97088020e-01
9.97162452e-01
9.97240340e-01
9.97321644e-01
9.97406313e-01
9.97494286e-01
9.97585493e-01
9.97679856e-01
9.97777290e-01
9.97877710e-01
9.97981022e-01
9.98087135e-01
9.98195955e-01
9.98307387e-01
9.98421335e-01
9.98537704e-01
9.98656395e-01
9.98777309e-01
9.98900338e-01
9.99025371e-01
9.99152287e-01
9.99280955e-01
9.99411227e-01
9.99542945e-01
9.99675928e-01
9.99809980e-01
9.99944885e-01
1.00008040e+00
1.00021628e+00
1.00035225e+00
1.00048801e+00
1.00062326e+00
1.00075769e+00
1.00089100e+00
1.00102286e+00
1.00115298e+00
1.00128106e+00
1.00140682e+00
1.00153002e+00
1.00165043e+00
1.00176788e+00
1.00188220e+00
1.00199329e+00
1.00210107e+00
1.00220551e+00
1.00230661e+00
1.00240442e+00
1.00249900e+00
1.00259045e+00
1.00267890e+00
1.00276448e+00
1.00284734e+00
1.00292764e+00
1.00300553e+00
1.00308115e+00
1.00315466e+00
1.00322617e+00
1.00329578e+00
1.00336360e+00
1.00342967e+00
1.00349405e+00
1.00355675e+00
1.00361778e+00
1.00367712e+00
1.00373474e+00
1.00379058e+00
1.00384458e+00
1.00389668e+00
1.00394680e+00
1.00399487e+00
1.00404081e+00
1.00408456e+00
1.00412607e+00
1.00416528e+00
1.00420217e+00
1.00423671e+00
1.00426892e+00
1.00429880e+00
1.00432639e+00
1.00435175e+00
1.00437494e+00
1.00439601e+00
1.00441510e+00
1.00443234e+00
1.00444776e+00
1.00446145e+00
1.00447366e+00
1.00448451e+00
1.00449389e+00
1.00450206e+00
1.00450933e+00
1.00451556e+00
1.00452090e+00
1.00452565e+00
9.96185777e-01
9.96189531e-01
9.96193449e-01
9.96197802e-01
9.96202523e-01
9.96207681e-01
9.96213511e-01
9.96220039e-01
9.96227304e-01
9.96235475e-01
9.96244664e-01
9.96254941e-01
9.96266437e-01
9.96279297e-01
9.96293641e-01
9.96309597e-01
9.96327311e-01
9.96346927e-01
9.96368581e-01
9.96392418e-01
9.96418579e-01
9.96447205e-01
9.96478429e-01
9.96512383e-01
9.96549192e-01
9.96588973e-01
9.96631835e-01
9.96677877e-01
9.96727184e-01
9.96779834e-01
9.96835887e-01
9.96895392e-01
9.96958382e-01
9.97024876e-01
9.97094878e-01
9.97168380e-01
9.97245356e-01
9.97325772e-01
9.97409578e-01
9.97496717e-01
9.97587122e-01
9.97680717e-01
9.97777421e-01
9.97877150e-01
9.97979815e-01
9.98085325e-01
9.98193589e-01
9.98304514e-01
9.98418006e-01
9.98533971e-01
9.98652311e-01
9.98772926e-01
9.98895710e-01
9.99020551e-01
9.99147327e-01
9.99275905e-01
9.99406138e-01
9.99537863e-01
9.99670900e-01
9.99805049e-01
9.99940091e-01
1.00007579e+00
1.00021187e+00
1.00034808e+00
1.00048411e+00
1.00061967e+00
1.00075443e+00
1.00088808e+00
1.00102031e+00
1.00115080e+00
1.00127926e+00
1.00140542e+00
1.00152902e+00
1.00164983e+00
1.00176767e+00
1.00188237e+00
1.00199382e+00
1.00210194e+00
1.00220669e+00
1.00230806e+00
1.00240609e+00
1.00250085e+00
1.00259242e+00
1.00268093e+00
1.00276650e+00
1.00284927e+00
1.00292941e+00
1.00300705e+00
1.00308235e+00
1.00315543e+00
1.00322644e+00
1.00329547e+00
1.00336261e+00
1.00342793e+00
1.00349148e+00
1.00355328e+00
1.00361335e+00
1.00367166e+00
1.00372819e+00
1.00378290e+00
1.00383573e+00
1.00388661e+00
1.00393549e+00
1.00398228e+00
1.00402694e+00
1.00406939e+00
1.00410959e+00
1.00414750e+00
1.00418308e+00
1.00421633e+00
1.00424726e+00
1.00427588e+00
1.00430224e+00
1.00432638e+00
1.00434841e+00
1.00436839e+00
1.00438639e+00
1.00440257e+00
1.00441707e+00
1.00442992e+00
1.00444124e+00
1.00445132e+00
1.00446014e+00
1.00446770e+00
1.00447439e+00
1.00448027e+00
1.00448518e+00
1.00448957e+00
9.96219485e-01
9.96223038e-01
9.96226797e-01
9.96230811e-01
9.96235197e-01
9.96240115e-01
9.96245576e-01
9.96251637e-01
9.96258475e-01
9.96266175e-01
9.96274790e-01
9.96284459e-01
9.96295328e-01
9.96307501e-01
9.96321102e-01
9.96336283e-01
9.96353184e-01
9.96371943e-01
9.96392703e-01
9.96415615e-01
9.96440820e-01
9.96468460e-01
9.96498674e-01
9.96531597e-01
9.96567357e-01
9.96606074e-01
9.96647861e-01
9.96692820e-01
9.96741041e-01
9.96792604e-01
9.96847573e-01
9.96906001e-01
9.96967923e-01
9.97033362e-01
9.97102327e-01
9.97174809e-01
9.97250790e-01
9.97330235e-01
9.97413101e-01
9.97499331e-01
9.97588862e-01
9.97681621e-01
9.97777531e-01
9.97876509e-01
9.97978470e-01
9.98083326e-01
9.98190987e-01
9.98301362e-01
9.98414359e-01
9.98529885e-01
9.98647843e-01
9.98768133e-01
9.98890650e-01
9.99015281e-01
9.99141903e-01
9.99270382e-01
9.99400569e-01
9.99532300e-01
9.99665391e-01
9.99799641e-01
9.99934829e-01
1.00007071e+00
1.00020703e+00
1.00034349e+00
1.00047982e+00
1.00061570e+00
1.00075081e+00
1.00088483e+00
1.00101745e+00
1.00114836e+00
1.00127725e+00
1.00140384e+00
1.00152787e+00
1.00164912e+00
1.00176738e+00
1.00188250e+00
1.00199435e+00
1.00210285e+00
1.00220793e+00
1.00230961e+00
1.00240790e+00
1.00250285e+00
1.00259456e+00
1.00268313e+00
1.00276869e+00
1.00285138e+00
1.00293134e+00
1.00300872e+00
1.00308366e+00
1.00315629e+00
1.00322675e+00
1.00329514e+00
1.00336155e+00
1.00342605e+00
1.00348870e+00
1.00354952e+00
1.00360852e+00
1.00366570e+00
1.00372104e+00
1.00377450e+00
1.00382603e+00
1.00387558e+00
1.00392308e+00
1.00396847e+00
1.00401171e+00
1.00405272e+00
1.00409147e+00
1.00412793e+00
1.00416207e+00
1.00419389e+00
1.00422339e+00
1.00425062e+00
1.00427561e+00
1.00429842e+00
1.00431914e+00
1.00433787e+00
1.00435471e+00
1.00436974e+00
1.00438312e+00
1.00439503e+00
1.00440550e+00
1.00441463e+00
1.00442270e+00
1.00442977e+00
1.00443580e+00
1.00444105e+00
1.00444570e+00
1.00444983e+00
9.96256330e-01
9.96259632e-01
9.96263138e-01
9.96266867e-01
9.96270958e-01
9.96275502e-01
9.96280522e-01
9.96286151e-01
9.96292498e-01
9.96299614e-01
9.96307617e-01
9.96316644e-01
9.96326799e-01
9.96338201e-01
9.96350999e-01
9.96365331e-01
9.96381332e-01
9.96399149e-01
9.96418934e-01
9.96440833e-01
9.96464991e-01
9.96491554e-01
9.96520667e-01
9.96552466e-01
9.96587082e-01
9.96624642e-01
9.96665260e-01
9.96709042e-01
9.96756084e-01
9.96806468e-01
9.96860262e-01
9.96917521e-01
9.96978287e-01
9.97042585e-01
9.97110426e-01
9.97181807e-01
9.97256711e-01
9.97335108e-01
9.97416957e-01
9.97502205e-01
9.97590792e-01
9.97682649e-01
9.97777702e-01
9.97875870e-01
9.97977071e-01
9.98081219e-01
9.98188227e-01
9.98298007e-01
9.98410468e-01
9.98525517e-01
9.98643060e-01
9.98762996e-01
9.98885221e-01
9.99009620e-01
9.99136070e-01
9.99264435e-01
9.99394566e-01
9.99526295e-01
9.99659437e-01
9.99793789e-01
9.99929125e-01
1.00006520e+00
1.00020175e+00
1.00033849e+00
1.00047513e+00
1.00061135e+00
1.00074683e+00
1.00088125e+00
1.00101429e+00
1.00114563e+00
1.00127497e+00
1.00140203e+00
1.00152653e+00
1.00164825e+00
1.00176698e+00
1.00188254e+00
1.00199482e+00
1.00210372e+00
1.00220918e+00
1.00231118e+00
1.00240974e+00
1.00250491e+00
1.00259677e+00
1.00268542e+00
1.00277097e+00
1.00285356e+00
1.00293334e+00
1.00301043e+00
1.00308499e+00
1.00315714e+00
1.00322701e+00
1.00329471e+00
1.00336033e+00
1.00342395e+00
1.00348561e+00
1.00354536e+00
1.00360322e+00
1.00365917e+00
1.00371322e+00
1.00376532e+00
1.00381544e+00
1.00386353e+00
1.00390954e+00
1.00395341e+00
1.00399509e+00
1.00403454e+00
1.00407172e+00
1.00410659e+00
1.00413916e+00
1.00416941e+00
1.00419737e+00
1.00422307e+00
1.00424656e+00
1.00426793e+00
1.00428724e+00
1.00430459e+00
1.00432013e+00
1.00433396e+00
1.00434617e+00
1.00435695e+00
1.00436645e+00
1.00437471e+00
1.00438191e+00
1.00438824e+00
1.00439371e+00
1.00439843e+00
1.00440266e+00
1.00440640e+00
9.96296068e-01
9.96299115e-01
9.96302340e-01
9.96305804e-01
9.96309562e-01
9.96313669e-01
9.96318251e-01
9.96323408e-01
9.96329180e-01
9.96335678e-01
9.96343037e-01
9.96351347e-01
9.96360720e-01
9.96371304e-01
9.96383233e-01
9.96396639e-01
9.96411669e-01
9.96428477e-01
9.96447209e-01
9.96468014e-01
9.96491045e-01
9.96516452e-01
9.96544380e-01
9.96574970e-01
9.96608359e-01
9.96644675e-01
9.96684039e-01
9.96726559e-01
9.96772336e-01
9.96821456e-01
9.96873990e-01
9.96929999e-01
9.96989526e-01
9.97052601e-01
9.97119239e-01
9.97189440e-01
9.97263191e-01
9.97340465e-01
9.97421225e-01
9.97505422e-01
9.97592997e-01
9.97683887e-01
9.97778019e-01
9.97875317e-01
9.97975702e-01
9.98079089e-01
9.98185396e-01
9.98294534e-01
9.98406415e-01
9.98520948e-01
9.98638040e-01
9.98757589e-01
9.98879492e-01
9.99003634e-01
9.99129890e-01
9.99258123e-01
9.99388182e-01
9.99519898e-01
9.99653083e-01
9.99787531e-01
9.99923013e-01
1.00005928e+00
1.00019607e+00
1.00033309e+00
1.00047005e+00
1.00060662e+00
1.00074249e+00
1.00087733e+00
1.00101080e+00
1.00114261e+00
1.00127242e+00
1.00139996e+00
1.00152496e+00
1.00164717e+00
1.00176639e+00
1.00188243e+00
1.00199517e+00
1.00210449e+00
1.00221034e+00
1.00231269e+00
1.00241154e+00
1.00250694e+00
1.00259896e+00
1.00268769e+00
1.00277323e+00
1.00285573e+00
1.00293530e+00
1.00301209e+00
1.00308624e+00
1.00315787e+00
1.00322711e+00
1.00329407e+00
1.00335885e+00
1.00342151e+00
1.00348213e+00
1.00354074e+00
1.00359736e+00
1.00365200e+00
1.00370466e+00
1.00375530e+00
1.00380391e+00
1.00385043e+00
1.00389483e+00
1.00393706e+00
1.00397708e+00
1.00401484e+00
1.00405033e+00
1.00408351e+00
1.00411438e+00
1.00414295e+00
1.00416924e+00
1.00419331e+00
1.00421520e+00
1.00423500e+00
1.00425281e+00
1.00426871e+00
1.00428283e+00
1.00429533e+00
1.00430633e+00
1.00431593e+00
1.00432431e+00
1.00433165e+00
1.00433799e+00
1.00434348e+00
1.00434832e+00
1.00435256e+00
1.00435629e+00
1.00435965e+00
9.96338462e-01
9.96341287e-01
9.96344263e-01
9.96347410e-01
9.96350786e-01
9.96354482e-01
9.96358600e-01
9.96363203e-01
9.96368378e-01
9.96374244e-01
9.96380891e-01
9.96388425e-01
9.96396982e-01
9.96406695e-01
9.96417689e-01
9.96430111e-01
9.96444115e-01
9.96459845e-01
9.96477455e-01
9.96497100e-01
9.96518936e-01
9.96543113e-01
9.96569783e-01
9.96599091e-01
9.96631177e-01
9.96666174e-01
9.96704206e-01
9.96745389e-01
9.96789824e-01
9.96837602e-01
9.96888800e-01
9.96943481e-01
9.97001694e-01
9.97063471e-01
9.97128831e-01
9.97197779e-01
9.97270305e-01
9.97346386e-01
9.97425987e-01
9.97509064e-01
9.97595564e-01
9.97685423e-01
9.97778573e-01
9.97874943e-01
9.97974455e-01
9.98077028e-01
9.98182582e-01
9.98291030e-01
9.98402287e-01
9.98516263e-01
9.98632864e-01
9.98751991e-01
9.98873540e-01
9.98997395e-01
9.99123431e-01
9.99251510e-01
9.99381477e-01
9.99513163e-01
9.99646377e-01
9.99780909e-01
9.99916530e-01
1.00005299e+00
1.00019001e+00
1.00032732e+00
1.00046459e+00
1.00060153e+00
1.00073779e+00
1.00087305e+00
1.00100698e+00
1.00113925e+00
1.00126956e+00
1.00139761e+00
1.00152312e+00
1.00164584e+00
1.00176556e+00
1.00188210e+00
1.00199531e+00
1.00210508e+00
1.00221134e+00
1.00231405e+00
1.00241321e+00
1.00250885e+00
1.00260103e+00
1.00268984e+00
1.00277538e+00
1.00285776e+00
1.00293712e+00
1.00301358e+00
1.00308729e+00
1.00315838e+00
1.00322695e+00
1.00329313e+00
1.00335700e+00
1.00341866e+00
1.00347816e+00
1.00353555e+00
1.00359086e+00
1.00364410e+00
1.00369528e+00
1.00374438e+00
1.00379138e+00
1.00383624e+00
1.00387893e+00
1.00391941e+00
1.00395766e+00
1.00399363e+00
1.00402731e+00
1.00405869e+00
1.00408776e+00
1.00411455e+00
1.00413908e+00
1.00416141e+00
1.00418161e+00
1.00419975e+00
1.00421595e+00
1.00423032e+00
1.00424297e+00
1.00425405e+00
1.00426373e+00
1.00427213e+00
1.00427937e+00
1.00428565e+00
1.00429109e+00
1.00429579e+00
1.00429991e+00
1.00430357e+00
1.00430688e+00
1.00430990e+00
9.96383359e-01
9.96385956e-01
9.96388680e-01
9.96391490e-01
9.96394480e-01
9.96397748e-01
9.96401355e-01
9.96405385e-01
9.96409949e-01
9.96415132e-01
9.96421024e-01
9.96427757e-01
9.96435456e-01
9.96444242e-01
9.96454257e-01
9.96465652e-01
9.96478573e-01
9.96493171e-01
9.96509605e-01
9.96528034e-01
9.96548612e-01
9.96571499e-01
9.96596847e-01
9.96624808e-01
9.96655526e-01
9.96689137e-01
9.96725772e-01
9.96765547e-01
9.96808571e-01
9.96854939e-01
9.96904732e-01
9.96958016e-01
9.97014845e-01
9.97075255e-01
9.97139269e-01
9.97206896e-01
9.97278129e-01
9.97352949e-01
9.97431327e-01
9.97513221e-01
9.97598580e-01
9.97687347e-01
9.97779457e-01
9.97874841e-01
9.97973424e-01
9.98075130e-01
9.98179879e-01
9.98287589e-01
9.98398176e-01
9.98511550e-01
9.98627620e-01
9.98746287e-01
9.98867446e-01
9.98990981e-01
9.99116768e-01
9.99244664e-01
9.99374516e-01
9.99506150e-01
9.99639373e-01
9.99773974e-01
9.99909720e-01
1.00004636e+00
1.00018361e+00
1.00032119e+00
1.00045878e+00
1.00059607e+00
1.00073273e+00
1.00086841e+00
1.00100280e+00
1.00113556e+00
1.00126636e+00
1.00139492e+00
1.00152095e+00
1.00164421e+00
1.00176445e+00
1.00188150e+00
1.00199520e+00
1.00210542e+00
1.00221210e+00
1.00231518e+00
1.00241465e+00
1.00251053e+00
1.00260288e+00
1.00269177e+00
1.00277729e+00
1.00285955e+00
1.00293868e+00
1.00301480e+00
1.00308805e+00
1.00315854e+00
1.00322641e+00
1.00329176e+00
1.00335468e+00
1.00341527e+00
1.00347360e+00
1.00352970e+00
1.00358363e+00
1.00363540e+00
1.00368502e+00
1.00373249e+00
1.00377779e+00
1.00382089e+00
1.00386178e+00
1.00390043e+00
1.00393681e+00
1.00397090e+00
1.00400268e+00
1.00403216e+00
1.00405935e+00
1.00408426e+00
1.00410695e+00
1.00412746e+00
1.00414588e+00
1.00416230e+00
1.00417681e+00
1.00418956e+00
1.00420069e+00
1.00421031e+00
1.00421859e+00
1.00422571e+00
1.00423180e+00
1.00423698e+00
1.00424145e+00
1.00424534e+00
1.00424874e+00
1.00425179e+00
1.00425466e+00
1.00425734e+00
9.96430574e-01
9.96432926e-01
9.96435372e-01
9.96437857e-01
9.96440458e-01
9.96443258e-01
9.96446339e-01
9.96449795e-01
9.96453712e-01
9.96458174e-01
9.96463297e-01
9.96469200e-01
9.96475997e-01
9.96483825e-01
9.96492830e-01
9.96503155e-01
9.96514950e-01
9.96528374e-01
9.96543588e-01
9.96560750e-01
9.96580022e-01
9.96601568e-01
9.96625543e-01
9.96652103e-01
9.96681396e-01
9.96713565e-01
9.96748743e-01
9.96787052e-01
9.96828606e-01
9.96873502e-01
9.96921827e-01
9.96973653e-01
9.97029035e-01
9.97088015e-01
9.97150620e-01
9.97216862e-01
9.97286740e-01
9.97360238e-01
9.97437330e-01
9.97517979e-01
9.97602139e-01
9.97689754e-01
9.97780766e-01
9.97875106e-01
9.97972706e-01
9.98073491e-01
9.98177385e-01
9.98284307e-01
9.98394175e-01
9.98506903e-01
9.98622399e-01
9.98740565e-01
9.98861295e-01
9.98984475e-01
9.99109977e-01
9.99237660e-01
9.99367367e-01
9.99498922e-01
9.99632130e-01
9.99766778e-01
9.99902628e-01
1.00003942e+00
1.00017689e+00
1.00031473e+00
1.00045263e+00
1.00059027e+00
1.00072731e+00
1.00086342e+00
1.00099826e+00
1.00113149e+00
1.00126280e+00
1.00139188e+00
1.00151844e+00
1.00164222e+00
1.00176299e+00
1.00188055e+00
1.00199474e+00
1.00210543e+00
1.00221253e+00
1.00231598e+00
1.00241577e+00
1.00251189e+00
1.00260440e+00
1.00269336e+00
1.00277885e+00
1.00286098e+00
1.00293986e+00
1.00301562e+00
1.00308838e+00
1.00315826e+00
1.00322538e+00
1.00328986e+00
1.00335179e+00
1.00341126e+00
1.00346835e+00
1.00352311e+00
1.00357559e+00
1.00362582e+00
1.00367381e+00
1.00371957e+00
1.00376309e+00
1.00380436e+00
1.00384337e+00
1.00388010e+00
1.00391453e+00
1.00394665e+00
1.00397646e+00
1.00400397e+00
1.00402919e+00
1.00405215e+00
1.00407292e+00
1.00409155e+00
1.00410812e+00
1.00412274e+00
1.00413553e+00
1.00414661e+00
1.00415613e+00
1.00416426e+00
1.00417113e+00
1.00417691e+00
1.00418177e+00
1.00418587e+00
1.00418934e+00
1.00419235e+00
1.00419503e+00
1.00419750e+00
1.00419989e+00
1.00420220e+00
9.96479884e-01
9.96481990e-01
9.96484155e-01
9.96486306e-01
9.96488502e-01
9.96490827e-01
9.96493379e-01
9.96496238e-01
9.96499485e-01
9.96503220e-01
9.96507555e-01
9.96512597e-01
9.96518472e-01
9.96525322e-01
9.96533286e-01
9.96542510e-01
9.96553151e-01
9.96565370e-01
9.96579326e-01
9.96595186e-01
9.96613115e-01
9.96633278e-01
9.96655837e-01
9.96680952e-01
9.96708776e-01
9.96739455e-01
9.96773127e-01
9.96809920e-01
9.96849952e-01
9.96893324e-01
9.96940128e-01
9.96990439e-01
9.97044318e-01
9.97101812e-01
9.97162951e-01
9.97227751e-01
9.97296215e-01
9.97368332e-01
9.97444081e-01
9.97523428e-01
9.97606330e-01
9.97692738e-01
9.97782594e-01
9.97875837e-01
9.97972399e-01
9.98072211e-01
9.98175197e-01
9.98281282e-01
9.98390384e-01
9.98502418e-01
9.98617295e-01
9.98734916e-01
9.98855177e-01
9.98977962e-01
9.99103143e-01
9.99230577e-01
9.99360104e-01
9.99491548e-01
9.99624712e-01
9.99759377e-01
9.99895306e-01
1.00003224e+00
1.00016989e+00
1.00030797e+00
1.00044616e+00