# vtk DataFile Version 2.0
LBM Flow Field - Timestep 1950
ASCII
DATASET STRUCTURED_POINTS
DIMENSIONS 128 128 1
ORIGIN 0.0 0.0 0.0
SPACING 1.0 1.0 1.0
POINT_DATA 16384
SCALARS density double 1
LOOKUP_TABLE default
9.97681498e-01
9.97689872e-01
9.97700440e-01
9.97703143e-01
9.97707372e-01
9.97714553e-01
9.97722148e-01
9.97730217e-01
9.97739832e-01
9.97750701e-01
9.97762465e-01
9.97775241e-01
9.97789116e-01
9.97803985e-01
9.97819815e-01
9.97836628e-01
9.97854426e-01
9.97873203e-01
9.97892979e-01
9.97913788e-01
9.97935672e-01
9.97958684e-01
9.97982893e-01
9.98008375e-01
9.98035217e-01
9.98063512e-01
9.98093356e-01
9.98124843e-01
9.98158065e-01
9.98193106e-01
9.98230036e-01
9.98268911e-01
9.98309767e-01
9.98352617e-01
9.98397451e-01
9.98444231e-01
9.98492895e-01
9.98543351e-01
9.98595485e-01
9.98649159e-01
9.98704219e-01
9.98760491e-01
9.98817795e-01
9.98875945e-01
9.98934753e-01
9.98994040e-01
9.99053637e-01
9.99113391e-01
9.99173169e-01
9.99232861e-01
9.99292385e-01
9.99351686e-01
9.99410738e-01
9.99469541e-01
9.99528127e-01
9.99586548e-01
9.99644883e-01
9.99703228e-01
9.99761698e-01
9.99820419e-01
9.99879525e-01
9.99939158e-01
9.99999460e-01
1.00006057e+00
1.00012263e+00
1.00018575e+00
1.00025007e+00
1.00031568e+00
1.00038267e+00
1.00045111e+00
1.00052105e+00
1.00059253e+00
1.00066556e+00
1.00074011e+00
1.00081616e+00
1.00089364e+00
1.00097247e+00
1.00105252e+00
1.00113368e+00
1.00121576e+00
1.00129860e+00
1.00138198e+00
1.00146567e+00
1.00154944e+00
1.00163302e+00
1.00171615e+00
1.00179854e+00
1.00187991e+00
1.00195999e+00
1.00203847e+00
1.00211511e+00
1.00218962e+00
1.00226178e+00
1.00233134e+00
1.00239811e+00
1.00246191e+00
1.00252258e+00
1.00258001e+00
1.00263409e+00
1.00268477e+00
1.00273201e+00
1.00277581e+00
1.00281620e+00
1.00285323e+00
1.00288697e+00
1.00291752e+00
1.00294501e+00
1.00296956e+00
1.00299133e+00
1.00301047e+00
1.00302716e+00
1.00304158e+00
1.00305390e+00
1.00306430e+00
1.00307297e+00
1.00308011e+00
1.00308588e+00
1.00309038e+00
1.00309389e+00
1.00309671e+00
1.00309865e+00
1.00309957e+00
1.00310074e+00
1.00310236e+00
1.00310184e+00
1.00310074e+00
1.00310891e+00
1.00311594e+00
9.97688546e-01
9.97691005e-01
9.97698335e-01
9.97702604e-01
9.97707743e-01
9.97714323e-01
9.97722045e-01
9.97730571e-01
9.97740282e-01
9.97751121e-01
9.97763042e-01
9.97775975e-01
9.97789947e-01
9.97804921e-01
9.97820890e-01
9.97837834e-01
9.97855763e-01
9.97874680e-01
9.97894607e-01
9.97915573e-01
9.97937623e-01
9.97960812e-01
9.97985206e-01
9.98010881e-01
9.98037924e-01
9.98066425e-01
9.98096477e-01
9.98128173e-01
9.98161601e-01
9.98196840e-01
9.98233959e-01
9.98273010e-01
9.98314025e-01
9.98357014e-01
9.98401965e-01
9.98448837e-01
9.98497566e-01
9.98548060e-01
9.98600205e-01
9.98653864e-01
9.98708882e-01
9.98765089e-01
9.98822306e-01
9.98880349e-01
9.98939036e-01
9.98998190e-01
9.99057644e-01
9.99117249e-01
9.99176875e-01
9.99236415e-01
9.99295788e-01
9.99354940e-01
9.99413847e-01
9.99472511e-01
9.99530960e-01
9.99589249e-01
9.99647455e-01
9.99705672e-01
9.99764014e-01
9.99822604e-01
9.99881577e-01
9.99941071e-01
1.00000123e+00
1.00006218e+00
1.00012408e+00
1.00018703e+00
1.00025116e+00
1.00031656e+00
1.00038334e+00
1.00045155e+00
1.00052125e+00
1.00059247e+00
1.00066522e+00
1.00073949e+00
1.00081524e+00
1.00089240e+00
1.00097090e+00
1.00105062e+00
1.00113143e+00
1.00121316e+00
1.00129565e+00
1.00137867e+00
1.00146202e+00
1.00154545e+00
1.00162870e+00
1.00171151e+00
1.00179361e+00
1.00187472e+00
1.00195456e+00
1.00203284e+00
1.00210931e+00
1.00218371e+00
1.00225578e+00
1.00232531e+00
1.00239210e+00
1.00245596e+00
1.00251674e+00
1.00257431e+00
1.00262858e+00
1.00267949e+00
1.00272700e+00
1.00277109e+00
1.00281179e+00
1.00284915e+00
1.00288324e+00
1.00291414e+00
1.00294198e+00
1.00296688e+00
1.00298900e+00
1.00300847e+00
1.00302548e+00
1.00304019e+00
1.00305279e+00
1.00306345e+00
1.00307237e+00
1.00307971e+00
1.00308566e+00
1.00309039e+00
1.00309412e+00
1.00309694e+00
1.00309901e+00
1.00310043e+00
1.00310173e+00
1.00310271e+00
1.00310312e+00
1.00310373e+00
1.00310857e+00
1.00310952e+00
9.97694246e-01
9.97693176e-01
9.97692700e-01
9.97699215e-01
9.97706238e-01
9.97711985e-01
9.97719393e-01
9.97728573e-01
9.97738542e-01
9.97749416e-01
9.97761546e-01
9.97774764e-01
9.97788948e-01
9.97804143e-01
9.97820361e-01
9.97837560e-01
9.97855739e-01
9.97874917e-01
9.97895113e-01
9.97916354e-01
9.97938685e-01
9.97962161e-01
9.97986848e-01
9.98012821e-01
9.98040166e-01
9.98068969e-01
9.98099323e-01
9.98131318e-01
9.98165039e-01
9.98200563e-01
9.98237955e-01
9.98277264e-01
9.98318519e-01
9.98361728e-01
9.98406874e-01
9.98453916e-01
9.98502788e-01
9.98553397e-01
9.98605627e-01
9.98659342e-01
9.98714387e-01
9.98770594e-01
9.98827785e-01
9.98885779e-01
9.98944394e-01
9.99003457e-01
9.99062803e-01
9.99122286e-01
9.99181779e-01
9.99241176e-01
9.99300398e-01
9.99359394e-01
9.99418138e-01
9.99476635e-01
9.99534913e-01
9.99593027e-01
9.99651051e-01
9.99709083e-01
9.99767231e-01
9.99825621e-01
9.99884384e-01
9.99943659e-01
1.00000358e+00
1.00006430e+00
1.00012593e+00
1.00018862e+00
1.00025246e+00
1.00031757e+00
1.00038403e+00
1.00045192e+00
1.00052127e+00
1.00059214e+00
1.00066452e+00
1.00073841e+00
1.00081376e+00
1.00089052e+00
1.00096861e+00
1.00104792e+00
1.00112832e+00
1.00120964e+00
1.00129171e+00
1.00137434e+00
1.00145731e+00
1.00154037e+00
1.00162328e+00
1.00170578e+00
1.00178760e+00
1.00186847e+00
1.00194810e+00
1.00202624e+00
1.00210261e+00
1.00217696e+00
1.00224904e+00
1.00231864e+00
1.00238555e+00
1.00244959e+00
1.00251060e+00
1.00256847e+00
1.00262308e+00
1.00267437e+00
1.00272230e+00
1.00276685e+00
1.00280803e+00
1.00284589e+00
1.00288048e+00
1.00291191e+00
1.00294026e+00
1.00296567e+00
1.00298827e+00
1.00300822e+00
1.00302568e+00
1.00304081e+00
1.00305380e+00
1.00306483e+00
1.00307409e+00
1.00308173e+00
1.00308794e+00
1.00309299e+00
1.00309693e+00
1.00309978e+00
1.00310209e+00
1.00310415e+00
1.00310509e+00
1.00310514e+00
1.00310751e+00
1.00311042e+00
1.00310720e+00
1.00310456e+00
9.97687177e-01
9.97687509e-01
9.97689795e-01
9.97694903e-01
9.97700255e-01
9.97706989e-01
9.97715100e-01
9.97724155e-01
9.97734268e-01
9.97745617e-01
9.97758065e-01
9.97771546e-01
9.97786082e-01
9.97801658e-01
9.97818233e-01
9.97835800e-01
9.97854367e-01
9.97873937e-01
9.97894527e-01
9.97916169e-01
9.97938906e-01
9.97962790e-01
9.97987887e-01
9.98014271e-01
9.98042023e-01
9.98071230e-01
9.98101982e-01
9.98134365e-01
9.98168463e-01
9.98204348e-01
9.98242084e-01
9.98281715e-01
9.98323269e-01
9.98366751e-01
9.98412143e-01
9.98459401e-01
9.98508457e-01
9.98559218e-01
9.98611569e-01
9.98665372e-01
9.98720476e-01
9.98776711e-01
9.98833904e-01
9.98891873e-01
9.98950441e-01
9.99009435e-01
9.99068695e-01
9.99128076e-01
9.99187452e-01
9.99246720e-01
9.99305803e-01
9.99364649e-01
9.99423236e-01
9.99481566e-01
9.99539668e-01
9.99597596e-01
9.99655425e-01
9.99713250e-01
9.99771181e-01
9.99829339e-01
9.99887857e-01
9.99946871e-01
1.00000652e+00
1.00006694e+00
1.00012826e+00
1.00019062e+00
1.00025412e+00
1.00031886e+00
1.00038494e+00
1.00045243e+00
1.00052137e+00
1.00059181e+00
1.00066374e+00
1.00073717e+00
1.00081207e+00
1.00088836e+00
1.00096597e+00
1.00104480e+00
1.00112472e+00
1.00120558e+00
1.00128720e+00
1.00136939e+00
1.00145193e+00
1.00153460e+00
1.00161715e+00
1.00169932e+00
1.00178086e+00
1.00186149e+00
1.00194094e+00
1.00201895e+00
1.00209525e+00
1.00216959e+00
1.00224174e+00
1.00231146e+00
1.00237857e+00
1.00244287e+00
1.00250421e+00
1.00256246e+00
1.00261751e+00
1.00266930e+00
1.00271776e+00
1.00276289e+00
1.00280469e+00
1.00284318e+00
1.00287843e+00
1.00291051e+00
1.00293952e+00
1.00296558e+00
1.00298882e+00
1.00300940e+00
1.00302745e+00
1.00304316e+00
1.00305670e+00
1.00306823e+00
1.00307795e+00
1.00308605e+00
1.00309267e+00
1.00309801e+00
1.00310228e+00
1.00310561e+00
1.00310804e+00
1.00310993e+00
1.00311156e+00
1.00311260e+00
1.00311319e+00
1.00311461e+00
1.00311425e+00
1.00311305e+00
9.97677995e-01
9.97679613e-01
9.97683633e-01
9.97687016e-01
9.97692234e-01
9.97700028e-01
9.97708281e-01
9.97717309e-01
9.97727887e-01
9.97739730e-01
9.97752519e-01
9.97766400e-01
9.97781417e-01
9.97797465e-01
9.97814509e-01
9.97832571e-01
9.97851645e-01
9.97871724e-01
9.97892830e-01
9.97914993e-01
9.97938254e-01
9.97962662e-01
9.97988281e-01
9.98015185e-01
9.98043450e-01
9.98073163e-01
9.98104408e-01
9.98137271e-01
9.98171830e-01
9.98208157e-01
9.98246310e-01
9.98286333e-01
9.98328249e-01
9.98372061e-01
9.98417749e-01
9.98465268e-01
9.98514549e-01
9.98565499e-01
9.98618003e-01
9.98671924e-01
9.98727111e-01
9.98783398e-01
9.98840611e-01
9.98898574e-01
9.98957110e-01
9.99016051e-01
9.99075238e-01
9.99134528e-01
9.99193797e-01
9.99252946e-01
9.99311897e-01
9.99370601e-01
9.99429034e-01
9.99487200e-01
9.99545126e-01
9.99602867e-01
9.99660496e-01
9.99718106e-01
9.99775805e-01
9.99833716e-01
9.99891968e-01
9.99950696e-01
1.00001004e+00
1.00007013e+00
1.00013111e+00
1.00019309e+00
1.00025619e+00
1.00032052e+00
1.00038617e+00
1.00045320e+00
1.00052166e+00
1.00059161e+00
1.00066304e+00
1.00073595e+00
1.00081030e+00
1.00088606e+00
1.00096313e+00
1.00104142e+00
1.00112080e+00
1.00120112e+00
1.00128223e+00
1.00136392e+00
1.00144599e+00
1.00152822e+00
1.00161037e+00
1.00169218e+00
1.00177341e+00
1.00185379e+00
1.00193305e+00
1.00201094e+00
1.00208719e+00
1.00216155e+00
1.00223380e+00
1.00230371e+00
1.00237107e+00
1.00243570e+00
1.00249745e+00
1.00255618e+00
1.00261179e+00
1.00266418e+00
1.00271331e+00
1.00275915e+00
1.00280170e+00
1.00284097e+00
1.00287702e+00
1.00290991e+00
1.00293974e+00
1.00296661e+00
1.00299066e+00
1.00301201e+00
1.00303082e+00
1.00304725e+00
1.00306147e+00
1.00307366e+00
1.00308397e+00
1.00309263e+00
1.00309980e+00
1.00310558e+00
1.00311021e+00
1.00311403e+00
1.00311691e+00
1.00311873e+00
1.00312045e+00
1.00312255e+00
1.00312296e+00
1.00312253e+00
1.00312396e+00
1.00312408e+00
9.97668332e-01
9.97669355e-01
9.97672444e-01
9.97676930e-01
9.97683216e-01
9.97690355e-01
9.97698622e-01
9.97708513e-01
9.97719583e-01
9.97731665e-01
9.97744964e-01
9.97759461e-01
9.97775011e-01
9.97791599e-01
9.97809246e-01
9.97827922e-01
9.97847604e-01
9.97868305e-01
9.97890043e-01
9.97912840e-01
9.97936734e-01
9.97961775e-01
9.97988023e-01
9.98015548e-01
9.98044426e-01
9.98074739e-01
9.98106568e-01
9.98139996e-01
9.98175098e-01
9.98211942e-01
9.98250584e-01
9.98291064e-01
9.98333403e-01
9.98377602e-01
9.98423639e-01
9.98471468e-01
9.98521018e-01
9.98572197e-01
9.98624890e-01
9.98678962e-01
9.98734262e-01
9.98790628e-01
9.98847888e-01
9.98905867e-01
9.98964393e-01
9.99023298e-01
9.99082428e-01
9.99141642e-01
9.99200819e-01
9.99259860e-01
9.99318689e-01
9.99377257e-01
9.99435541e-01
9.99493544e-01
9.99551294e-01
9.99608843e-01
9.99666264e-01
9.99723648e-01
9.99781103e-01
9.99838748e-01
9.99896712e-01
9.99955128e-01
1.00001413e+00
1.00007386e+00
1.00013445e+00
1.00019602e+00
1.00025868e+00
1.00032255e+00
1.00038770e+00
1.00045421e+00
1.00052214e+00
1.00059153e+00
1.00066239e+00
1.00073471e+00
1.00080847e+00
1.00088361e+00
1.00096008e+00
1.00103775e+00
1.00111653e+00
1.00119626e+00
1.00127679e+00
1.00135793e+00
1.00143948e+00
1.00152123e+00
1.00160294e+00
1.00168437e+00
1.00176527e+00
1.00184539e+00
1.00192446e+00
1.00200223e+00
1.00207845e+00
1.00215287e+00
1.00222526e+00
1.00229539e+00
1.00236307e+00
1.00242812e+00
1.00249036e+00
1.00254967e+00
1.00260593e+00
1.00265905e+00
1.00270897e+00
1.00275565e+00
1.00279908e+00
1.00283927e+00
1.00287627e+00
1.00291012e+00
1.00294092e+00
1.00296876e+00
1.00299375e+00
1.00301603e+00
1.00303575e+00
1.00305304e+00
1.00306809e+00
1.00308106e+00
1.00309212e+00
1.00310142e+00
1.00310920e+00
1.00311564e+00
1.00312079e+00
1.00312484e+00
1.00312820e+00
1.00313086e+00
1.00313253e+00
1.00313389e+00
1.00313536e+00
1.00313604e+00
1.00313643e+00
1.00313587e+00
9.97655706e-01
9.97656782e-01
9.97659561e-01
9.97664759e-01
9.97671138e-01
9.97678302e-01
9.97687269e-01
9.97697662e-01
9.97709035e-01
9.97721676e-01
9.97735653e-01
9.97750742e-01
9.97766902e-01
9.97784180e-01
9.97802531e-01
9.97821905e-01
9.97842304e-01
9.97863739e-01
9.97886212e-01
9.97909745e-01
9.97934376e-01
9.97960152e-01
9.97987128e-01
9.98015370e-01
9.98044953e-01
9.98075955e-01
9.98108453e-01
9.98142527e-01
9.98178249e-01
9.98215683e-01
9.98254883e-01
9.98295884e-01
9.98338706e-01
9.98383347e-01
9.98429783e-01
9.98477969e-01
9.98527832e-01
9.98579280e-01
9.98632200e-01
9.98686456e-01
9.98741901e-01
9.98798374e-01
9.98855706e-01
9.98913726e-01
9.98972263e-01
9.99031154e-01
9.99090245e-01
9.99149400e-01
9.99208498e-01
9.99267443e-01
9.99326160e-01
9.99384599e-01
9.99442740e-01
9.99500583e-01
9.99558156e-01
9.99615509e-01
9.99672715e-01
9.99729862e-01
9.99787057e-01
9.99844417e-01
9.99902070e-01
9.99960147e-01
1.00001878e+00
1.00007812e+00
1.00013828e+00
1.00019939e+00
1.00026156e+00
1.00032491e+00
1.00038951e+00
1.00045546e+00
1.00052279e+00
1.00059156e+00
1.00066178e+00
1.00073345e+00
1.00080654e+00
1.00088101e+00
1.00095680e+00
1.00103380e+00
1.00111191e+00
1.00119099e+00
1.00127089e+00
1.00135143e+00
1.00143242e+00
1.00151364e+00
1.00159488e+00
1.00167590e+00
1.00175645e+00
1.00183630e+00
1.00191518e+00
1.00199285e+00
1.00206906e+00
1.00214356e+00
1.00221613e+00
1.00228655e+00
1.00235462e+00
1.00242014e+00
1.00248297e+00
1.00254295e+00
1.00259997e+00
1.00265392e+00
1.00270474e+00
1.00275239e+00
1.00279684e+00
1.00283809e+00
1.00287617e+00
1.00291113e+00
1.00294304e+00
1.00297198e+00
1.00299807e+00
1.00302142e+00
1.00304217e+00
1.00306047e+00
1.00307647e+00
1.00309034e+00
1.00310226e+00
1.00311238e+00
1.00312085e+00
1.00312793e+00
1.00313378e+00
1.00313839e+00
1.00314201e+00
1.00314513e+00
1.00314748e+00
1.00314879e+00
1.00315028e+00
1.00315164e+00
1.00315164e+00
1.00315107e+00
9.97640138e-01
9.97641645e-01
9.97645120e-01
9.97650147e-01
9.97656495e-01
9.97664542e-01
9.97674008e-01
9.97684574e-01
9.97696579e-01
9.97710005e-01
9.97724581e-01
9.97740309e-01
9.97757247e-01
9.97775310e-01
9.97794426e-01
9.97814600e-01
9.97835827e-01
9.97858090e-01
9.97881392e-01
9.97905761e-01
9.97931226e-01
9.97957829e-01
9.97985623e-01
9.98014673e-01
9.98045047e-01
9.98076819e-01
9.98110065e-01
9.98144860e-01
9.98181272e-01
9.98219363e-01
9.98259182e-01
9.98300763e-01
9.98344123e-01
9.98389257e-01
9.98436141e-01
9.98484727e-01
9.98534944e-01
9.98586699e-01
9.98639879e-01
9.98694352e-01
9.98749972e-01
9.98806580e-01
9.98864011e-01
9.98922095e-01
9.98980665e-01
9.99039561e-01
9.99098633e-01
9.99157746e-01
9.99216781e-01
9.99275643e-01
9.99334258e-01
9.99392579e-01
9.99450582e-01
9.99508268e-01
9.99565665e-01
9.99622820e-01
9.99679805e-01
9.99736706e-01
9.99793627e-01
9.99850685e-01
9.99908005e-01
9.99965718e-01
1.00002396e+00
1.00008286e+00
1.00014255e+00
1.00020316e+00
1.00026480e+00
1.00032758e+00
1.00039159e+00
1.00045691e+00
1.00052359e+00
1.00059168e+00
1.00066120e+00
1.00073215e+00
1.00080451e+00
1.00087825e+00
1.00095330e+00
1.00102957e+00
1.00110695e+00
1.00118533e+00
1.00126455e+00
1.00134444e+00
1.00142482e+00
1.00150548e+00
1.00158622e+00
1.00166681e+00
1.00174701e+00
1.00182658e+00
1.00190527e+00
1.00198285e+00
1.00205907e+00
1.00213369e+00
1.00220648e+00
1.00227724e+00
1.00234575e+00
1.00241183e+00
1.00247531e+00
1.00253605e+00
1.00259392e+00
1.00264881e+00
1.00270065e+00
1.00274938e+00
1.00279497e+00
1.00283740e+00
1.00287670e+00
1.00291290e+00
1.00294605e+00
1.00297624e+00
1.00300355e+00
1.00302810e+00
1.00305002e+00
1.00306945e+00
1.00308653e+00
1.00310142e+00
1.00311428e+00
1.00312532e+00
1.00313466e+00
1.00314244e+00
1.00314891e+00
1.00315431e+00
1.00315854e+00
1.00316178e+00
1.00316457e+00
1.00316673e+00
1.00316811e+00
1.00316923e+00
1.00316989e+00
1.00316971e+00
9.97622926e-01
9.97624566e-01
9.97628269e-01
9.97633420e-01
9.97640254e-01
9.97648787e-01
9.97658556e-01
9.97669762e-01
9.97682525e-01
9.97696559e-01
9.97711823e-01
9.97728390e-01
9.97746162e-01
9.97765043e-01
9.97785030e-01
9.97806111e-01
9.97828244e-01
9.97851417e-01
9.97875644e-01
9.97900937e-01
9.97927321e-01
9.97954836e-01
9.97983533e-01
9.98013469e-01
9.98044711e-01
9.98077328e-01
9.98111393e-01
9.98146977e-01
9.98184144e-01
9.98222952e-01
9.98263448e-01
9.98305663e-01
9.98349610e-01
9.98395284e-01
9.98442659e-01
9.98491686e-01
9.98542294e-01
9.98594391e-01
9.98647865e-01
9.98702586e-01
9.98758409e-01
9.98815178e-01
9.98872732e-01
9.98930903e-01
9.98989529e-01
9.99048451e-01
9.99107522e-01
9.99166609e-01
9.99225597e-01
9.99284390e-01
9.99342916e-01
9.99401127e-01
9.99459000e-01
9.99516536e-01
9.99573758e-01
9.99630716e-01
9.99687475e-01
9.99744123e-01
9.99800761e-01
9.99857502e-01
9.99914471e-01
9.99971797e-01
1.00002961e+00
1.00008805e+00
1.00014725e+00
1.00020732e+00
1.00026839e+00
1.00033055e+00
1.00039392e+00
1.00045855e+00
1.00052453e+00
1.00059188e+00
1.00066065e+00
1.00073083e+00
1.00080241e+00
1.00087535e+00
1.00094960e+00
1.00102509e+00
1.00110170e+00
1.00117932e+00
1.00125781e+00
1.00133701e+00
1.00141674e+00
1.00149682e+00
1.00157703e+00
1.00165716e+00
1.00173699e+00
1.00181628e+00
1.00189479e+00
1.00197229e+00
1.00204854e+00
1.00212331e+00
1.00219636e+00
1.00226750e+00
1.00233651e+00
1.00240321e+00
1.00246743e+00
1.00252901e+00
1.00258782e+00
1.00264375e+00
1.00269671e+00
1.00274663e+00
1.00279347e+00
1.00283720e+00
1.00287783e+00
1.00291539e+00
1.00294991e+00
1.00298146e+00
1.00301013e+00
1.00303601e+00
1.00305922e+00
1.00307989e+00
1.00309816e+00
1.00311420e+00
1.00312813e+00
1.00314013e+00
1.00315042e+00
1.00315910e+00
1.00316629e+00
1.00317229e+00
1.00317727e+00
1.00318111e+00
1.00318414e+00
1.00318673e+00
1.00318855e+00
1.00318971e+00
1.00319055e+00
1.00319045e+00
9.97603953e-01
9.97605581e-01
9.97609317e-01
9.97614963e-01
9.97622295e-01
9.97631066e-01
9.97641410e-01
9.97653409e-01
9.97666781e-01
9.97681497e-01
9.97697641e-01
9.97715081e-01
9.97733701e-01
9.97753506e-01
9.97774466e-01
9.97796514e-01
9.97819624e-01
9.97843797e-01
9.97869027e-01
9.97895320e-01
9.97922699e-01
9.97951203e-01
9.97980875e-01
9.98011768e-01
9.98043946e-01
9.98077475e-01
9.98112421e-01
9.98148853e-01
9.98186832e-01
9.98226411e-01
9.98267635e-01
9.98310530e-01
9.98355110e-01
9.98401366e-01
9.98449271e-01
9.98498776e-01
9.98549809e-01
9.98602280e-01
9.98656078e-01
9.98711075e-01
9.98767128e-01
9.98824084e-01
9.98881785e-01
9.98940067e-01
9.98998769e-01
9.99057738e-01
9.99116827e-01
9.99175907e-01
9.99234864e-01
9.99293604e-01
9.99352055e-01
9.99410169e-01
9.99467922e-01
9.99525313e-01
9.99582367e-01
9.99639128e-01
9.99695662e-01
9.99752053e-01
9.99808400e-01
9.99864814e-01
9.99921418e-01
9.99978340e-01
1.00003571e+00
1.00009366e+00
1.00015233e+00
1.00021183e+00
1.00027228e+00
1.00033380e+00
1.00039648e+00
1.00046039e+00
1.00052561e+00
1.00059219e+00
1.00066014e+00
1.00072950e+00
1.00080024e+00
1.00087234e+00
1.00094575e+00
1.00102039e+00
1.00109618e+00
1.00117300e+00
1.00125072e+00
1.00132919e+00
1.00140824e+00
1.00148770e+00
1.00156737e+00
1.00164703e+00
1.00172648e+00
1.00180548e+00
1.00188382e+00
1.00196125e+00
1.00203755e+00
1.00211249e+00
1.00218585e+00
1.00225742e+00
1.00232699e+00
1.00239437e+00
1.00245938e+00
1.00252188e+00
1.00258171e+00
1.00263876e+00
1.00269293e+00
1.00274414e+00
1.00279234e+00
1.00283748e+00
1.00287956e+00
1.00291858e+00
1.00295459e+00
1.00298762e+00
1.00301775e+00
1.00304507e+00
1.00306968e+00
1.00309170e+00
1.00311127e+00
1.00312853e+00
1.00314365e+00
1.00315675e+00
1.00316800e+00
1.00317764e+00
1.00318576e+00
1.00319245e+00
1.00319801e+00
1.00320261e+00
1.00320617e+00
1.00320893e+00
1.00321119e+00
1.00321280e+00
1.00321361e+00
1.00321345e+00
9.97583055e-01
9.97584881e-01
9.97588856e-01
9.97594832e-01
9.97602506e-01
9.97611807e-01
9.97622846e-01
9.97635449e-01
9.97649517e-01
9.97665116e-01
9.97682135e-01
9.97700440e-01
9.97720023e-01
9.97740843e-01
9.97762812e-01
9.97785888e-01
9.97810059e-01
9.97835300e-01
9.97861595e-01
9.97888955e-01
9.97917399e-01
9.97946955e-01
9.97977663e-01
9.98009575e-01
9.98042749e-01
9.98077244e-01
9.98113127e-01
9.98150458e-01
9.98189297e-01
9.98229694e-01
9.98271689e-01
9.98315308e-01
9.98360559e-01
9.98407434e-01
9.98455904e-01
9.98505919e-01
9.98557410e-01
9.98610285e-01
9.98664435e-01
9.98719734e-01
9.98776042e-01
9.98833211e-01
9.98891082e-01
9.98949497e-01
9.99008298e-01
9.99067334e-01
9.99126462e-01
9.99185553e-01
9.99244497e-01
9.99303200e-01
9.99361591e-01
9.99419621e-01
9.99477266e-01
9.99534524e-01
9.99591416e-01
9.99647987e-01
9.99704298e-01
9.99760431e-01
9.99816483e-01
9.99872563e-01
9.99928792e-01
9.99985295e-01
1.00004220e+00
1.00009965e+00
1.00015776e+00
1.00021666e+00
1.00027647e+00
1.00033731e+00
1.00039926e+00
1.00046241e+00
1.00052683e+00
1.00059258e+00
1.00065969e+00
1.00072817e+00
1.00079803e+00
1.00086924e+00
1.00094176e+00
1.00101552e+00
1.00109044e+00
1.00116642e+00
1.00124333e+00
1.00132104e+00
1.00139939e+00
1.00147821e+00
1.00155731e+00
1.00163649e+00
1.00171555e+00
1.00179427e+00
1.00187243e+00
1.00194981e+00
1.00202619e+00
1.00210133e+00
1.00217503e+00
1.00224706e+00
1.00231723e+00
1.00238535e+00
1.00245123e+00
1.00251471e+00
1.00257564e+00
1.00263389e+00
1.00268936e+00
1.00274195e+00
1.00279159e+00
1.00283823e+00
1.00288185e+00
1.00292245e+00
1.00296003e+00
1.00299465e+00
1.00302634e+00
1.00305520e+00
1.00308131e+00
1.00310479e+00
1.00312576e+00
1.00314434e+00
1.00316070e+00
1.00317500e+00
1.00318736e+00
1.00319795e+00
1.00320700e+00
1.00321459e+00
1.00322084e+00
1.00322601e+00
1.00323022e+00
1.00323346e+00
1.00323600e+00
1.00323788e+00
1.00323888e+00
1.00323889e+00
9.97560568e-01
9.97562620e-01
9.97566923e-01
9.97573176e-01
9.97581271e-01
9.97591211e-01
9.97602854e-01
9.97616108e-01
9.97631025e-01
9.97647500e-01
9.97665384e-01
9.97684661e-01
9.97705282e-01
9.97727135e-01
9.97750164e-01
9.97774345e-01
9.97799633e-01
9.97825989e-01
9.97853409e-01
9.97881895e-01
9.97911456e-01
9.97942117e-01
9.97973915e-01
9.98006897e-01
9.98041113e-01
9.98076623e-01
9.98113486e-01
9.98151760e-01
9.98191501e-01
9.98232755e-01
9.98275558e-01
9.98319935e-01
9.98365891e-01
9.98413417e-01
9.98462483e-01
9.98513038e-01
9.98565013e-01
9.98618319e-01
9.98672846e-01
9.98728473e-01
9.98785061e-01
9.98842465e-01
9.98900529e-01
9.98959100e-01
9.99018021e-01
9.99077145e-01
9.99136332e-01
9.99195456e-01
9.99254405e-01
9.99313090e-01
9.99371437e-01
9.99429399e-01
9.99486950e-01
9.99544087e-01
9.99600828e-01
9.99657215e-01
9.99713309e-01
9.99769187e-01
9.99824945e-01
9.99880688e-01
9.99936535e-01
9.99992610e-01
1.00004904e+00
1.00010596e+00
1.00016350e+00
1.00022178e+00
1.00028093e+00
1.00034105e+00
1.00040224e+00
1.00046460e+00
1.00052819e+00
1.00059308e+00
1.00065929e+00
1.00072687e+00
1.00079580e+00
1.00086608e+00
1.00093767e+00
1.00101051e+00
1.00108453e+00
1.00115963e+00
1.00123571e+00
1.00131263e+00
1.00139025e+00
1.00146841e+00
1.00154693e+00
1.00162562e+00
1.00170429e+00
1.00178273e+00
1.00186073e+00
1.00193807e+00
1.00201454e+00
1.00208991e+00
1.00216397e+00
1.00223651e+00
1.00230733e+00
1.00237623e+00
1.00244303e+00
1.00250755e+00
1.00256965e+00
1.00262918e+00
1.00268601e+00
1.00274006e+00
1.00279123e+00
1.00283945e+00
1.00288471e+00
1.00292696e+00
1.00296621e+00
1.00300249e+00
1.00303585e+00
1.00306633e+00
1.00309403e+00
1.00311904e+00
1.00314149e+00
1.00316149e+00
1.00317917e+00
1.00319471e+00
1.00320827e+00
1.00321994e+00
1.00322992e+00
1.00323842e+00
1.00324552e+00
1.00325133e+00
1.00325610e+00
1.00325993e+00
1.00326284e+00
1.00326495e+00
1.00326624e+00
1.00326643e+00
9.97536829e-01
9.97539064e-01
9.97543627e-01
9.97550261e-01
9.97558865e-01
9.97569356e-01
9.97581625e-01
9.97595674e-01
9.97611430e-01
9.97628754e-01
9.97647601e-01
9.97667913e-01
9.97689570e-01
9.97712498e-01
9.97736658e-01
9.97761984e-01
9.97788420e-01
9.97815942e-01
9.97844536e-01
9.97874189e-01
9.97904909e-01
9.97936718e-01
9.97969648e-01
9.98003738e-01
9.98039036e-01
9.98075598e-01
9.98113477e-01
9.98152729e-01
9.98193404e-01
9.98235546e-01
9.98279188e-01
9.98324352e-01
9.98371042e-01
9.98419245e-01
9.98468933e-01
9.98520053e-01
9.98572538e-01
9.98626297e-01
9.98681226e-01
9.98737203e-01
9.98794094e-01
9.98851755e-01
9.98910035e-01
9.98968783e-01
9.99027846e-01
9.99087080e-01
9.99146347e-01
9.99205522e-01
9.99264498e-01
9.99323182e-01
9.99381505e-01
9.99439416e-01
9.99496889e-01
9.99553918e-01
9.99610521e-01
9.99666736e-01
9.99722621e-01
9.99778251e-01
9.99833717e-01
9.99889124e-01
9.99944588e-01
1.00000023e+00
1.00005618e+00
1.00011256e+00
1.00016951e+00
1.00022716e+00
1.00028561e+00
1.00034500e+00
1.00040541e+00
1.00046695e+00
1.00052968e+00
1.00059367e+00
1.00065897e+00
1.00072560e+00
1.00079358e+00
1.00086289e+00
1.00093352e+00
1.00100541e+00
1.00107850e+00
1.00115270e+00
1.00122792e+00
1.00130403e+00
1.00138091e+00
1.00145839e+00
1.00153632e+00
1.00161451e+00
1.00169279e+00
1.00177095e+00
1.00184880e+00
1.00192611e+00
1.00200269e+00
1.00207832e+00
1.00215278e+00
1.00222586e+00
1.00229737e+00
1.00236710e+00
1.00243486e+00
1.00250049e+00
1.00256380e+00
1.00262466e+00
1.00268293e+00
1.00273850e+00
1.00279126e+00
1.00284114e+00
1.00288810e+00
1.00293208e+00
1.00297308e+00
1.00301110e+00
1.00304619e+00
1.00307837e+00
1.00310774e+00
1.00313436e+00
1.00315835e+00
1.00317983e+00
1.00319893e+00
1.00321578e+00
1.00323054e+00
1.00324339e+00
1.00325442e+00
1.00326381e+00
1.00327177e+00
1.00327836e+00
1.00328373e+00
1.00328807e+00
1.00329144e+00
1.00329389e+00
1.00329540e+00
1.00329575e+00
9.97511982e-01
9.97514420e-01
9.97519263e-01
9.97526314e-01
9.97535414e-01
9.97546466e-01
9.97559443e-01
9.97574286e-01
9.97590861e-01
9.97609107e-01
9.97628963e-01
9.97650300e-01
9.97673026e-01
9.97697088e-01
9.97722403e-01
9.97748893e-01
9.97776519e-01
9.97805245e-01
9.97835039e-01
9.97865889e-01
9.97897802e-01
9.97930791e-01
9.97964880e-01
9.98000108e-01
9.98036517e-01
9.98074157e-01
9.98113079e-01
9.98153334e-01
9.98194968e-01
9.98238023e-01
9.98282528e-01
9.98328501e-01
9.98375946e-01
9.98424850e-01
9.98475180e-01
9.98526887e-01
9.98579902e-01
9.98634136e-01
9.98689487e-01
9.98745836e-01
9.98803050e-01
9.98860989e-01
9.98919506e-01
9.98978452e-01
9.99037679e-01
9.99097043e-01
9.99156411e-01
9.99215660e-01
9.99274682e-01
9.99333387e-01
9.99391704e-01
9.99449583e-01
9.99506996e-01
9.99563934e-01
9.99620413e-01
9.99676469e-01
9.99732156e-01
9.99787547e-01
9.99842729e-01
9.99897805e-01
9.99952887e-01
1.00000810e+00
1.00006356e+00
1.00011940e+00
1.00017576e+00
1.00023275e+00
1.00029051e+00
1.00034914e+00
1.00040875e+00
1.00046944e+00
1.00053129e+00
1.00059436e+00
1.00065872e+00
1.00072438e+00
1.00079138e+00
1.00085971e+00
1.00092935e+00
1.00100026e+00
1.00107240e+00
1.00114568e+00
1.00122002e+00
1.00129531e+00
1.00137143e+00
1.00144822e+00
1.00152555e+00
1.00160325e+00
1.00168114e+00
1.00175903e+00
1.00183673e+00
1.00191404e+00
1.00199075e+00
1.00206665e+00
1.00214154e+00
1.00221520e+00
1.00228743e+00
1.00235802e+00
1.00242680e+00
1.00249356e+00
1.00255814e+00
1.00262038e+00
1.00268014e+00
1.00273728e+00
1.00279170e+00
1.00284330e+00
1.00289201e+00
1.00293778e+00
1.00298058e+00
1.00302042e+00
1.00305729e+00
1.00309124e+00
1.00312232e+00
1.00315062e+00
1.00317622e+00
1.00319924e+00
1.00321980e+00
1.00323803e+00
1.00325407e+00
1.00326809e+00
1.00328023e+00
1.00329061e+00
1.00329942e+00
1.00330681e+00
1.00331288e+00
1.00331775e+00
1.00332159e+00
1.00332442e+00
1.00332618e+00
1.00332671e+00
9.97486253e-01
9.97488934e-01
9.97494094e-01
9.97501534e-01
9.97511127e-01
9.97522802e-01
9.97536494e-01
9.97552102e-01
9.97569545e-01
9.97588752e-01
9.97609600e-01
9.97631980e-01
9.97655822e-01
9.97681028e-01
9.97707503e-01
9.97735188e-01
9.97764029e-01
9.97793972e-01
9.97824985e-01
9.97857057e-01
9.97890181e-01
9.97924367e-01
9.97959635e-01
9.97996019e-01
9.98033557e-01
9.98072293e-01
9.98112274e-01
9.98153549e-01
9.98196159e-01
9.98240143e-01
9.98285527e-01
9.98332327e-01
9.98380544e-01
9.98430164e-01
9.98481155e-01
9.98533465e-01
9.98587027e-01
9.98641755e-01
9.98697546e-01
9.98754285e-01
9.98811841e-01
9.98870078e-01
9.98928852e-01
9.98988017e-01
9.99047427e-01
9.99106943e-01
9.99166433e-01
9.99225777e-01
9.99284866e-01
9.99343613e-01
9.99401945e-01
9.99459811e-01
9.99517182e-01
9.99574048e-01
9.99630421e-01
9.99686333e-01
9.99741836e-01
9.99797000e-01
9.99851909e-01
9.99906661e-01
9.99961368e-01
1.00001615e+00
1.00007112e+00
1.00012642e+00
1.00018218e+00
1.00023852e+00
1.00029557e+00
1.00035343e+00
1.00041224e+00
1.00047207e+00
1.00053302e+00
1.00059516e+00
1.00065855e+00
1.00072323e+00
1.00078923e+00
1.00085655e+00
1.00092519e+00
1.00099512e+00
1.00106628e+00
1.00113863e+00
1.00121208e+00
1.00128654e+00
1.00136189e+00
1.00143800e+00
1.00151473e+00
1.00159194e+00
1.00166944e+00
1.00174707e+00
1.00182464e+00
1.00190196e+00
1.00197882e+00
1.00205502e+00
1.00213035e+00
1.00220461e+00
1.00227759e+00
1.00234909e+00
1.00241890e+00
1.00248684e+00
1.00255273e+00
1.00261639e+00
1.00267767e+00
1.00273643e+00
1.00279254e+00
1.00284589e+00
1.00289641e+00
1.00294402e+00
1.00298867e+00
1.00303036e+00
1.00306907e+00
1.00310483e+00
1.00313768e+00
1.00316770e+00
1.00319496e+00
1.00321956e+00
1.00324162e+00
1.00326128e+00
1.00327865e+00
1.00329389e+00
1.00330715e+00
1.00331858e+00
1.00332831e+00
1.00333649e+00
1.00334327e+00
1.00334876e+00
1.00335306e+00
1.00335626e+00
1.00335831e+00
1.00335906e+00
9.97459923e-01
9.97462843e-01
9.97468321e-01
9.97476160e-01
9.97486267e-01
9.97498566e-01
9.97512957e-01
9.97529356e-01
9.97547690e-01
9.97567838e-01
9.97589684e-01
9.97613138e-01
9.97638093e-01
9.97664438e-01
9.97692093e-01
9.97720985e-01
9.97751040e-01
9.97782207e-01
9.97814452e-01
9.97847751e-01
9.97882093e-01
9.97917483e-01
9.97953939e-01
9.97991486e-01
9.98030159e-01
9.98069998e-01
9.98111048e-01
9.98153351e-01
9.98196946e-01
9.98241867e-01
9.98288140e-01
9.98335777e-01
9.98384777e-01
9.98435126e-01
9.98486788e-01
9.98539716e-01
9.98593840e-01
9.98649075e-01
9.98705323e-01
9.98762467e-01
9.98820384e-01
9.98878936e-01
9.98937986e-01
9.98997388e-01
9.99057003e-01
9.99116691e-01
9.99176324e-01
9.99235782e-01
9.99294960e-01
9.99353769e-01
9.99412137e-01
9.99470012e-01
9.99527361e-01
9.99584174e-01
9.99640459e-01
9.99696245e-01
9.99751581e-01
9.99806533e-01
9.99861182e-01
9.99915623e-01
9.99969964e-01
1.00002432e+00
1.00007882e+00
1.00013358e+00
1.00018874e+00