# vtk DataFile Version 2.0
LBM Flow Field - Timestep 2100
ASCII
DATASET STRUCTURED_POINTS
DIMENSIONS 128 128 1
ORIGIN 0.0 0.0 0.0
SPACING 1.0 1.0 1.0
POINT_DATA 16384
SCALARS density double 1
LOOKUP_TABLE default
1.00007378e+00
1.00007819e+00
1.00008411e+00
1.00009509e+00
1.00010877e+00
1.00012361e+00
1.00014134e+00
1.00016177e+00
1.00018391e+00
1.00020777e+00
1.00023353e+00
1.00026079e+00
1.00028919e+00
1.00031857e+00
1.00034866e+00
1.00037914e+00
1.00040967e+00
1.00043998e+00
1.00046974e+00
1.00049864e+00
1.00052638e+00
1.00055267e+00
1.00057726e+00
1.00059990e+00
1.00062039e+00
1.00063853e+00
1.00065421e+00
1.00066732e+00
1.00067780e+00
1.00068565e+00
1.00069089e+00
1.00069360e+00
1.00069390e+00
1.00069194e+00
1.00068791e+00
1.00068204e+00
1.00067457e+00
1.00066577e+00
1.00065593e+00
1.00064532e+00
1.00063426e+00
1.00062301e+00
1.00061185e+00
1.00060104e+00
1.00059080e+00
1.00058133e+00
1.00057279e+00
1.00056530e+00
1.00055894e+00
1.00055375e+00
1.00054971e+00
1.00054678e+00
1.00054487e+00
1.00054384e+00
1.00054353e+00
1.00054375e+00
1.00054428e+00
1.00054490e+00
1.00054535e+00
1.00054541e+00
1.00054483e+00
1.00054339e+00
1.00054089e+00
1.00053713e+00
1.00053198e+00
1.00052530e+00
1.00051702e+00
1.00050709e+00
1.00049550e+00
1.00048229e+00
1.00046752e+00
1.00045131e+00
1.00043379e+00
1.00041512e+00
1.00039550e+00
1.00037514e+00
1.00035425e+00
1.00033308e+00
1.00031185e+00
1.00029080e+00
1.00027014e+00
1.00025011e+00
1.00023090e+00
1.00021268e+00
1.00019563e+00
1.00017989e+00
1.00016557e+00
1.00015276e+00
1.00014155e+00
1.00013197e+00
1.00012405e+00
1.00011780e+00
1.00011320e+00
1.00011021e+00
1.00010880e+00
1.00010889e+00
1.00011042e+00
1.00011329e+00
1.00011741e+00
1.00012267e+00
1.00012898e+00
1.00013621e+00
1.00014425e+00
1.00015298e+00
1.00016229e+00
1.00017206e+00
1.00018216e+00
1.00019250e+00
1.00020295e+00
1.00021342e+00
1.00022382e+00
1.00023403e+00
1.00024398e+00
1.00025362e+00
1.00026286e+00
1.00027162e+00
1.00027986e+00
1.00028764e+00
1.00029483e+00
1.00030123e+00
1.00030721e+00
1.00031295e+00
1.00031759e+00
1.00032106e+00
1.00032543e+00
1.00032940e+00
1.00032851e+00
1.00032810e+00
1.00007904e+00
1.00008553e+00
1.00009299e+00
1.00010300e+00
1.00011657e+00
1.00013183e+00
1.00014951e+00
1.00016953e+00
1.00019162e+00
1.00021546e+00
1.00024100e+00
1.00026801e+00
1.00029622e+00
1.00032536e+00
1.00035516e+00
1.00038534e+00
1.00041557e+00
1.00044556e+00
1.00047499e+00
1.00050357e+00
1.00053099e+00
1.00055697e+00
1.00058126e+00
1.00060363e+00
1.00062386e+00
1.00064178e+00
1.00065726e+00
1.00067021e+00
1.00068057e+00
1.00068833e+00
1.00069352e+00
1.00069622e+00
1.00069654e+00
1.00069464e+00
1.00069069e+00
1.00068492e+00
1.00067757e+00
1.00066891e+00
1.00065920e+00
1.00064874e+00
1.00063780e+00
1.00062666e+00
1.00061560e+00
1.00060485e+00
1.00059464e+00
1.00058517e+00
1.00057659e+00
1.00056901e+00
1.00056252e+00
1.00055715e+00
1.00055290e+00
1.00054972e+00
1.00054751e+00
1.00054616e+00
1.00054549e+00
1.00054534e+00
1.00054548e+00
1.00054569e+00
1.00054575e+00
1.00054540e+00
1.00054443e+00
1.00054262e+00
1.00053976e+00
1.00053567e+00
1.00053021e+00
1.00052325e+00
1.00051473e+00
1.00050458e+00
1.00049281e+00
1.00047945e+00
1.00046457e+00
1.00044826e+00
1.00043067e+00
1.00041196e+00
1.00039232e+00
1.00037195e+00
1.00035106e+00
1.00032990e+00
1.00030868e+00
1.00028764e+00
1.00026700e+00
1.00024698e+00
1.00022776e+00
1.00020955e+00
1.00019248e+00
1.00017671e+00
1.00016236e+00
1.00014951e+00
1.00013824e+00
1.00012859e+00
1.00012060e+00
1.00011426e+00
1.00010957e+00
1.00010649e+00
1.00010497e+00
1.00010495e+00
1.00010636e+00
1.00010912e+00
1.00011312e+00
1.00011826e+00
1.00012444e+00
1.00013155e+00
1.00013947e+00
1.00014809e+00
1.00015728e+00
1.00016694e+00
1.00017694e+00
1.00018718e+00
1.00019755e+00
1.00020794e+00
1.00021826e+00
1.00022841e+00
1.00023833e+00
1.00024792e+00
1.00025713e+00
1.00026589e+00
1.00027417e+00
1.00028194e+00
1.00028912e+00
1.00029571e+00
1.00030181e+00
1.00030732e+00
1.00031206e+00
1.00031618e+00
1.00032038e+00
1.00032324e+00
1.00032444e+00
1.00032738e+00
1.00008956e+00
1.00009772e+00
1.00010820e+00
1.00011762e+00
1.00012974e+00
1.00014555e+00
1.00016345e+00
1.00018293e+00
1.00020472e+00
1.00022852e+00
1.00025379e+00
1.00028043e+00
1.00030833e+00
1.00033715e+00
1.00036657e+00
1.00039634e+00
1.00042617e+00
1.00045574e+00
1.00048475e+00
1.00051289e+00
1.00053989e+00
1.00056545e+00
1.00058934e+00
1.00061132e+00
1.00063118e+00
1.00064877e+00
1.00066394e+00
1.00067661e+00
1.00068673e+00
1.00069429e+00
1.00069931e+00
1.00070187e+00
1.00070209e+00
1.00070011e+00
1.00069612e+00
1.00069033e+00
1.00068297e+00
1.00067431e+00
1.00066461e+00
1.00065415e+00
1.00064321e+00
1.00063206e+00
1.00062096e+00
1.00061015e+00
1.00059985e+00
1.00059024e+00
1.00058149e+00
1.00057372e+00
1.00056698e+00
1.00056134e+00
1.00055677e+00
1.00055323e+00
1.00055064e+00
1.00054887e+00
1.00054778e+00
1.00054717e+00
1.00054685e+00
1.00054660e+00
1.00054618e+00
1.00054537e+00
1.00054395e+00
1.00054170e+00
1.00053842e+00
1.00053394e+00
1.00052811e+00
1.00052081e+00
1.00051198e+00
1.00050155e+00
1.00048953e+00
1.00047594e+00
1.00046086e+00
1.00044438e+00
1.00042664e+00
1.00040780e+00
1.00038803e+00
1.00036756e+00
1.00034657e+00
1.00032532e+00
1.00030401e+00
1.00028288e+00
1.00026215e+00
1.00024203e+00
1.00022272e+00
1.00020439e+00
1.00018721e+00
1.00017131e+00
1.00015682e+00
1.00014382e+00
1.00013240e+00
1.00012259e+00
1.00011442e+00
1.00010791e+00
1.00010303e+00
1.00009976e+00
1.00009804e+00
1.00009783e+00
1.00009904e+00
1.00010158e+00
1.00010538e+00
1.00011032e+00
1.00011630e+00
1.00012321e+00
1.00013093e+00
1.00013936e+00
1.00014836e+00
1.00015784e+00
1.00016767e+00
1.00017774e+00
1.00018795e+00
1.00019820e+00
1.00020838e+00
1.00021842e+00
1.00022824e+00
1.00023774e+00
1.00024686e+00
1.00025558e+00
1.00026384e+00
1.00027150e+00
1.00027867e+00
1.00028544e+00
1.00029147e+00
1.00029663e+00
1.00030180e+00
1.00030671e+00
1.00030949e+00
1.00031139e+00
1.00031718e+00
1.00032240e+00
1.00011109e+00
1.00011829e+00
1.00012717e+00
1.00013750e+00
1.00015018e+00
1.00016524e+00
1.00018259e+00
1.00020212e+00
1.00022366e+00
1.00024694e+00
1.00027183e+00
1.00029813e+00
1.00032557e+00
1.00035388e+00
1.00038282e+00
1.00041208e+00
1.00044137e+00
1.00047039e+00
1.00049884e+00
1.00052643e+00
1.00055287e+00
1.00057790e+00
1.00060125e+00
1.00062272e+00
1.00064210e+00
1.00065923e+00
1.00067399e+00
1.00068627e+00
1.00069603e+00
1.00070327e+00
1.00070801e+00
1.00071033e+00
1.00071033e+00
1.00070817e+00
1.00070402e+00
1.00069808e+00
1.00069060e+00
1.00068182e+00
1.00067201e+00
1.00066144e+00
1.00065037e+00
1.00063908e+00
1.00062782e+00
1.00061683e+00
1.00060632e+00
1.00059647e+00
1.00058744e+00
1.00057935e+00
1.00057227e+00
1.00056623e+00
1.00056124e+00
1.00055726e+00
1.00055419e+00
1.00055192e+00
1.00055030e+00
1.00054916e+00
1.00054830e+00
1.00054751e+00
1.00054656e+00
1.00054522e+00
1.00054329e+00
1.00054054e+00
1.00053679e+00
1.00053186e+00
1.00052561e+00
1.00051792e+00
1.00050872e+00
1.00049796e+00
1.00048564e+00
1.00047178e+00
1.00045644e+00
1.00043974e+00
1.00042179e+00
1.00040275e+00
1.00038281e+00
1.00036216e+00
1.00034101e+00
1.00031959e+00
1.00029812e+00
1.00027682e+00
1.00025591e+00
1.00023561e+00
1.00021610e+00
1.00019757e+00
1.00018017e+00
1.00016404e+00
1.00014930e+00
1.00013605e+00
1.00012436e+00
1.00011428e+00
1.00010582e+00
1.00009902e+00
1.00009384e+00
1.00009026e+00
1.00008823e+00
1.00008771e+00
1.00008860e+00
1.00009083e+00
1.00009431e+00
1.00009894e+00
1.00010462e+00
1.00011122e+00
1.00011865e+00
1.00012679e+00
1.00013551e+00
1.00014472e+00
1.00015429e+00
1.00016412e+00
1.00017410e+00
1.00018413e+00
1.00019412e+00
1.00020397e+00
1.00021361e+00
1.00022297e+00
1.00023197e+00
1.00024056e+00
1.00024870e+00
1.00025636e+00
1.00026346e+00
1.00027002e+00
1.00027609e+00
1.00028155e+00
1.00028636e+00
1.00029065e+00
1.00029446e+00
1.00029750e+00
1.00030126e+00
1.00030545e+00
1.00013938e+00
1.00014541e+00
1.00015273e+00
1.00016363e+00
1.00017644e+00
1.00019071e+00
1.00020764e+00
1.00022704e+00
1.00024811e+00
1.00027080e+00
1.00029524e+00
1.00032103e+00
1.00034786e+00
1.00037555e+00
1.00040386e+00
1.00043247e+00
1.00046107e+00
1.00048940e+00
1.00051715e+00
1.00054404e+00
1.00056979e+00
1.00059413e+00
1.00061682e+00
1.00063764e+00
1.00065641e+00
1.00067296e+00
1.00068716e+00
1.00069893e+00
1.00070822e+00
1.00071503e+00
1.00071938e+00
1.00072134e+00
1.00072103e+00
1.00071858e+00
1.00071417e+00
1.00070800e+00
1.00070030e+00
1.00069132e+00
1.00068130e+00
1.00067052e+00
1.00065923e+00
1.00064771e+00
1.00063619e+00
1.00062492e+00
1.00061410e+00
1.00060391e+00
1.00059450e+00
1.00058599e+00
1.00057845e+00
1.00057193e+00
1.00056641e+00
1.00056187e+00
1.00055822e+00
1.00055536e+00
1.00055312e+00
1.00055136e+00
1.00054987e+00
1.00054844e+00
1.00054687e+00
1.00054493e+00
1.00054240e+00
1.00053909e+00
1.00053480e+00
1.00052936e+00
1.00052263e+00
1.00051450e+00
1.00050488e+00
1.00049374e+00
1.00048107e+00
1.00046688e+00
1.00045126e+00
1.00043428e+00
1.00041607e+00
1.00039680e+00
1.00037662e+00
1.00035575e+00
1.00033438e+00
1.00031274e+00
1.00029104e+00
1.00026951e+00
1.00024836e+00
1.00022779e+00
1.00020801e+00
1.00018918e+00
1.00017147e+00
1.00015502e+00
1.00013995e+00
1.00012634e+00
1.00011428e+00
1.00010381e+00
1.00009496e+00
1.00008775e+00
1.00008215e+00
1.00007815e+00
1.00007570e+00
1.00007474e+00
1.00007520e+00
1.00007701e+00
1.00008006e+00
1.00008427e+00
1.00008952e+00
1.00009572e+00
1.00010275e+00
1.00011049e+00
1.00011884e+00
1.00012768e+00
1.00013691e+00
1.00014640e+00
1.00015607e+00
1.00016580e+00
1.00017552e+00
1.00018512e+00
1.00019452e+00
1.00020366e+00
1.00021248e+00
1.00022089e+00
1.00022885e+00
1.00023640e+00
1.00024344e+00
1.00024978e+00
1.00025570e+00
1.00026137e+00
1.00026609e+00
1.00026972e+00
1.00027381e+00
1.00027790e+00
1.00028012e+00
1.00028299e+00
1.00017223e+00
1.00017817e+00
1.00018588e+00
1.00019567e+00
1.00020759e+00
1.00022208e+00
1.00023876e+00
1.00025729e+00
1.00027776e+00
1.00030008e+00
1.00032386e+00
1.00034890e+00
1.00037504e+00
1.00040203e+00
1.00042955e+00
1.00045734e+00
1.00048514e+00
1.00051264e+00
1.00053955e+00
1.00056560e+00
1.00059051e+00
1.00061403e+00
1.00063592e+00
1.00065597e+00
1.00067400e+00
1.00068983e+00
1.00070337e+00
1.00071451e+00
1.00072322e+00
1.00072949e+00
1.00073334e+00
1.00073485e+00
1.00073412e+00
1.00073128e+00
1.00072652e+00
1.00072002e+00
1.00071201e+00
1.00070272e+00
1.00069241e+00
1.00068132e+00
1.00066973e+00
1.00065788e+00
1.00064602e+00
1.00063437e+00
1.00062314e+00
1.00061251e+00
1.00060262e+00
1.00059359e+00
1.00058551e+00
1.00057839e+00
1.00057226e+00
1.00056707e+00
1.00056275e+00
1.00055918e+00
1.00055624e+00
1.00055376e+00
1.00055155e+00
1.00054941e+00
1.00054714e+00
1.00054451e+00
1.00054132e+00
1.00053737e+00
1.00053247e+00
1.00052646e+00
1.00051919e+00
1.00051056e+00
1.00050048e+00
1.00048891e+00
1.00047583e+00
1.00046128e+00
1.00044530e+00
1.00042800e+00
1.00040950e+00
1.00038993e+00
1.00036948e+00
1.00034833e+00
1.00032669e+00
1.00030476e+00
1.00028277e+00
1.00026094e+00
1.00023947e+00
1.00021858e+00
1.00019844e+00
1.00017924e+00
1.00016114e+00
1.00014428e+00
1.00012877e+00
1.00011472e+00
1.00010218e+00
1.00009123e+00
1.00008188e+00
1.00007415e+00
1.00006804e+00
1.00006351e+00
1.00006052e+00
1.00005902e+00
1.00005895e+00
1.00006021e+00
1.00006273e+00
1.00006641e+00
1.00007114e+00
1.00007682e+00
1.00008335e+00
1.00009061e+00
1.00009849e+00
1.00010688e+00
1.00011566e+00
1.00012474e+00
1.00013402e+00
1.00014338e+00
1.00015274e+00
1.00016202e+00
1.00017112e+00
1.00017998e+00
1.00018853e+00
1.00019674e+00
1.00020451e+00
1.00021179e+00
1.00021864e+00
1.00022503e+00
1.00023076e+00
1.00023589e+00
1.00024071e+00
1.00024492e+00
1.00024824e+00
1.00025135e+00
1.00025415e+00
1.00025710e+00
1.00021104e+00
1.00021664e+00
1.00022428e+00
1.00023328e+00
1.00024474e+00
1.00025891e+00
1.00027491e+00
1.00029278e+00
1.00031273e+00
1.00033435e+00
1.00035733e+00
1.00038160e+00
1.00040695e+00
1.00043306e+00
1.00045966e+00
1.00048654e+00
1.00051339e+00
1.00053992e+00
1.00056587e+00
1.00059095e+00
1.00061490e+00
1.00063748e+00
1.00065844e+00
1.00067760e+00
1.00069475e+00
1.00070977e+00
1.00072252e+00
1.00073292e+00
1.00074094e+00
1.00074656e+00
1.00074982e+00
1.00075077e+00
1.00074953e+00
1.00074622e+00
1.00074101e+00
1.00073409e+00
1.00072568e+00
1.00071600e+00
1.00070530e+00
1.00069382e+00
1.00068183e+00
1.00066956e+00
1.00065726e+00
1.00064515e+00
1.00063342e+00
1.00062225e+00
1.00061179e+00
1.00060215e+00
1.00059342e+00
1.00058562e+00
1.00057877e+00
1.00057284e+00
1.00056775e+00
1.00056340e+00
1.00055966e+00
1.00055637e+00
1.00055336e+00
1.00055043e+00
1.00054738e+00
1.00054399e+00
1.00054007e+00
1.00053541e+00
1.00052984e+00
1.00052319e+00
1.00051532e+00
1.00050613e+00
1.00049553e+00
1.00048347e+00
1.00046994e+00
1.00045497e+00
1.00043860e+00
1.00042093e+00
1.00040207e+00
1.00038217e+00
1.00036138e+00
1.00033990e+00
1.00031793e+00
1.00029567e+00
1.00027333e+00
1.00025113e+00
1.00022928e+00
1.00020798e+00
1.00018742e+00
1.00016777e+00
1.00014920e+00
1.00013184e+00
1.00011581e+00
1.00010121e+00
1.00008811e+00
1.00007658e+00
1.00006663e+00
1.00005829e+00
1.00005155e+00
1.00004639e+00
1.00004277e+00
1.00004063e+00
1.00003991e+00
1.00004054e+00
1.00004242e+00
1.00004547e+00
1.00004959e+00
1.00005466e+00
1.00006060e+00
1.00006728e+00
1.00007460e+00
1.00008245e+00
1.00009072e+00
1.00009931e+00
1.00010811e+00
1.00011703e+00
1.00012598e+00
1.00013486e+00
1.00014361e+00
1.00015214e+00
1.00016037e+00
1.00016828e+00
1.00017582e+00
1.00018288e+00
1.00018944e+00
1.00019563e+00
1.00020130e+00
1.00020619e+00
1.00021064e+00
1.00021489e+00
1.00021807e+00
1.00022054e+00
1.00022346e+00
1.00022615e+00
1.00025572e+00
1.00026063e+00
1.00026736e+00
1.00027624e+00
1.00028744e+00
1.00030063e+00
1.00031595e+00
1.00033341e+00
1.00035258e+00
1.00037327e+00
1.00039546e+00
1.00041890e+00
1.00044327e+00
1.00046837e+00
1.00049400e+00
1.00051983e+00
1.00054561e+00
1.00057106e+00
1.00059592e+00
1.00061991e+00
1.00064279e+00
1.00066430e+00
1.00068423e+00
1.00070237e+00
1.00071855e+00
1.00073263e+00
1.00074449e+00
1.00075406e+00
1.00076129e+00
1.00076617e+00
1.00076873e+00
1.00076903e+00
1.00076718e+00
1.00076331e+00
1.00075756e+00
1.00075014e+00
1.00074123e+00
1.00073108e+00
1.00071990e+00
1.00070795e+00
1.00069547e+00
1.00068270e+00
1.00066987e+00
1.00065720e+00
1.00064488e+00
1.00063309e+00
1.00062196e+00
1.00061162e+00
1.00060215e+00
1.00059358e+00
1.00058593e+00
1.00057916e+00
1.00057321e+00
1.00056799e+00
1.00056337e+00
1.00055919e+00
1.00055530e+00
1.00055150e+00
1.00054759e+00
1.00054337e+00
1.00053864e+00
1.00053321e+00
1.00052691e+00
1.00051956e+00
1.00051104e+00
1.00050123e+00
1.00049005e+00
1.00047746e+00
1.00046343e+00
1.00044799e+00
1.00043118e+00
1.00041309e+00
1.00039383e+00
1.00037354e+00
1.00035237e+00
1.00033051e+00
1.00030815e+00
1.00028549e+00
1.00026274e+00
1.00024011e+00
1.00021781e+00
1.00019604e+00
1.00017498e+00
1.00015481e+00
1.00013568e+00
1.00011775e+00
1.00010111e+00
1.00008588e+00
1.00007213e+00
1.00005992e+00
1.00004929e+00
1.00004025e+00
1.00003279e+00
1.00002690e+00
1.00002254e+00
1.00001967e+00
1.00001821e+00
1.00001811e+00
1.00001926e+00
1.00002159e+00
1.00002500e+00
1.00002939e+00
1.00003464e+00
1.00004067e+00
1.00004735e+00
1.00005458e+00
1.00006227e+00
1.00007029e+00
1.00007856e+00
1.00008697e+00
1.00009545e+00
1.00010388e+00
1.00011220e+00
1.00012035e+00
1.00012825e+00
1.00013580e+00
1.00014300e+00
1.00014984e+00
1.00015620e+00
1.00016199e+00
1.00016738e+00
1.00017233e+00
1.00017652e+00
1.00018011e+00
1.00018334e+00
1.00018593e+00
1.00018810e+00
1.00019021e+00
1.00030503e+00
1.00030949e+00
1.00031567e+00
1.00032413e+00
1.00033467e+00
1.00034717e+00
1.00036192e+00
1.00037858e+00
1.00039684e+00
1.00041670e+00
1.00043800e+00
1.00046041e+00
1.00048373e+00
1.00050778e+00
1.00053229e+00
1.00055696e+00
1.00058156e+00
1.00060583e+00
1.00062949e+00
1.00065229e+00
1.00067397e+00
1.00069432e+00
1.00071310e+00
1.00073012e+00
1.00074523e+00
1.00075828e+00
1.00076915e+00
1.00077778e+00
1.00078412e+00
1.00078817e+00
1.00078995e+00
1.00078952e+00
1.00078698e+00
1.00078245e+00
1.00077609e+00
1.00076807e+00
1.00075860e+00
1.00074788e+00
1.00073615e+00
1.00072365e+00
1.00071060e+00
1.00069724e+00
1.00068379e+00
1.00067048e+00
1.00065748e+00
1.00064498e+00
1.00063310e+00
1.00062198e+00
1.00061168e+00
1.00060225e+00
1.00059370e+00
1.00058601e+00
1.00057912e+00
1.00057294e+00
1.00056736e+00
1.00056222e+00
1.00055737e+00
1.00055262e+00
1.00054778e+00
1.00054266e+00
1.00053706e+00
1.00053080e+00
1.00052370e+00
1.00051560e+00
1.00050637e+00
1.00049589e+00
1.00048409e+00
1.00047090e+00
1.00045633e+00
1.00044037e+00
1.00042307e+00
1.00040451e+00
1.00038481e+00
1.00036407e+00
1.00034247e+00
1.00032018e+00
1.00029738e+00
1.00027427e+00
1.00025105e+00
1.00022794e+00
1.00020513e+00
1.00018281e+00
1.00016119e+00
1.00014042e+00
1.00012067e+00
1.00010208e+00
1.00008476e+00
1.00006882e+00
1.00005434e+00
1.00004137e+00
1.00002996e+00
1.00002012e+00
1.00001186e+00
1.00000515e+00
9.99999972e-01
9.99996273e-01
9.99993994e-01
9.99993066e-01
9.99993409e-01
9.99994936e-01
9.99997554e-01
1.00000116e+00
1.00000567e+00
1.00001096e+00
1.00001693e+00
1.00002348e+00
1.00003050e+00
1.00003790e+00
1.00004557e+00
1.00005342e+00
1.00006136e+00
1.00006931e+00
1.00007716e+00
1.00008487e+00
1.00009236e+00
1.00009958e+00
1.00010642e+00
1.00011289e+00
1.00011899e+00
1.00012457e+00
1.00012959e+00
1.00013424e+00
1.00013832e+00
1.00014161e+00
1.00014449e+00
1.00014693e+00
1.00014875e+00
1.00015053e+00
1.00035876e+00
1.00036286e+00
1.00036873e+00
1.00037643e+00
1.00038623e+00
1.00039826e+00
1.00041223e+00
1.00042790e+00
1.00044533e+00
1.00046432e+00
1.00048453e+00
1.00050584e+00
1.00052808e+00
1.00055096e+00
1.00057423e+00
1.00059766e+00
1.00062101e+00
1.00064399e+00
1.00066635e+00
1.00068785e+00
1.00070825e+00
1.00072732e+00
1.00074486e+00
1.00076068e+00
1.00077461e+00
1.00078654e+00
1.00079633e+00
1.00080394e+00
1.00080931e+00
1.00081244e+00
1.00081335e+00
1.00081211e+00
1.00080880e+00
1.00080354e+00
1.00079649e+00
1.00078780e+00
1.00077768e+00
1.00076633e+00
1.00075396e+00
1.00074082e+00
1.00072712e+00
1.00071309e+00
1.00069896e+00
1.00068492e+00
1.00067117e+00
1.00065787e+00
1.00064517e+00
1.00063317e+00
1.00062196e+00
1.00061159e+00
1.00060207e+00
1.00059338e+00
1.00058547e+00
1.00057826e+00
1.00057163e+00
1.00056545e+00
1.00055956e+00
1.00055380e+00
1.00054796e+00
1.00054188e+00
1.00053535e+00
1.00052819e+00
1.00052023e+00
1.00051132e+00
1.00050133e+00
1.00049013e+00
1.00047765e+00
1.00046383e+00
1.00044866e+00
1.00043214e+00
1.00041431e+00
1.00039524e+00
1.00037503e+00
1.00035382e+00
1.00033174e+00
1.00030896e+00
1.00028567e+00
1.00026206e+00
1.00023832e+00
1.00021466e+00
1.00019128e+00
1.00016837e+00
1.00014611e+00
1.00012468e+00
1.00010424e+00
1.00008492e+00
1.00006684e+00
1.00005011e+00
1.00003482e+00
1.00002102e+00
1.00000875e+00
9.99998035e-01
9.99988884e-01
9.99981282e-01
9.99975200e-01
9.99970594e-01
9.99967411e-01
9.99965582e-01
9.99965033e-01
9.99965680e-01
9.99967432e-01
9.99970196e-01
9.99973871e-01
9.99978358e-01
9.99983554e-01
9.99989358e-01
9.99995666e-01
1.00000238e+00
1.00000940e+00
1.00001664e+00
1.00002400e+00
1.00003140e+00
1.00003876e+00
1.00004599e+00
1.00005303e+00
1.00005984e+00
1.00006634e+00
1.00007244e+00
1.00007815e+00
1.00008348e+00
1.00008829e+00
1.00009249e+00
1.00009628e+00
1.00009952e+00
1.00010201e+00
1.00010397e+00
1.00010568e+00
1.00010723e+00
1.00041687e+00
1.00042041e+00
1.00042571e+00
1.00043282e+00
1.00044201e+00
1.00045328e+00
1.00046635e+00
1.00048120e+00
1.00049771e+00
1.00051561e+00
1.00053472e+00
1.00055493e+00
1.00057596e+00
1.00059756e+00
1.00061955e+00
1.00064166e+00
1.00066364e+00
1.00068524e+00
1.00070623e+00
1.00072635e+00
1.00074538e+00
1.00076309e+00
1.00077930e+00
1.00079383e+00
1.00080651e+00
1.00081723e+00
1.00082587e+00
1.00083237e+00
1.00083669e+00
1.00083883e+00
1.00083880e+00
1.00083667e+00
1.00083252e+00
1.00082646e+00
1.00081863e+00
1.00080921e+00
1.00079837e+00
1.00078631e+00
1.00077324e+00
1.00075939e+00
1.00074496e+00
1.00073020e+00
1.00071530e+00
1.00070046e+00
1.00068588e+00
1.00067171e+00
1.00065810e+00
1.00064515e+00
1.00063296e+00
1.00062157e+00
1.00061100e+00
1.00060123e+00
1.00059223e+00
1.00058391e+00
1.00057617e+00
1.00056888e+00
1.00056189e+00
1.00055504e+00
1.00054815e+00
1.00054103e+00
1.00053351e+00
1.00052540e+00
1.00051653e+00
1.00050676e+00
1.00049595e+00
1.00048398e+00
1.00047078e+00
1.00045628e+00
1.00044046e+00
1.00042333e+00
1.00040492e+00
1.00038530e+00
1.00036456e+00
1.00034281e+00
1.00032021e+00
1.00029691e+00
1.00027308e+00
1.00024891e+00
1.00022460e+00
1.00020035e+00
1.00017634e+00
1.00015277e+00
1.00012982e+00
1.00010767e+00
1.00008647e+00
1.00006635e+00
1.00004745e+00
1.00002987e+00
1.00001369e+00
9.99998984e-01
9.99985786e-01
9.99974127e-01
9.99964016e-01
9.99955442e-01
9.99948383e-01
9.99942798e-01
9.99938637e-01
9.99935837e-01
9.99934326e-01
9.99934024e-01
9.99934844e-01
9.99936695e-01
9.99939482e-01
9.99943106e-01
9.99947469e-01
9.99952470e-01
9.99958010e-01
9.99963991e-01
9.99970316e-01
9.99976896e-01
9.99983638e-01
9.99990451e-01
9.99997263e-01
1.00000400e+00
1.00001058e+00
1.00001693e+00
1.00002302e+00
1.00002879e+00
1.00003413e+00
1.00003907e+00
1.00004360e+00
1.00004756e+00
1.00005096e+00
1.00005389e+00
1.00005616e+00
1.00005782e+00
1.00005920e+00
1.00006034e+00
1.00047873e+00
1.00048167e+00
1.00048632e+00
1.00049289e+00
1.00050142e+00
1.00051180e+00
1.00052404e+00
1.00053802e+00
1.00055347e+00
1.00057025e+00
1.00058827e+00
1.00060726e+00
1.00062699e+00
1.00064729e+00
1.00066792e+00
1.00068863e+00
1.00070917e+00
1.00072933e+00
1.00074886e+00
1.00076752e+00
1.00078510e+00
1.00080139e+00
1.00081620e+00
1.00082936e+00
1.00084072e+00
1.00085015e+00
1.00085757e+00
1.00086290e+00
1.00086610e+00
1.00086718e+00
1.00086614e+00
1.00086305e+00
1.00085799e+00
1.00085106e+00
1.00084241e+00
1.00083218e+00
1.00082055e+00
1.00080772e+00
1.00079388e+00
1.00077925e+00
1.00076404e+00
1.00074846e+00
1.00073273e+00
1.00071703e+00
1.00070154e+00
1.00068643e+00
1.00067184e+00
1.00065788e+00
1.00064463e+00
1.00063215e+00
1.00062045e+00
1.00060955e+00
1.00059938e+00
1.00058988e+00
1.00058096e+00
1.00057250e+00
1.00056435e+00
1.00055635e+00
1.00054834e+00
1.00054013e+00
1.00053156e+00
1.00052244e+00
1.00051262e+00
1.00050193e+00
1.00049025e+00
1.00047747e+00
1.00046350e+00
1.00044827e+00
1.00043177e+00
1.00041399e+00
1.00039496e+00
1.00037474e+00
1.00035342e+00
1.00033110e+00
1.00030793e+00
1.00028406e+00
1.00025965e+00
1.00023488e+00
1.00020995e+00
1.00018505e+00
1.00016037e+00
1.00013609e+00
1.00011240e+00
1.00008947e+00
1.00006745e+00
1.00004649e+00
1.00002670e+00
1.00000821e+00
9.99991084e-01
9.99975403e-01
9.99961212e-01
9.99948541e-01
9.99937404e-01
9.99927795e-01
9.99919693e-01
9.99913066e-01
9.99907864e-01
9.99904030e-01
9.99901496e-01
9.99900186e-01
9.99900016e-01
9.99900900e-01
9.99902744e-01
9.99905454e-01
9.99908934e-01
9.99913086e-01
9.99917813e-01
9.99923021e-01
9.99928611e-01
9.99934494e-01
9.99940584e-01
9.99946791e-01
9.99953026e-01
9.99959224e-01
9.99965320e-01
9.99971219e-01
9.99976857e-01
9.99982224e-01
9.99987242e-01
9.99991806e-01
9.99995944e-01
9.99999653e-01
1.00000277e+00
1.00000529e+00
1.00000729e+00
1.00000873e+00
1.00000969e+00
1.00001040e+00
1.00054373e+00
1.00054614e+00
1.00055021e+00
1.00055612e+00
1.00056389e+00
1.00057349e+00
1.00058487e+00
1.00059782e+00
1.00061221e+00
1.00062791e+00
1.00064472e+00
1.00066242e+00
1.00068085e+00
1.00069978e+00
1.00071898e+00
1.00073822e+00
1.00075729e+00
1.00077594e+00
1.00079395e+00
1.00081109e+00
1.00082716e+00
1.00084196e+00
1.00085531e+00
1.00086703e+00
1.00087701e+00
1.00088510e+00
1.00089123e+00
1.00089533e+00
1.00089735e+00
1.00089731e+00
1.00089521e+00
1.00089111e+00
1.00088508e+00
1.00087722e+00
1.00086768e+00
1.00085658e+00
1.00084411e+00
1.00083044e+00
1.00081577e+00
1.00080031e+00
1.00078425e+00
1.00076780e+00
1.00075116e+00
1.00073453e+00
1.00071808e+00
1.00070197e+00
1.00068633e+00
1.00067129e+00
1.00065692e+00
1.00064328e+00
1.00063041e+00
1.00061829e+00
1.00060689e+00
1.00059616e+00
1.00058600e+00
1.00057630e+00
1.00056693e+00
1.00055773e+00
1.00054854e+00
1.00053919e+00
1.00052952e+00
1.00051934e+00
1.00050851e+00
1.00049686e+00
1.00048427e+00
1.00047063e+00
1.00045584e+00
1.00043985e+00
1.00042262e+00
1.00040415e+00
1.00038446e+00
1.00036360e+00
1.00034166e+00
1.00031874e+00
1.00029496e+00
1.00027047e+00
1.00024544e+00
1.00022003e+00
1.00019444e+00
1.00016885e+00
1.00014345e+00
1.00011841e+00
1.00009393e+00
1.00007017e+00
1.00004729e+00
1.00002542e+00
1.00000470e+00
9.99985238e-01
9.99967116e-01
9.99950409e-01
9.99935170e-01
9.99921432e-01
9.99909213e-01
9.99898513e-01
9.99889315e-01
9.99881589e-01
9.99875293e-01
9.99870373e-01
9.99866764e-01
9.99864396e-01
9.99863188e-01
9.99863057e-01
9.99863915e-01
9.99865668e-01
9.99868225e-01
9.99871491e-01
9.99875369e-01
9.99879768e-01
9.99884595e-01
9.99889755e-01
9.99895161e-01
9.99900733e-01
9.99906384e-01
9.99912025e-01
9.99917594e-01
9.99923031e-01
9.99928243e-01
9.99933169e-01
9.99937793e-01
9.99942039e-01
9.99945819e-01
9.99949149e-01
9.99951982e-01
9.99954214e-01
9.99955871e-01
9.99956986e-01
9.99957622e-01
9.99957956e-01
1.00061146e+00
1.00061332e+00
1.00061681e+00
1.00062203e+00
1.00062904e+00
1.00063785e+00
1.00064829e+00
1.00066022e+00
1.00067355e+00
1.00068810e+00
1.00070365e+00
1.00072006e+00
1.00073713e+00
1.00075464e+00
1.00077237e+00
1.00079012e+00
1.00080765e+00
1.00082474e+00
1.00084118e+00
1.00085676e+00
1.00087127e+00
1.00088453e+00
1.00089636e+00
1.00090661e+00
1.00091515e+00
1.00092185e+00
1.00092664e+00
1.00092946e+00
1.00093026e+00
1.00092904e+00
1.00092583e+00
1.00092066e+00
1.00091361e+00
1.00090478e+00
1.00089429e+00
1.00088228e+00
1.00086891e+00
1.00085436e+00
1.00083881e+00
1.00082245e+00
1.00080548e+00
1.00078811e+00
1.00077052e+00
1.00075290e+00
1.00073543e+00
1.00071825e+00
1.00070152e+00
1.00068533e+00
1.00066978e+00
1.00065493e+00
1.00064081e+00
1.00062743e+00
1.00061475e+00
1.00060272e+00
1.00059127e+00
1.00058028e+00
1.00056963e+00
1.00055917e+00
1.00054876e+00
1.00053822e+00
1.00052739e+00
1.00051611e+00
1.00050422e+00
1.00049157e+00
1.00047803e+00
1.00046348e+00
1.00044784e+00
1.00043104e+00
1.00041305e+00
1.00039385e+00
1.00037346e+00
1.00035193e+00
1.00032933e+00
1.00030576e+00
1.00028134e+00
1.00025620e+00
1.00023051e+00
1.00020443e+00
1.00017813e+00
1.00015181e+00
1.00012565e+00
1.00009982e+00
1.00007451e+00
1.00004988e+00
1.00002609e+00
1.00000328e+00
9.99981575e-01
9.99961095e-01
9.99941928e-01
9.99924150e-01
9.99907816e-01
9.99892966e-01
9.99879620e-01
9.99867782e-01
9.99857442e-01
9.99848575e-01
9.99841141e-01
9.99835092e-01
9.99830369e-01
9.99826902e-01
9.99824619e-01
9.99823437e-01
9.99823273e-01
9.99824038e-01
9.99825641e-01
9.99827991e-01
9.99830996e-01
9.99834562e-01
9.99838599e-01
9.99843019e-01
9.99847728e-01
9.99852642e-01
9.99857684e-01
9.99862770e-01
9.99867810e-01
9.99872748e-01
9.99877522e-01
9.99882040e-01
9.99886245e-01
9.99890122e-01
9.99893585e-01
9.99896554e-01
9.99899039e-01
9.99900991e-01
9.99902330e-01
9.99903097e-01
9.99903409e-01
9.99903361e-01
1.00068143e+00
1.00068269e+00
1.00068556e+00
1.00069012e+00
1.00069641e+00
1.00070435e+00
1.00071383e+00
1.00072477e+00
1.00073700e+00
1.00075034e+00
1.00076465e+00
1.00077975e+00
1.00079542e+00
1.00081148e+00
1.00082772e+00
1.00084393e+00
1.00085989e+00
1.00087540e+00
1.00089025e+00
1.00090422e+00
1.00091714e+00
1.00092882e+00
1.00093910e+00
1.00094784e+00
1.00095490e+00
1.00096017e+00
1.00096359e+00
1.00096508e+00
1.00096462e+00
1.00096219e+00
1.00095782e+00
1.00095154e+00
1.00094344e+00
1.00093359e+00
1.00092211e+00
1.00090914e+00
1.00089483e+00
1.00087934e+00
1.00086285e+00
1.00084556e+00
1.00082764e+00
1.00080929e+00
1.00079069e+00
1.00077204e+00
1.00075349e+00
1.00073520e+00
1.00071731e+00
1.00069993e+00
1.00068315e+00
1.00066704e+00
1.00065163e+00
1.00063693e+00
1.00062292e+00
1.00060955e+00
1.00059674e+00
1.00058442e+00
1.00057244e+00
1.00056068e+00
1.00054900e+00
1.00053722e+00
1.00052520e+00
1.00051277e+00
1.00049978e+00
1.00048609e+00
1.00047155e+00
1.00045606e+00
1.00043953e+00
1.00042189e+00
1.00040309e+00
1.00038313e+00
1.00036201e+00
1.00033977e+00
1.00031648e+00
1.00029223e+00
1.00026713e+00
1.00024131e+00
1.00021492e+00
1.00018813e+00
1.00016110e+00
1.00013402e+00
1.00010706e+00
1.00008040e+00
1.00005422e+00
1.00002869e+00
1.00000395e+00
9.99980161e-01
9.99957444e-01
9.99935913e-01
9.99915665e-01
9.99896779e-01
9.99879314e-01
9.99863315e-01
9.99848806e-01
9.99835796e-01
9.99824280e-01
9.99814237e-01
9.99805633e-01
9.99798423e-01
9.99792553e-01
9.99787960e-01
9.99784572e-01
9.99782313e-01
9.99781103e-01
9.99780856e-01
9.99781484e-01
9.99782899e-01
9.99785011e-01
9.99787730e-01
9.99790964e-01
9.99794627e-01
9.99798631e-01
9.99802885e-01
9.99807305e-01
9.99811818e-01
9.99816339e-01
9.99820782e-01
9.99825089e-01
9.99829198e-01
9.99833021e-01
9.99836502e-01
9.99839613e-01
9.99842272e-01
9.99844417e-01
9.99846033e-01
9.99847077e-01
9.99847545e-01
9.99847498e-01
9.99847035e-01
1.00075305e+00
1.00075374e+00
1.00075599e+00
1.00075990e+00
1.00076543e+00
1.00077251e+00
1.00078106e+00
1.00079098e+00
1.00080208e+00
1.00081423e+00
1.00082729e+00
1.00084104e+00
1.00085530e+00
1.00086991e+00
1.00088464e+00
1.00089930e+00
1.00091368e+00
1.00092758e+00
1.00094080e+00
1.00095315e+00
1.00096446e+00
1.00097454e+00
1.00098325e+00
1.00099044e+00
1.00099600e+00
1.00099982e+00
1.00100183e+00
1.00100198e+00
1.00100022e+00
1.00099655e+00
1.00099099e+00
1.00098357e+00
1.00097437e+00
1.00096347e+00
1.00095097e+00
1.00093700e+00
1.00092171e+00
1.00090525e+00
1.00088779e+00
1.00086951e+00
1.00085060e+00
1.00083123e+00
1.00081159e+00
1.00079185e+00
1.00077219e+00
1.00075274e+00
1.00073365e+00
1.00071504e+00
1.00069698e+00
1.00067956e+00
1.00066281e+00
1.00064675e+00
1.00063136e+00
1.00061660e+00
1.00060241e+00
1.00058870e+00
1.00057536e+00
1.00056226e+00
1.00054926e+00
1.00053621e+00
1.00052295e+00
1.00050934e+00
1.00049521e+00
1.00048043e+00
1.00046487e+00