# vtk DataFile Version 2.0
LBM Flow Field - Timestep 1290
ASCII
DATASET STRUCTURED_POINTS
DIMENSIONS 128 128 1
ORIGIN 0.0 0.0 0.0
SPACING 1.0 1.0 1.0
POINT_DATA 16384
SCALARS density double 1
LOOKUP_TABLE default
9.99503933e-01
9.99536426e-01
9.99575940e-01
9.99600154e-01
9.99631716e-01
9.99671442e-01
9.99715426e-01
9.99763338e-01
9.99816397e-01
9.99873847e-01
9.99935057e-01
9.99999682e-01
1.00006733e+00
1.00013739e+00
1.00020927e+00
1.00028233e+00
1.00035593e+00
1.00042934e+00
1.00050185e+00
1.00057274e+00
1.00064128e+00
1.00070677e+00
1.00076853e+00
1.00082592e+00
1.00087838e+00
1.00092539e+00
1.00096655e+00
1.00100153e+00
1.00103011e+00
1.00105218e+00
1.00106776e+00
1.00107696e+00
1.00108002e+00
1.00107725e+00
1.00106910e+00
1.00105606e+00
1.00103871e+00
1.00101765e+00
1.00099354e+00
1.00096703e+00
1.00093876e+00
1.00090935e+00
1.00087938e+00
1.00084937e+00
1.00081977e+00
1.00079095e+00
1.00076322e+00
1.00073679e+00
1.00071180e+00
1.00068830e+00
1.00066628e+00
1.00064565e+00
1.00062629e+00
1.00060800e+00
1.00059058e+00
1.00057377e+00
1.00055734e+00
1.00054100e+00
1.00052451e+00
1.00050761e+00
1.00049006e+00
1.00047163e+00
1.00045214e+00
1.00043140e+00
1.00040923e+00
1.00038549e+00
1.00036004e+00
1.00033276e+00
1.00030352e+00
1.00027221e+00
1.00023871e+00
1.00020293e+00
1.00016477e+00
1.00012414e+00
1.00008101e+00
1.00003536e+00
9.99987201e-01
9.99936634e-01
9.99883810e-01
9.99828963e-01
9.99772411e-01
9.99714560e-01
9.99655908e-01
9.99597033e-01
9.99538590e-01
9.99481296e-01
9.99425910e-01
9.99373218e-01
9.99324009e-01
9.99279055e-01
9.99239089e-01
9.99204789e-01
9.99176758e-01
9.99155518e-01
9.99141494e-01
9.99135014e-01
9.99136303e-01
9.99145491e-01
9.99162608e-01
9.99187597e-01
9.99220316e-01
9.99260546e-01
9.99307998e-01
9.99362319e-01
9.99423094e-01
9.99489857e-01
9.99562088e-01
9.99639221e-01
9.99720640e-01
9.99805687e-01
9.99893665e-01
9.99983832e-01
1.00007541e+00
1.00016761e+00
1.00025959e+00
1.00035051e+00
1.00043953e+00
1.00052574e+00
1.00060840e+00
1.00068673e+00
1.00075982e+00
1.00082655e+00
1.00088762e+00
1.00094242e+00
1.00098685e+00
1.00102088e+00
1.00106868e+00
1.00110691e+00
9.99536499e-01
9.99555970e-01
9.99588629e-01
9.99614853e-01
9.99648321e-01
9.99686510e-01
9.99730056e-01
9.99777858e-01
9.99830459e-01
9.99887157e-01
9.99947749e-01
1.00001167e+00
1.00007852e+00
1.00014770e+00
1.00021866e+00
1.00029075e+00
1.00036331e+00
1.00043565e+00
1.00050707e+00
1.00057684e+00
1.00064426e+00
1.00070862e+00
1.00076927e+00
1.00082559e+00
1.00087701e+00
1.00092306e+00
1.00096331e+00
1.00099747e+00
1.00102533e+00
1.00104678e+00
1.00106184e+00
1.00107063e+00
1.00107338e+00
1.00107043e+00
1.00106219e+00
1.00104916e+00
1.00103190e+00
1.00101101e+00
1.00098713e+00
1.00096089e+00
1.00093293e+00
1.00090385e+00
1.00087420e+00
1.00084451e+00
1.00081521e+00
1.00078667e+00
1.00075918e+00
1.00073296e+00
1.00070814e+00
1.00068477e+00
1.00066285e+00
1.00064229e+00
1.00062297e+00
1.00060471e+00
1.00058730e+00
1.00057051e+00
1.00055408e+00
1.00053776e+00
1.00052130e+00
1.00050444e+00
1.00048695e+00
1.00046862e+00
1.00044924e+00
1.00042862e+00
1.00040661e+00
1.00038306e+00
1.00035781e+00
1.00033076e+00
1.00030176e+00
1.00027072e+00
1.00023752e+00
1.00020206e+00
1.00016425e+00
1.00012402e+00
1.00008131e+00
1.00003612e+00
9.99988477e-01
9.99938463e-01
9.99886235e-01
9.99832022e-01
9.99776137e-01
9.99718977e-01
9.99661027e-01
9.99602854e-01
9.99545096e-01
9.99488453e-01
9.99433670e-01
9.99381516e-01
9.99332766e-01
9.99288181e-01
9.99248484e-01
9.99214346e-01
9.99186368e-01
9.99165069e-01
9.99150876e-01
9.99144119e-01
9.99145031e-01
9.99153743e-01
9.99170295e-01
9.99194633e-01
9.99226623e-01
9.99266049e-01
9.99312627e-01
9.99366008e-01
9.99425783e-01
9.99491486e-01
9.99562603e-01
9.99638568e-01
9.99718775e-01
9.99802568e-01
9.99889255e-01
9.99978104e-01
1.00006835e+00
1.00015920e+00
1.00024985e+00
1.00033944e+00
1.00042716e+00
1.00051215e+00
1.00059364e+00
1.00067071e+00
1.00074284e+00
1.00080893e+00
1.00086912e+00
1.00092196e+00
1.00096799e+00
1.00100388e+00
1.00104445e+00
1.00106860e+00
9.99578446e-01
9.99591162e-01
9.99607077e-01
9.99638198e-01
9.99673431e-01
9.99709502e-01
9.99751724e-01
9.99799424e-01
9.99851220e-01
9.99906907e-01
9.99966521e-01
1.00002944e+00
1.00009514e+00
1.00016312e+00
1.00023280e+00
1.00030356e+00
1.00037474e+00
1.00044565e+00
1.00051561e+00
1.00058390e+00
1.00064983e+00
1.00071272e+00
1.00077191e+00
1.00082681e+00
1.00087686e+00
1.00092160e+00
1.00096063e+00
1.00099364e+00
1.00102046e+00
1.00104098e+00
1.00105522e+00
1.00106332e+00
1.00106550e+00
1.00106210e+00
1.00105353e+00
1.00104028e+00
1.00102290e+00
1.00100200e+00
1.00097817e+00
1.00095207e+00
1.00092429e+00
1.00089543e+00
1.00086604e+00
1.00083662e+00
1.00080760e+00
1.00077933e+00
1.00075211e+00
1.00072613e+00
1.00070154e+00
1.00067837e+00
1.00065664e+00
1.00063625e+00
1.00061708e+00
1.00059897e+00
1.00058170e+00
1.00056505e+00
1.00054878e+00
1.00053262e+00
1.00051634e+00
1.00049969e+00
1.00048243e+00
1.00046434e+00
1.00044524e+00
1.00042494e+00
1.00040327e+00
1.00038008e+00
1.00035523e+00
1.00032859e+00
1.00030005e+00
1.00026949e+00
1.00023680e+00
1.00020188e+00
1.00016464e+00
1.00012501e+00
1.00008294e+00
1.00003842e+00
9.99991470e-01
9.99942182e-01
9.99890704e-01
9.99837258e-01
9.99782147e-01
9.99725760e-01
9.99668569e-01
9.99611126e-01
9.99554058e-01
9.99498048e-01
9.99443828e-01
9.99392155e-01
9.99343791e-01
9.99299489e-01
9.99259964e-01
9.99225884e-01
9.99197845e-01
9.99176367e-01
9.99161877e-01
9.99154709e-01
9.99155095e-01
9.99163174e-01
9.99178986e-01
9.99202483e-01
9.99233532e-01
9.99271921e-01
9.99317369e-01
9.99369527e-01
9.99427990e-01
9.99492297e-01
9.99561934e-01
9.99636343e-01
9.99714922e-01
9.99797025e-01
9.99881966e-01
9.99969028e-01
1.00005746e+00
1.00014648e+00
1.00023528e+00
1.00032306e+00
1.00040899e+00
1.00049227e+00
1.00057209e+00
1.00064752e+00
1.00071816e+00
1.00078341e+00
1.00084176e+00
1.00089203e+00
1.00093924e+00
1.00097991e+00
1.00100244e+00
1.00101933e+00
9.99608732e-01
9.99623574e-01
9.99643832e-01
9.99672136e-01
9.99702900e-01
9.99739433e-01
9.99781506e-01
9.99827733e-01
9.99878182e-01
9.99932854e-01
9.99991175e-01
1.00005264e+00
1.00011684e+00
1.00018324e+00
1.00025126e+00
1.00032029e+00
1.00038968e+00
1.00045877e+00
1.00052686e+00
1.00059329e+00
1.00065735e+00
1.00071839e+00
1.00077577e+00
1.00082891e+00
1.00087728e+00
1.00092041e+00
1.00095792e+00
1.00098955e+00
1.00101508e+00
1.00103446e+00
1.00104769e+00
1.00105492e+00
1.00105637e+00
1.00105238e+00
1.00104335e+00
1.00102976e+00
1.00101217e+00
1.00099115e+00
1.00096731e+00
1.00094126e+00
1.00091361e+00
1.00088493e+00
1.00085576e+00
1.00082658e+00
1.00079781e+00
1.00076980e+00
1.00074284e+00
1.00071711e+00
1.00069276e+00
1.00066983e+00
1.00064832e+00
1.00062815e+00
1.00060919e+00
1.00059129e+00
1.00057424e+00
1.00055783e+00
1.00054180e+00
1.00052591e+00
1.00050992e+00
1.00049359e+00
1.00047669e+00
1.00045900e+00
1.00044032e+00
1.00042048e+00
1.00039930e+00
1.00037664e+00
1.00035236e+00
1.00032631e+00
1.00029839e+00
1.00026848e+00
1.00023646e+00
1.00020223e+00
1.00016570e+00
1.00012680e+00
1.00008549e+00
1.00004174e+00
9.99995579e-01
9.99947095e-01
9.99896431e-01
9.99843803e-01
9.99789509e-01
9.99733928e-01
9.99677522e-01
9.99620832e-01
9.99564470e-01
9.99509110e-01
9.99455469e-01
9.99404290e-01
9.99356328e-01
9.99312322e-01
9.99272981e-01
9.99238965e-01
9.99210867e-01
9.99189201e-01
9.99174394e-01
9.99166779e-01
9.99166589e-01
9.99173961e-01
9.99188938e-01
9.99211471e-01
9.99241429e-01
9.99278602e-01
9.99322707e-01
9.99373400e-01
9.99430274e-01
9.99492873e-01
9.99560689e-01
9.99633168e-01
9.99709714e-01
9.99789693e-01
9.99872432e-01
9.99957226e-01
1.00004334e+00
1.00013001e+00
1.00021646e+00
1.00030190e+00
1.00038551e+00
1.00046650e+00
1.00054417e+00
1.00061767e+00
1.00068613e+00
1.00074919e+00
1.00080661e+00
1.00085659e+00
1.00089859e+00
1.00093611e+00
1.00096305e+00
1.00098175e+00
9.99649155e-01
9.99665151e-01
9.99687020e-01
9.99710879e-01
9.99740629e-01
9.99777536e-01
9.99817940e-01
9.99862417e-01
9.99911682e-01
9.99964939e-01
1.00002152e+00
1.00008122e+00
1.00014358e+00
1.00020802e+00
1.00027399e+00
1.00034089e+00
1.00040810e+00
1.00047495e+00
1.00054080e+00
1.00060496e+00
1.00066677e+00
1.00072558e+00
1.00078079e+00
1.00083183e+00
1.00087817e+00
1.00091938e+00
1.00095511e+00
1.00098507e+00
1.00100909e+00
1.00102709e+00
1.00103912e+00
1.00104531e+00
1.00104588e+00
1.00104116e+00
1.00103157e+00
1.00101756e+00
1.00099968e+00
1.00097849e+00
1.00095459e+00
1.00092857e+00
1.00090103e+00
1.00087251e+00
1.00084354e+00
1.00081460e+00
1.00078609e+00
1.00075835e+00
1.00073166e+00
1.00070621e+00
1.00068212e+00
1.00065945e+00
1.00063818e+00
1.00061826e+00
1.00059956e+00
1.00058191e+00
1.00056513e+00
1.00054900e+00
1.00053329e+00
1.00051774e+00
1.00050213e+00
1.00048621e+00
1.00046976e+00
1.00045257e+00
1.00043444e+00
1.00041518e+00
1.00039463e+00
1.00037263e+00
1.00034904e+00
1.00032373e+00
1.00029656e+00
1.00026743e+00
1.00023621e+00
1.00020280e+00
1.00016711e+00
1.00012907e+00
1.00008862e+00
1.00004575e+00
1.00000049e+00
9.99952906e-01
9.99903149e-01
9.99851430e-01
9.99798037e-01
9.99743343e-01
9.99687799e-01
9.99631935e-01
9.99576350e-01
9.99521705e-01
9.99468703e-01
9.99418075e-01
9.99370561e-01
9.99326892e-01
9.99287765e-01
9.99253832e-01
9.99225679e-01
9.99203817e-01
9.99188668e-01
9.99180562e-01
9.99179731e-01
9.99186311e-01
9.99200343e-01
9.99221777e-01
9.99250481e-01
9.99286244e-01
9.99328784e-01
9.99377756e-01
9.99432755e-01
9.99493328e-01
9.99558970e-01
9.99629135e-01
9.99703236e-01
9.99780649e-01
9.99860719e-01
9.99942755e-01
1.00002604e+00
1.00010984e+00
1.00019340e+00
1.00027595e+00
1.00035674e+00
1.00043494e+00
1.00050983e+00
1.00058084e+00
1.00064709e+00
1.00070746e+00
1.00076224e+00
1.00081180e+00
1.00085224e+00
1.00088455e+00
1.00091246e+00
1.00093219e+00
9.99699913e-01
9.99713846e-01
9.99733343e-01
9.99757455e-01
9.99787521e-01
9.99821743e-01
9.99860249e-01
9.99903847e-01
9.99951523e-01
1.00000271e+00
1.00005736e+00
1.00011505e+00
1.00017521e+00
1.00023733e+00
1.00030089e+00
1.00036531e+00
1.00042997e+00
1.00049423e+00
1.00055746e+00
1.00061899e+00
1.00067820e+00
1.00073444e+00
1.00078714e+00
1.00083575e+00
1.00087976e+00
1.00091877e+00
1.00095242e+00
1.00098046e+00
1.00100273e+00
1.00101916e+00
1.00102978e+00
1.00103475e+00
1.00103428e+00
1.00102870e+00
1.00101841e+00
1.00100388e+00
1.00098562e+00
1.00096419e+00
1.00094016e+00
1.00091412e+00
1.00088663e+00
1.00085825e+00
1.00082947e+00
1.00080075e+00
1.00077249e+00
1.00074502e+00
1.00071860e+00
1.00069343e+00
1.00066962e+00
1.00064723e+00
1.00062624e+00
1.00060660e+00
1.00058819e+00
1.00057084e+00
1.00055439e+00
1.00053860e+00
1.00052326e+00
1.00050813e+00
1.00049298e+00
1.00047756e+00
1.00046166e+00
1.00044508e+00
1.00042759e+00
1.00040904e+00
1.00038923e+00
1.00036802e+00
1.00034526e+00
1.00032081e+00
1.00029454e+00
1.00026632e+00
1.00023604e+00
1.00020359e+00
1.00016887e+00
1.00013181e+00
1.00009236e+00
1.00005049e+00
1.00000623e+00
9.99959660e-01
9.99910911e-01
9.99860194e-01
9.99807791e-01
9.99754064e-01
9.99699456e-01
9.99644485e-01
9.99589739e-01
9.99535863e-01
9.99483546e-01
9.99433508e-01
9.99386475e-01
9.99343163e-01
9.99304262e-01
9.99270413e-01
9.99242195e-01
9.99220112e-01
9.99204581e-01
9.99195926e-01
9.99194377e-01
9.99200066e-01
9.99213031e-01
9.99233221e-01
9.99260501e-01
9.99294657e-01
9.99335406e-01
9.99382402e-01
9.99435244e-01
9.99493477e-01
9.99556604e-01
9.99624086e-01
9.99695347e-01
9.99769775e-01
9.99846732e-01
9.99925548e-01
1.00000553e+00
1.00008598e+00
1.00016615e+00
1.00024531e+00
1.00032275e+00
1.00039774e+00
1.00046946e+00
1.00053723e+00
1.00060069e+00
1.00065898e+00
1.00071083e+00
1.00075680e+00
1.00079676e+00
1.00082862e+00
1.00085374e+00
1.00087107e+00
9.99756453e-01
9.99769567e-01
9.99787517e-01
9.99811313e-01
9.99839663e-01
9.99871967e-01
9.99909499e-01
9.99951394e-01
9.99996844e-01
1.00004601e+00
1.00009856e+00
1.00015387e+00
1.00021149e+00
1.00027102e+00
1.00033188e+00
1.00039349e+00
1.00045527e+00
1.00051661e+00
1.00057689e+00
1.00063548e+00
1.00069175e+00
1.00074512e+00
1.00079501e+00
1.00084089e+00
1.00088230e+00
1.00091883e+00
1.00095016e+00
1.00097604e+00
1.00099633e+00
1.00101096e+00
1.00101999e+00
1.00102356e+00
1.00102189e+00
1.00101530e+00
1.00100419e+00
1.00098901e+00
1.00097026e+00
1.00094850e+00
1.00092426e+00
1.00089813e+00
1.00087064e+00
1.00084234e+00
1.00081371e+00
1.00078518e+00
1.00075715e+00
1.00072993e+00
1.00070378e+00
1.00067888e+00
1.00065535e+00
1.00063324e+00
1.00061255e+00
1.00059322e+00
1.00057512e+00
1.00055812e+00
1.00054203e+00
1.00052664e+00
1.00051174e+00
1.00049710e+00
1.00048248e+00
1.00046766e+00
1.00045241e+00
1.00043653e+00
1.00041981e+00
1.00040207e+00
1.00038314e+00
1.00036285e+00
1.00034105e+00
1.00031760e+00
1.00029236e+00
1.00026519e+00
1.00023599e+00
1.00020463e+00
1.00017101e+00
1.00013506e+00
1.00009672e+00
1.00005596e+00
1.00001282e+00
9.99967352e-01
9.99919703e-01
9.99870072e-01
9.99818734e-01
9.99766044e-01
9.99712434e-01
9.99658411e-01
9.99604549e-01
9.99551481e-01
9.99499883e-01
9.99450458e-01
9.99403919e-01
9.99360972e-01
9.99322292e-01
9.99288512e-01
9.99260201e-01
9.99237855e-01
9.99221885e-01
9.99212610e-01
9.99210254e-01
9.99214945e-01
9.99226717e-01
9.99245515e-01
9.99271199e-01
9.99303554e-01
9.99342295e-01
9.99387074e-01
9.99437489e-01
9.99493091e-01
9.99553387e-01
9.99617844e-01
9.99685900e-01
9.99756959e-01
9.99830399e-01
9.99905577e-01
9.99981827e-01
1.00005847e+00
1.00013481e+00
1.00021015e+00
1.00028377e+00
1.00035501e+00
1.00042325e+00
1.00048762e+00
1.00054752e+00
1.00060282e+00
1.00065254e+00
1.00069555e+00
1.00073282e+00
1.00076361e+00
1.00078668e+00
1.00080286e+00
9.99818277e-01
9.99830993e-01
9.99848596e-01
9.99870799e-01
9.99897340e-01
9.99928742e-01
9.99964580e-01
1.00000411e+00
1.00004756e+00
1.00009463e+00
1.00014466e+00
1.00019730e+00
1.00025222e+00
1.00030889e+00
1.00036674e+00
1.00042527e+00
1.00048391e+00
1.00054205e+00
1.00059910e+00
1.00065446e+00
1.00070753e+00
1.00075775e+00
1.00080456e+00
1.00084747e+00
1.00088602e+00
1.00091984e+00
1.00094861e+00
1.00097212e+00
1.00099022e+00
1.00100287e+00
1.00101013e+00
1.00101212e+00
1.00100910e+00
1.00100136e+00
1.00098929e+00
1.00097334e+00
1.00095399e+00
1.00093178e+00
1.00090725e+00
1.00088094e+00
1.00085338e+00
1.00082509e+00
1.00079654e+00
1.00076815e+00
1.00074030e+00
1.00071330e+00
1.00068738e+00
1.00066274e+00
1.00063948e+00
1.00061765e+00
1.00059726e+00
1.00057823e+00
1.00056048e+00
1.00054384e+00
1.00052816e+00
1.00051322e+00
1.00049882e+00
1.00048473e+00
1.00047072e+00
1.00045658e+00
1.00044207e+00
1.00042700e+00
1.00041115e+00
1.00039435e+00
1.00037641e+00
1.00035717e+00
1.00033646e+00
1.00031413e+00
1.00029005e+00
1.00026407e+00
1.00023607e+00
1.00020592e+00
1.00017353e+00
1.00013880e+00
1.00010167e+00
1.00006213e+00
1.00002019e+00
9.99975918e-01
9.99929443e-01
9.99880963e-01
9.99830748e-01
9.99779145e-01
9.99726575e-01
9.99673534e-01
9.99620585e-01
9.99568346e-01
9.99517479e-01
9.99468673e-01
9.99422627e-01
9.99380034e-01
9.99341557e-01
9.99307816e-01
9.99279372e-01
9.99256712e-01
9.99240240e-01
9.99230267e-01
9.99227011e-01
9.99230596e-01
9.99241049e-01
9.99258312e-01
9.99282239e-01
9.99312612e-01
9.99349142e-01
9.99391480e-01
9.99439226e-01
9.99491932e-01
9.99549110e-01
9.99610238e-01
9.99674764e-01
9.99742111e-01
9.99811678e-01
9.99882847e-01
9.99954980e-01
1.00002743e+00
1.00009954e+00
1.00017066e+00
1.00024012e+00
1.00030723e+00
1.00037143e+00
1.00043216e+00
1.00048857e+00
1.00054016e+00
1.00058687e+00
1.00062777e+00
1.00066228e+00
1.00069076e+00
1.00071283e+00
1.00072816e+00
9.99886262e-01
9.99898204e-01
9.99914859e-01
9.99935660e-01
9.99960981e-01
9.99990814e-01
1.00002447e+00
1.00006203e+00
1.00010339e+00
1.00014789e+00
1.00019522e+00
1.00024513e+00
1.00029711e+00
1.00035065e+00
1.00040530e+00
1.00046053e+00
1.00051578e+00
1.00057049e+00
1.00062408e+00
1.00067598e+00
1.00072563e+00
1.00077246e+00
1.00081597e+00
1.00085569e+00
1.00089117e+00
1.00092207e+00
1.00094809e+00
1.00096903e+00
1.00098477e+00
1.00099526e+00
1.00100057e+00
1.00100084e+00
1.00099630e+00
1.00098727e+00
1.00097411e+00
1.00095726e+00
1.00093720e+00
1.00091445e+00
1.00088951e+00
1.00086293e+00
1.00083521e+00
1.00080685e+00
1.00077831e+00
1.00075000e+00
1.00072227e+00
1.00069542e+00
1.00066970e+00
1.00064526e+00
1.00062224e+00
1.00060068e+00
1.00058056e+00
1.00056185e+00
1.00054444e+00
1.00052819e+00
1.00051293e+00
1.00049848e+00
1.00048462e+00
1.00047113e+00
1.00045781e+00
1.00044441e+00
1.00043073e+00
1.00041656e+00
1.00040169e+00
1.00038593e+00
1.00036909e+00
1.00035101e+00
1.00033151e+00
1.00031043e+00
1.00028763e+00
1.00026295e+00
1.00023627e+00
1.00020744e+00
1.00017637e+00
1.00014296e+00
1.00010715e+00
1.00006890e+00
1.00002824e+00
9.99985229e-01
9.99939988e-01
9.99892712e-01
9.99843664e-01
9.99793183e-01
9.99741682e-01
9.99689645e-01
9.99637622e-01
9.99586218e-01
9.99536081e-01
9.99487885e-01
9.99442317e-01
9.99400053e-01
9.99361746e-01
9.99328003e-01
9.99299375e-01
9.99276340e-01
9.99259292e-01
9.99248537e-01
9.99244286e-01
9.99246654e-01
9.99255666e-01
9.99271254e-01
9.99293271e-01
9.99321492e-01
9.99355626e-01
9.99395322e-01
9.99440180e-01
9.99489755e-01
9.99543564e-01
9.99601095e-01
9.99661811e-01
9.99725150e-01
9.99790535e-01
9.99857372e-01
9.99925061e-01
9.99992989e-01
1.00006053e+00
1.00012707e+00
1.00019203e+00
1.00025477e+00
1.00031463e+00
1.00037117e+00
1.00042389e+00
1.00047199e+00
1.00051514e+00
1.00055323e+00
1.00058546e+00
1.00061170e+00
1.00063216e+00
1.00064636e+00
9.99959372e-01
9.99970325e-01
9.99985862e-01
1.00000561e+00
1.00002954e+00
1.00005739e+00
1.00008913e+00
1.00012469e+00
1.00016354e+00
1.00020538e+00
1.00025001e+00
1.00029697e+00
1.00034579e+00
1.00039607e+00
1.00044735e+00
1.00049909e+00
1.00055078e+00
1.00060187e+00
1.00065182e+00
1.00070008e+00
1.00074611e+00
1.00078939e+00
1.00082943e+00
1.00086577e+00
1.00089801e+00
1.00092582e+00
1.00094893e+00
1.00096714e+00
1.00098034e+00
1.00098852e+00
1.00099174e+00
1.00099014e+00
1.00098395e+00
1.00097349e+00
1.00095911e+00
1.00094124e+00
1.00092035e+00
1.00089692e+00
1.00087147e+00
1.00084451e+00
1.00081653e+00
1.00078802e+00
1.00075940e+00
1.00073107e+00
1.00070339e+00
1.00067663e+00
1.00065103e+00
1.00062676e+00
1.00060392e+00
1.00058258e+00
1.00056272e+00
1.00054429e+00
1.00052721e+00
1.00051134e+00
1.00049653e+00
1.00048257e+00
1.00046929e+00
1.00045645e+00
1.00044386e+00
1.00043127e+00
1.00041849e+00
1.00040530e+00
1.00039149e+00
1.00037686e+00
1.00036123e+00
1.00034440e+00
1.00032622e+00
1.00030650e+00
1.00028508e+00
1.00026181e+00
1.00023654e+00
1.00020913e+00
1.00017947e+00
1.00014747e+00
1.00011304e+00
1.00007616e+00
1.00003684e+00
9.99995136e-01
9.99951172e-01
9.99905135e-01
9.99857281e-01
9.99807942e-01
9.99757521e-01
9.99706491e-01
9.99655392e-01
9.99604813e-01
9.99555390e-01
9.99507781e-01
9.99462660e-01
9.99420689e-01
9.99382506e-01
9.99348709e-01
9.99319837e-01
9.99296357e-01
9.99278656e-01
9.99267030e-01
9.99261685e-01
9.99262728e-01
9.99270178e-01
9.99283961e-01
9.99303925e-01
9.99329840e-01
9.99361412e-01
9.99398288e-01
9.99440068e-01
9.99486309e-01
9.99536534e-01
9.99590243e-01
9.99646910e-01
9.99705994e-01
9.99766941e-01
9.99829186e-01
9.99892157e-01
9.99955283e-01
1.00001799e+00
1.00007970e+00
1.00013983e+00
1.00019789e+00
1.00025329e+00
1.00030544e+00
1.00035398e+00
1.00039845e+00
1.00043821e+00
1.00047304e+00
1.00050276e+00
1.00052700e+00
1.00054575e+00
1.00055858e+00
1.00003671e+00
1.00004686e+00
1.00006136e+00
1.00007985e+00
1.00010216e+00
1.00012822e+00
1.00015804e+00
1.00019126e+00
1.00022756e+00
1.00026679e+00
1.00030855e+00
1.00035239e+00
1.00039798e+00
1.00044490e+00
1.00049266e+00
1.00054078e+00
1.00058878e+00
1.00063613e+00
1.00068231e+00
1.00072680e+00
1.00076908e+00
1.00080866e+00
1.00084509e+00
1.00087792e+00
1.00090679e+00
1.00093137e+00
1.00095143e+00
1.00096678e+00
1.00097732e+00
1.00098306e+00
1.00098405e+00
1.00098045e+00
1.00097249e+00
1.00096046e+00
1.00094474e+00
1.00092573e+00
1.00090388e+00
1.00087967e+00
1.00085359e+00
1.00082614e+00
1.00079779e+00
1.00076901e+00
1.00074020e+00
1.00071177e+00
1.00068404e+00
1.00065728e+00
1.00063173e+00
1.00060754e+00
1.00058483e+00
1.00056365e+00
1.00054399e+00
1.00052582e+00
1.00050904e+00
1.00049354e+00
1.00047915e+00
1.00046570e+00
1.00045300e+00
1.00044084e+00
1.00042901e+00
1.00041729e+00
1.00040546e+00
1.00039331e+00
1.00038062e+00
1.00036721e+00
1.00035286e+00
1.00033738e+00
1.00032060e+00
1.00030232e+00
1.00028237e+00
1.00026059e+00
1.00023682e+00
1.00021091e+00
1.00018274e+00
1.00015220e+00
1.00011922e+00
1.00008376e+00
1.00004582e+00
1.00000546e+00
9.99962802e-01
9.99918022e-01
9.99871374e-01
9.99823180e-01
9.99773835e-01
9.99723803e-01
9.99673609e-01
9.99623832e-01
9.99575092e-01
9.99528034e-01
9.99483316e-01
9.99441588e-01
9.99403474e-01
9.99369560e-01
9.99340372e-01
9.99316370e-01
9.99297931e-01
9.99285344e-01
9.99278804e-01
9.99278416e-01
9.99284189e-01
9.99296045e-01
9.99313826e-01
9.99337297e-01
9.99366161e-01
9.99400063e-01
9.99438602e-01
9.99481340e-01
9.99527806e-01
9.99577508e-01
9.99629936e-01
9.99684568e-01
9.99740873e-01
9.99798318e-01
9.99856364e-01
9.99914473e-01
9.99972122e-01
1.00002879e+00
1.00008393e+00
1.00013706e+00
1.00018773e+00
1.00023544e+00
1.00027967e+00
1.00032014e+00
1.00035643e+00
1.00038811e+00
1.00041506e+00
1.00043712e+00
1.00045415e+00
1.00046575e+00
1.00011773e+00
1.00012705e+00
1.00014055e+00
1.00015769e+00
1.00017841e+00
1.00020273e+00
1.00023044e+00
1.00026129e+00
1.00029512e+00
1.00033161e+00
1.00037036e+00
1.00041107e+00
1.00045338e+00
1.00049683e+00
1.00054100e+00
1.00058544e+00
1.00062966e+00
1.00067319e+00
1.00071551e+00
1.00075614e+00
1.00079459e+00
1.00083040e+00
1.00086312e+00
1.00089235e+00
1.00091775e+00
1.00093901e+00
1.00095591e+00
1.00096830e+00
1.00097608e+00
1.00097926e+00
1.00097792e+00
1.00097220e+00
1.00096235e+00
1.00094865e+00
1.00093147e+00
1.00091119e+00
1.00088827e+00
1.00086316e+00
1.00083633e+00
1.00080827e+00
1.00077944e+00
1.00075027e+00
1.00072117e+00
1.00069252e+00
1.00066463e+00
1.00063777e+00
1.00061217e+00
1.00058798e+00
1.00056530e+00
1.00054421e+00
1.00052469e+00
1.00050671e+00
1.00049019e+00
1.00047501e+00
1.00046103e+00
1.00044807e+00
1.00043596e+00
1.00042448e+00
1.00041343e+00
1.00040259e+00
1.00039175e+00
1.00038068e+00
1.00036918e+00
1.00035703e+00
1.00034403e+00
1.00032997e+00
1.00031465e+00
1.00029788e+00
1.00027948e+00
1.00025925e+00
1.00023704e+00
1.00021269e+00
1.00018606e+00
1.00015703e+00
1.00012554e+00
1.00009152e+00
1.00005499e+00
1.00001600e+00
9.99974653e-01
9.99931133e-01
9.99885685e-01
9.99838624e-01
9.99790336e-01
9.99741275e-01
9.99691956e-01
9.99642942e-01
9.99594842e-01
9.99548285e-01
9.99503916e-01
9.99462370e-01
9.99424259e-01
9.99390156e-01
9.99360577e-01
9.99335971e-01
9.99316706e-01
9.99303063e-01
9.99295232e-01
9.99293309e-01
9.99297297e-01
9.99307114e-01
9.99322595e-01
9.99343502e-01
9.99369534e-01
9.99400334e-01
9.99435503e-01
9.99474602e-01
9.99517171e-01
9.99562726e-01
9.99610771e-01
9.99660805e-01
9.99712320e-01
9.99764812e-01
9.99817780e-01
9.99870729e-01
9.99923164e-01
9.99974619e-01
1.00002464e+00
1.00007274e+00
1.00011850e+00
1.00016156e+00
1.00020148e+00
1.00023786e+00
1.00027047e+00
1.00029897e+00
1.00032315e+00
1.00034294e+00
1.00035825e+00
1.00036860e+00
1.00020188e+00
1.00021033e+00
1.00022275e+00
1.00023858e+00
1.00025775e+00
1.00028021e+00
1.00030580e+00
1.00033436e+00
1.00036564e+00
1.00039931e+00
1.00043509e+00
1.00047266e+00
1.00051162e+00
1.00055158e+00
1.00059215e+00
1.00063287e+00
1.00067329e+00
1.00071296e+00
1.00075139e+00
1.00078813e+00
1.00082271e+00
1.00085469e+00
1.00088366e+00
1.00090924e+00
1.00093111e+00
1.00094899e+00
1.00096268e+00
1.00097202e+00
1.00097696e+00
1.00097751e+00
1.00097374e+00
1.00096582e+00
1.00095398e+00
1.00093851e+00
1.00091976e+00
1.00089811e+00
1.00087400e+00
1.00084787e+00
1.00082018e+00
1.00079138e+00
1.00076194e+00
1.00073226e+00
1.00070275e+00
1.00067376e+00
1.00064559e+00
1.00061852e+00
1.00059275e+00
1.00056845e+00
1.00054571e+00
1.00052461e+00
1.00050514e+00
1.00048728e+00
1.00047095e+00
1.00045604e+00
1.00044241e+00
1.00042991e+00
1.00041836e+00
1.00040754e+00
1.00039727e+00
1.00038732e+00
1.00037748e+00
1.00036753e+00
1.00035724e+00
1.00034640e+00
1.00033478e+00
1.00032218e+00
1.00030838e+00
1.00029317e+00
1.00027634e+00
1.00025772e+00
1.00023711e+00
1.00021435e+00
1.00018929e+00
1.00016180e+00
1.00013181e+00
1.00009926e+00
1.00006414e+00
1.00002651e+00
9.99986471e-01
9.99944197e-01
9.99899928e-01
9.99853972e-01
9.99806709e-01
9.99758581e-01
9.99710091e-01
9.99661792e-01
9.99614276e-01
9.99568162e-01
9.99524078e-01
9.99482645e-01
9.99444464e-01
9.99410094e-01
9.99380043e-01
9.99354747e-01
9.99334567e-01
9.99319777e-01
9.99310560e-01
9.99307004e-01
9.99309109e-01
9.99316787e-01
9.99329867e-01
9.99348108e-01
9.99371207e-01
9.99398804e-01
9.99430501e-01
9.99465864e-01
9.99504436e-01
9.99545745e-01
9.99589311e-01
9.99634650e-01
9.99681280e-01
9.99728726e-01
9.99776520e-01
9.99824211e-01
9.99871352e-01
9.99917510e-01
9.99962284e-01
1.00000528e+00
1.00004611e+00
1.00008442e+00
1.00011990e+00
1.00015222e+00
1.00018108e+00
1.00020631e+00
1.00022771e+00
1.00024522e+00
1.00025876e+00
1.00026783e+00
1.00028845e+00
1.00029604e+00
1.00030739e+00
1.00032193e+00
1.00033953e+00
1.00036014e+00
1.00038366e+00
1.00040991e+00
1.00043862e+00
1.00046953e+00
1.00050236e+00
1.00053677e+00
1.00057240e+00
1.00060891e+00
1.00064588e+00
1.00068289e+00
1.00071953e+00
1.00075535e+00
1.00078991e+00
1.00082276e+00
1.00085347e+00
1.00088162e+00
1.00090684e+00
1.00092876e+00
1.00094708e+00
1.00096155e+00
1.00097198e+00
1.00097825e+00
1.00098030e+00
1.00097816e+00
1.00097190e+00
1.00096171e+00
1.00094781e+00
1.00093047e+00
1.00091006e+00
1.00088694e+00
1.00086153e+00
1.00083427e+00
1.00080560e+00
1.00077596e+00
1.00074578e+00
1.00071547e+00
1.00068541e+00
1.00065595e+00
1.00062738e+00
1.00059996e+00
1.00057391e+00
1.00054937e+00
1.00052646e+00
1.00050524e+00
1.00048572e+00
1.00046787e+00
1.00045164e+00
1.00043693e+00
1.00042359e+00
1.00041149e+00
1.00040044e+00
1.00039026e+00
1.00038073e+00
1.00037166e+00
1.00036281e+00
1.00035396e+00
1.00034489e+00
1.00033536e+00
1.00032515e+00
1.00031402e+00
1.00030175e+00
1.00028812e+00
1.00027290e+00
1.00025590e+00
1.00023690e+00
1.00021575e+00
1.00019226e+00
1.00016632e+00
1.00013783e+00
1.00010673e+00
1.00007302e+00
1.00003673e+00
9.99997973e-01
9.99956913e-01
9.99913787e-01
9.99868896e-01
9.99822611e-01
9.99775365e-01
9.99727650e-01
9.99680006e-01
9.99633012e-01
9.99587273e-01
9.99543402e-01
9.99502009e-01
9.99463681e-01
9.99428965e-01
9.99398357e-01
9.99372286e-01
9.99351105e-01
9.99335080e-01
9.99324387e-01
9.99319111e-01
9.99319245e-01
9.99324696e-01
9.99335291e-01
9.99350786e-01
9.99370873e-01
9.99395194e-01
9.99423350e-01
9.99454911e-01
9.99489427e-01
9.99526435e-01
9.99565470e-01
9.99606066e-01
9.99647766e-01
9.99690125e-01
9.99732709e-01
9.99775103e-01
9.99816911e-01
9.99857752e-01
9.99897260e-01
9.99935105e-01
9.99970970e-01
1.00000454e+00
1.00003555e+00
1.00006375e+00
1.00008891e+00
1.00011084e+00
1.00012944e+00
1.00014469e+00
1.00015648e+00
1.00016426e+00
1.00037684e+00
1.00038360e+00
1.00039391e+00
1.00040716e+00
1.00042320e+00
1.00044202e+00
1.00046350e+00
1.00048745e+00
1.00051365e+00
1.00054186e+00
1.00057176e+00
1.00060306e+00
1.00063544e+00
1.00066853e+00
1.00070195e+00
1.00073532e+00
1.00076823e+00
1.00080026e+00
1.00083099e+00
1.00086001e+00
1.00088689e+00
1.00091126e+00
1.00093275e+00
1.00095103e+00
1.00096582e+00
1.00097689e+00
1.00098407e+00
1.00098725e+00
1.00098639e+00
1.00098153e+00
1.00097275e+00
1.00096023e+00
1.00094420e+00
1.00092495e+00
1.00090280e+00
1.00087812e+00
1.00085133e+00
1.00082283e+00
1.00079307e+00
1.00076246e+00
1.00073143e+00
1.00070036e+00
1.00066963e+00
1.00063956e+00
1.00061045e+00
1.00058256e+00
1.00055608e+00
1.00053117e+00
1.00050795e+00
1.00048649e+00
1.00046679e+00
1.00044886e+00
1.00043262e+00
1.00041799e+00
1.00040486e+00
1.00039307e+00
1.00038246e+00
1.00037284e+00
1.00036401e+00
1.00035576e+00
1.00034787e+00
1.00034010e+00
1.00033222e+00
1.00032399e+00
1.00031516e+00
1.00030550e+00
1.00029475e+00
1.00028269e+00
1.00026907e+00
1.00025367e+00
1.00023629e+00
1.00021672e+00
1.00019480e+00
1.00017038e+00
1.00014337e+00
1.00011369e+00
1.00008135e+00
1.00004636e+00
1.00000885e+00
9.99968956e-01
9.99926923e-01
9.99883044e-01
9.99837680e-01
9.99791256e-01
9.99744252e-01
9.99697197e-01
9.99650656e-01
9.99605220e-01
9.99561489e-01
9.99520059e-01
9.99481504e-01
9.99446362e-01
9.99415116e-01
9.99388189e-01
9.99365924e-01
9.99348581e-01
9.99336332e-01
9.99329257e-01
9.99327345e-01
9.99330500e-01
9.99338544e-01
9.99351232e-01
9.99368255e-01
9.99389253e-01
9.99413829e-01
9.99441557e-01
9.99471993e-01
9.99504684e-01
9.99539179e-01
9.99575031e-01
9.99611805e-01
9.99649086e-01
9.99686475e-01
9.99723593e-01
9.99760087e-01
9.99795627e-01
9.99829903e-01
9.99862623e-01
9.99893537e-01
9.99922397e-01
9.99948975e-01
9.99973083e-01
9.99994544e-01
1.00001322e+00
1.00002905e+00
1.00004204e+00
1.00005208e+00
1.00005861e+00
1.00046650e+00
1.00047245e+00
1.00048174e+00
1.00049374e+00
1.00050828e+00
1.00052535e+00
1.00054483e+00
1.00056656e+00
1.00059033e+00
1.00061588e+00
1.00064294e+00
1.00067123e+00
1.00070043e+00
1.00073019e+00
1.00076016e+00
1.00078998e+00
1.00081925e+00
1.00084758e+00
1.00087458e+00
1.00089983e+00
1.00092297e+00
1.00094362e+00
1.00096145e+00
1.00097615e+00
1.00098746e+00
1.00099517e+00
1.00099913e+00
1.00099924e+00
1.00099549e+00
1.00098790e+00
1.00097659e+00
1.00096173e+00
1.00094354e+00
1.00092231e+00
1.00089836e+00
1.00087207e+00
1.00084381e+00
1.00081399e+00
1.00078304e+00
1.00075136e+00
1.00071935e+00
1.00068740e+00
1.00065586e+00
1.00062506e+00
1.00059527e+00
1.00056676e+00
1.00053971e+00
1.00051429e+00
1.00049062e+00
1.00046877e+00
1.00044877e+00
1.00043060e+00
1.00041423e+00
1.00039958e+00
1.00038653e+00
1.00037494e+00
1.00036467e+00
1.00035553e+00
1.00034731e+00
1.00033982e+00
1.00033281e+00
1.00032606e+00
1.00031931e+00
1.00031233e+00
1.00030484e+00