# vtk DataFile Version 2.0
LBM Flow Field - Timestep 2390
ASCII
DATASET STRUCTURED_POINTS
DIMENSIONS 128 128 1
ORIGIN 0.0 0.0 0.0
SPACING 1.0 1.0 1.0
POINT_DATA 16384
SCALARS density double 1
LOOKUP_TABLE default
9.99729421e-01
9.99718041e-01
9.99706523e-01
9.99707926e-01
9.99709996e-01
9.99711304e-01
9.99714527e-01
9.99719761e-01
9.99725774e-01
9.99732795e-01
9.99741085e-01
9.99750447e-01
9.99760687e-01
9.99771819e-01
9.99783786e-01
9.99796479e-01
9.99809818e-01
9.99823744e-01
9.99838179e-01
9.99853049e-01
9.99868285e-01
9.99883821e-01
9.99899590e-01
9.99915528e-01
9.99931572e-01
9.99947661e-01
9.99963732e-01
9.99979725e-01
9.99995579e-01
1.00001123e+00
1.00002662e+00
1.00004168e+00
1.00005634e+00
1.00007055e+00
1.00008423e+00
1.00009733e+00
1.00010976e+00
1.00012148e+00
1.00013240e+00
1.00014249e+00
1.00015167e+00
1.00015990e+00
1.00016714e+00
1.00017335e+00
1.00017850e+00
1.00018257e+00
1.00018557e+00
1.00018749e+00
1.00018836e+00
1.00018821e+00
1.00018709e+00
1.00018506e+00
1.00018220e+00
1.00017859e+00
1.00017434e+00
1.00016957e+00
1.00016439e+00
1.00015894e+00
1.00015337e+00
1.00014783e+00
1.00014245e+00
1.00013741e+00
1.00013286e+00
1.00012895e+00
1.00012584e+00
1.00012367e+00
1.00012258e+00
1.00012271e+00
1.00012418e+00
1.00012710e+00
1.00013159e+00
1.00013772e+00
1.00014557e+00
1.00015522e+00
1.00016670e+00
1.00018006e+00
1.00019531e+00
1.00021246e+00
1.00023150e+00
1.00025242e+00
1.00027518e+00
1.00029974e+00
1.00032603e+00
1.00035398e+00
1.00038351e+00
1.00041453e+00
1.00044694e+00
1.00048062e+00
1.00051546e+00
1.00055131e+00
1.00058806e+00
1.00062555e+00
1.00066363e+00
1.00070216e+00
1.00074098e+00
1.00077993e+00
1.00081885e+00
1.00085757e+00
1.00089594e+00
1.00093380e+00
1.00097101e+00
1.00100740e+00
1.00104284e+00
1.00107719e+00
1.00111034e+00
1.00114216e+00
1.00117256e+00
1.00120144e+00
1.00122873e+00
1.00125436e+00
1.00127829e+00
1.00130046e+00
1.00132086e+00
1.00133949e+00
1.00135634e+00
1.00137138e+00
1.00138465e+00
1.00139629e+00
1.00140618e+00
1.00141422e+00
1.00142083e+00
1.00142638e+00
1.00142957e+00
1.00143057e+00
1.00143252e+00
1.00143382e+00
1.00142084e+00
1.00140830e+00
9.99717220e-01
9.99712846e-01
9.99705484e-01
9.99705628e-01
9.99706484e-01
9.99708653e-01
9.99712027e-01
9.99717026e-01
9.99723081e-01
9.99730302e-01
9.99738595e-01
9.99747948e-01
9.99758235e-01
9.99769407e-01
9.99781380e-01
9.99794089e-01
9.99807451e-01
9.99821397e-01
9.99835854e-01
9.99850751e-01
9.99866020e-01
9.99881595e-01
9.99897411e-01
9.99913404e-01
9.99929512e-01
9.99945673e-01
9.99961827e-01
9.99977912e-01
9.99993867e-01
1.00000963e+00
1.00002514e+00
1.00004032e+00
1.00005512e+00
1.00006947e+00
1.00008330e+00
1.00009654e+00
1.00010913e+00
1.00012100e+00
1.00013208e+00
1.00014232e+00
1.00015166e+00
1.00016004e+00
1.00016743e+00
1.00017377e+00
1.00017906e+00
1.00018326e+00
1.00018637e+00
1.00018841e+00
1.00018938e+00
1.00018933e+00
1.00018829e+00
1.00018634e+00
1.00018354e+00
1.00018000e+00
1.00017580e+00
1.00017106e+00
1.00016592e+00
1.00016049e+00
1.00015494e+00
1.00014939e+00
1.00014402e+00
1.00013897e+00
1.00013440e+00
1.00013046e+00
1.00012732e+00
1.00012511e+00
1.00012397e+00
1.00012405e+00
1.00012547e+00
1.00012834e+00
1.00013276e+00
1.00013883e+00
1.00014662e+00
1.00015620e+00
1.00016762e+00
1.00018092e+00
1.00019611e+00
1.00021321e+00
1.00023221e+00
1.00025308e+00
1.00027580e+00
1.00030033e+00
1.00032659e+00
1.00035453e+00
1.00038405e+00
1.00041507e+00
1.00044749e+00
1.00048118e+00
1.00051603e+00
1.00055191e+00
1.00058869e+00
1.00062621e+00
1.00066433e+00
1.00070290e+00
1.00074176e+00
1.00078075e+00
1.00081970e+00
1.00085846e+00
1.00089687e+00
1.00093476e+00
1.00097199e+00
1.00100841e+00
1.00104387e+00
1.00107825e+00
1.00111141e+00
1.00114325e+00
1.00117367e+00
1.00120257e+00
1.00122988e+00
1.00125553e+00
1.00127948e+00
1.00130169e+00
1.00132213e+00
1.00134079e+00
1.00135768e+00
1.00137280e+00
1.00138616e+00
1.00139783e+00
1.00140777e+00
1.00141608e+00
1.00142279e+00
1.00142810e+00
1.00143148e+00
1.00143349e+00
1.00143415e+00
1.00143401e+00
1.00142572e+00
1.00142115e+00
9.99701593e-01
9.99701053e-01
9.99702903e-01
9.99700144e-01
9.99699453e-01
9.99702874e-01
9.99706857e-01
9.99711421e-01
9.99717530e-01
9.99725005e-01
9.99733373e-01
9.99742730e-01
9.99753104e-01
9.99764357e-01
9.99776384e-01
9.99789150e-01
9.99802581e-01
9.99816594e-01
9.99831118e-01
9.99846092e-01
9.99861444e-01
9.99877109e-01
9.99893024e-01
9.99909126e-01
9.99925354e-01
9.99941647e-01
9.99957944e-01
9.99974184e-01
9.99990307e-01
1.00000625e+00
1.00002195e+00
1.00003734e+00
1.00005235e+00
1.00006692e+00
1.00008098e+00
1.00009446e+00
1.00010729e+00
1.00011941e+00
1.00013074e+00
1.00014123e+00
1.00015081e+00
1.00015944e+00
1.00016706e+00
1.00017364e+00
1.00017915e+00
1.00018357e+00
1.00018689e+00
1.00018912e+00
1.00019027e+00
1.00019038e+00
1.00018950e+00
1.00018768e+00
1.00018501e+00
1.00018157e+00
1.00017747e+00
1.00017281e+00
1.00016773e+00
1.00016236e+00
1.00015684e+00
1.00015132e+00
1.00014595e+00
1.00014090e+00
1.00013632e+00
1.00013236e+00
1.00012919e+00
1.00012694e+00
1.00012576e+00
1.00012579e+00
1.00012716e+00
1.00012997e+00
1.00013434e+00
1.00014035e+00
1.00014809e+00
1.00015762e+00
1.00016900e+00
1.00018226e+00
1.00019742e+00
1.00021450e+00
1.00023349e+00
1.00025437e+00
1.00027711e+00
1.00030166e+00
1.00032797e+00
1.00035596e+00
1.00038555e+00
1.00041666e+00
1.00044916e+00
1.00048296e+00
1.00051793e+00
1.00055394e+00
1.00059084e+00
1.00062850e+00
1.00066677e+00
1.00070548e+00
1.00074448e+00
1.00078360e+00
1.00082269e+00
1.00086158e+00
1.00090011e+00
1.00093812e+00
1.00097546e+00
1.00101197e+00
1.00104752e+00
1.00108196e+00
1.00111519e+00
1.00114708e+00
1.00117754e+00
1.00120648e+00
1.00123381e+00
1.00125949e+00
1.00128345e+00
1.00130567e+00
1.00132613e+00
1.00134481e+00
1.00136170e+00
1.00137686e+00
1.00139027e+00
1.00140190e+00
1.00141188e+00
1.00142045e+00
1.00142717e+00
1.00143195e+00
1.00143601e+00
1.00143942e+00
1.00143824e+00
1.00143487e+00
1.00143706e+00
1.00143691e+00
9.99694048e-01
9.99691927e-01
9.99691393e-01
9.99690382e-01
9.99691972e-01
9.99694562e-01
9.99698141e-01
9.99703246e-01
9.99709635e-01
9.99717028e-01
9.99725500e-01
9.99735038e-01
9.99745511e-01
9.99756844e-01
9.99768989e-01
9.99781871e-01
9.99795408e-01
9.99809533e-01
9.99824180e-01
9.99839278e-01
9.99854762e-01
9.99870566e-01
9.99886629e-01
9.99902888e-01
9.99919284e-01
9.99935755e-01
9.99952241e-01
9.99968683e-01
9.99985018e-01
1.00000119e+00
1.00001712e+00
1.00003276e+00
1.00004803e+00
1.00006287e+00
1.00007721e+00
1.00009098e+00
1.00010410e+00
1.00011651e+00
1.00012815e+00
1.00013894e+00
1.00014883e+00
1.00015777e+00
1.00016569e+00
1.00017257e+00
1.00017837e+00
1.00018308e+00
1.00018667e+00
1.00018917e+00
1.00019058e+00
1.00019093e+00
1.00019028e+00
1.00018868e+00
1.00018620e+00
1.00018294e+00
1.00017900e+00
1.00017450e+00
1.00016955e+00
1.00016429e+00
1.00015887e+00
1.00015343e+00
1.00014814e+00
1.00014314e+00
1.00013860e+00
1.00013467e+00
1.00013151e+00
1.00012926e+00
1.00012808e+00
1.00012810e+00
1.00012945e+00
1.00013225e+00
1.00013660e+00
1.00014259e+00
1.00015032e+00
1.00015984e+00
1.00017121e+00
1.00018447e+00
1.00019965e+00
1.00021675e+00
1.00023578e+00
1.00025671e+00
1.00027951e+00
1.00030415e+00
1.00033055e+00
1.00035866e+00
1.00038838e+00
1.00041963e+00
1.00045230e+00
1.00048627e+00
1.00052143e+00
1.00055763e+00
1.00059473e+00
1.00063260e+00
1.00067108e+00
1.00071000e+00
1.00074921e+00
1.00078854e+00
1.00082783e+00
1.00086691e+00
1.00090562e+00
1.00094379e+00
1.00098128e+00
1.00101792e+00
1.00105359e+00
1.00108814e+00
1.00112146e+00
1.00115342e+00
1.00118393e+00
1.00121291e+00
1.00124027e+00
1.00126596e+00
1.00128993e+00
1.00131214e+00
1.00133259e+00
1.00135125e+00
1.00136814e+00
1.00138326e+00
1.00139666e+00
1.00140836e+00
1.00141835e+00
1.00142670e+00
1.00143364e+00
1.00143894e+00
1.00144245e+00
1.00144485e+00
1.00144621e+00
1.00144481e+00
1.00144419e+00
1.00144223e+00
9.99683353e-01
9.99680384e-01
9.99678139e-01
9.99679324e-01
9.99681357e-01
9.99683188e-01
9.99687136e-01
9.99692742e-01
9.99699129e-01
9.99706550e-01
9.99715241e-01
9.99724945e-01
9.99735524e-01
9.99746993e-01
9.99759293e-01
9.99772317e-01
9.99785997e-01
9.99800276e-01
9.99815081e-01
9.99830342e-01
9.99845995e-01
9.99861977e-01
9.99878226e-01
9.99894681e-01
9.99911282e-01
9.99927969e-01
9.99944684e-01
9.99961365e-01
9.99977953e-01
9.99994384e-01
1.00001060e+00
1.00002652e+00
1.00004210e+00
1.00005725e+00
1.00007191e+00
1.00008601e+00
1.00009948e+00
1.00011225e+00
1.00012424e+00
1.00013540e+00
1.00014565e+00
1.00015495e+00
1.00016325e+00
1.00017049e+00
1.00017666e+00
1.00018172e+00
1.00018566e+00
1.00018850e+00
1.00019023e+00
1.00019091e+00
1.00019056e+00
1.00018925e+00
1.00018705e+00
1.00018405e+00
1.00018035e+00
1.00017607e+00
1.00017133e+00
1.00016626e+00
1.00016100e+00
1.00015572e+00
1.00015056e+00
1.00014567e+00
1.00014123e+00
1.00013739e+00
1.00013430e+00
1.00013211e+00
1.00013098e+00
1.00013104e+00
1.00013242e+00
1.00013524e+00
1.00013961e+00
1.00014563e+00
1.00015338e+00
1.00016294e+00
1.00017434e+00
1.00018765e+00
1.00020288e+00
1.00022006e+00
1.00023917e+00
1.00026020e+00
1.00028312e+00
1.00030789e+00
1.00033445e+00
1.00036272e+00
1.00039263e+00
1.00042409e+00
1.00045698e+00
1.00049118e+00
1.00052658e+00
1.00056304e+00
1.00060041e+00
1.00063855e+00
1.00067730e+00
1.00071649e+00
1.00075596e+00
1.00079556e+00
1.00083509e+00
1.00087441e+00
1.00091334e+00
1.00095172e+00
1.00098939e+00
1.00102621e+00
1.00106202e+00
1.00109669e+00
1.00113011e+00
1.00116215e+00
1.00119272e+00
1.00122173e+00
1.00124911e+00
1.00127480e+00
1.00129876e+00
1.00132095e+00
1.00134135e+00
1.00135998e+00
1.00137684e+00
1.00139191e+00
1.00140522e+00
1.00141693e+00
1.00142697e+00
1.00143518e+00
1.00144195e+00
1.00144768e+00
1.00145147e+00
1.00145288e+00
1.00145467e+00
1.00145571e+00
1.00145309e+00
1.00145008e+00
9.99668308e-01
9.99666201e-01
9.99665113e-01
9.99665571e-01
9.99666840e-01
9.99669826e-01
9.99674267e-01
9.99679514e-01
9.99686002e-01
9.99693823e-01
9.99702659e-01
9.99712433e-01
9.99723199e-01
9.99734869e-01
9.99747325e-01
9.99760514e-01
9.99774381e-01
9.99788847e-01
9.99803838e-01
9.99819295e-01
9.99835152e-01
9.99851346e-01
9.99867815e-01
9.99884500e-01
9.99901341e-01
9.99918281e-01
9.99935259e-01
9.99952217e-01
9.99969094e-01
9.99985828e-01
1.00000236e+00
1.00001861e+00
1.00003453e+00
1.00005005e+00
1.00006508e+00
1.00007956e+00
1.00009343e+00
1.00010660e+00
1.00011901e+00
1.00013058e+00
1.00014127e+00
1.00015100e+00
1.00015973e+00
1.00016741e+00
1.00017401e+00
1.00017950e+00
1.00018387e+00
1.00018712e+00
1.00018927e+00
1.00019034e+00
1.00019037e+00
1.00018943e+00
1.00018758e+00
1.00018492e+00
1.00018154e+00
1.00017755e+00
1.00017309e+00
1.00016827e+00
1.00016326e+00
1.00015819e+00
1.00015322e+00
1.00014852e+00
1.00014423e+00
1.00014053e+00
1.00013756e+00
1.00013548e+00
1.00013445e+00
1.00013459e+00
1.00013605e+00
1.00013894e+00
1.00014338e+00
1.00014947e+00
1.00015729e+00
1.00016691e+00
1.00017840e+00
1.00019179e+00
1.00020713e+00
1.00022442e+00
1.00024365e+00
1.00026483e+00
1.00028792e+00
1.00031287e+00
1.00033963e+00
1.00036813e+00
1.00039829e+00
1.00043000e+00
1.00046317e+00
1.00049767e+00
1.00053338e+00
1.00057015e+00
1.00060785e+00
1.00064631e+00
1.00068539e+00
1.00072491e+00
1.00076471e+00
1.00080461e+00
1.00084445e+00
1.00088405e+00
1.00092324e+00
1.00096186e+00
1.00099976e+00
1.00103676e+00
1.00107274e+00
1.00110756e+00
1.00114108e+00
1.00117321e+00
1.00120384e+00
1.00123288e+00
1.00126027e+00
1.00128595e+00
1.00130988e+00
1.00133203e+00
1.00135238e+00
1.00137092e+00
1.00138769e+00
1.00140272e+00
1.00141598e+00
1.00142751e+00
1.00143747e+00
1.00144590e+00
1.00145257e+00
1.00145769e+00
1.00146186e+00
1.00146446e+00
1.00146524e+00
1.00146532e+00
1.00146398e+00
1.00146192e+00
9.99651725e-01
9.99649662e-01
9.99649134e-01
9.99649178e-01
9.99650761e-01
9.99654245e-01
9.99658506e-01
9.99663876e-01
9.99670751e-01
9.99678726e-01
9.99687645e-01
9.99697634e-01
9.99708627e-01
9.99720471e-01
9.99733113e-01
9.99746516e-01
9.99760594e-01
9.99775269e-01
9.99790481e-01
9.99806167e-01
9.99822259e-01
9.99838696e-01
9.99855418e-01
9.99872366e-01
9.99889481e-01
9.99906707e-01
9.99923984e-01
9.99941254e-01
9.99958457e-01
9.99975533e-01
9.99992419e-01
1.00000905e+00
1.00002536e+00
1.00004127e+00
1.00005672e+00
1.00007164e+00
1.00008595e+00
1.00009958e+00
1.00011246e+00
1.00012452e+00
1.00013570e+00
1.00014593e+00
1.00015516e+00
1.00016335e+00
1.00017045e+00
1.00017644e+00
1.00018131e+00
1.00018505e+00
1.00018768e+00
1.00018923e+00
1.00018972e+00
1.00018923e+00
1.00018781e+00
1.00018556e+00
1.00018257e+00
1.00017895e+00
1.00017483e+00
1.00017034e+00
1.00016563e+00
1.00016084e+00
1.00015613e+00
1.00015166e+00
1.00014759e+00
1.00014408e+00
1.00014129e+00
1.00013937e+00
1.00013848e+00
1.00013876e+00
1.00014034e+00
1.00014334e+00
1.00014789e+00
1.00015408e+00
1.00016201e+00
1.00017175e+00
1.00018336e+00
1.00019688e+00
1.00021236e+00
1.00022980e+00
1.00024922e+00
1.00027059e+00
1.00029389e+00
1.00031907e+00
1.00034609e+00
1.00037487e+00
1.00040532e+00
1.00043735e+00
1.00047085e+00
1.00050570e+00
1.00054177e+00
1.00057892e+00
1.00061700e+00
1.00065585e+00
1.00069531e+00
1.00073521e+00
1.00077538e+00
1.00081564e+00
1.00085582e+00
1.00089575e+00
1.00093525e+00
1.00097415e+00
1.00101229e+00
1.00104952e+00
1.00108568e+00
1.00112065e+00
1.00115430e+00
1.00118652e+00
1.00121721e+00
1.00124629e+00
1.00127368e+00
1.00129934e+00
1.00132321e+00
1.00134529e+00
1.00136556e+00
1.00138403e+00
1.00140068e+00
1.00141557e+00
1.00142877e+00
1.00144023e+00
1.00144998e+00
1.00145830e+00
1.00146514e+00
1.00147016e+00
1.00147391e+00
1.00147689e+00
1.00147788e+00
1.00147736e+00
1.00147656e+00
1.00147450e+00
9.99633566e-01
9.99631165e-01
9.99630209e-01
9.99630736e-01
9.99632797e-01
9.99635925e-01
9.99640300e-01
9.99646200e-01
9.99653191e-01
9.99661191e-01
9.99670380e-01
9.99680641e-01
9.99691801e-01
9.99703842e-01
9.99716732e-01
9.99730369e-01
9.99744673e-01
9.99759591e-01
9.99775057e-01
9.99791000e-01
9.99807356e-01
9.99824067e-01
9.99841074e-01
9.99858316e-01
9.99875738e-01
9.99893281e-01
9.99910890e-01
9.99928507e-01
9.99946072e-01
9.99963526e-01
9.99980805e-01
9.99997847e-01
1.00001458e+00
1.00003094e+00
1.00004686e+00
1.00006226e+00
1.00007707e+00
1.00009121e+00
1.00010462e+00
1.00011722e+00
1.00012895e+00
1.00013973e+00
1.00014953e+00
1.00015829e+00
1.00016597e+00
1.00017253e+00
1.00017798e+00
1.00018229e+00
1.00018548e+00
1.00018757e+00
1.00018860e+00
1.00018862e+00
1.00018771e+00
1.00018594e+00
1.00018342e+00
1.00018024e+00
1.00017654e+00
1.00017245e+00
1.00016811e+00
1.00016366e+00
1.00015927e+00
1.00015510e+00
1.00015130e+00
1.00014804e+00
1.00014547e+00
1.00014377e+00
1.00014307e+00
1.00014352e+00
1.00014527e+00
1.00014843e+00
1.00015313e+00
1.00015948e+00
1.00016756e+00
1.00017745e+00
1.00018922e+00
1.00020292e+00
1.00021858e+00
1.00023622e+00
1.00025586e+00
1.00027747e+00
1.00030103e+00
1.00032649e+00
1.00035381e+00
1.00038292e+00
1.00041372e+00
1.00044612e+00
1.00048000e+00
1.00051526e+00
1.00055174e+00
1.00058932e+00
1.00062783e+00
1.00066712e+00
1.00070701e+00
1.00074734e+00
1.00078793e+00
1.00082859e+00
1.00086916e+00
1.00090945e+00
1.00094928e+00
1.00098849e+00
1.00102691e+00
1.00106438e+00
1.00110075e+00
1.00113590e+00
1.00116968e+00
1.00120199e+00
1.00123275e+00
1.00126185e+00
1.00128923e+00
1.00131486e+00
1.00133868e+00
1.00136067e+00
1.00138083e+00
1.00139918e+00
1.00141573e+00
1.00143047e+00
1.00144348e+00
1.00145488e+00
1.00146458e+00
1.00147260e+00
1.00147926e+00
1.00148460e+00
1.00148823e+00
1.00149057e+00
1.00149193e+00
1.00149183e+00
1.00149042e+00
1.00148790e+00
9.99612750e-01
9.99610370e-01
9.99609390e-01
9.99610139e-01
9.99612195e-01
9.99615405e-01
9.99620156e-01
9.99626172e-01
9.99633231e-01
9.99641526e-01
9.99650983e-01
9.99661409e-01
9.99672787e-01
9.99685101e-01
9.99698238e-01
9.99712116e-01
9.99726684e-01
9.99741876e-01
9.99757616e-01
9.99773841e-01
9.99790491e-01
9.99807505e-01
9.99824823e-01
9.99842388e-01
9.99860144e-01
9.99878036e-01
9.99896007e-01
9.99914001e-01
9.99931959e-01
9.99949824e-01
9.99967533e-01
9.99985022e-01
1.00000222e+00
1.00001907e+00
1.00003550e+00
1.00005142e+00
1.00006677e+00
1.00008148e+00
1.00009547e+00
1.00010866e+00
1.00012100e+00
1.00013241e+00
1.00014283e+00
1.00015223e+00
1.00016055e+00
1.00016776e+00
1.00017384e+00
1.00017879e+00
1.00018261e+00
1.00018533e+00
1.00018697e+00
1.00018759e+00
1.00018726e+00
1.00018605e+00
1.00018406e+00
1.00018140e+00
1.00017819e+00
1.00017456e+00
1.00017066e+00
1.00016662e+00
1.00016262e+00
1.00015880e+00
1.00015533e+00
1.00015238e+00
1.00015010e+00
1.00014865e+00
1.00014820e+00
1.00014888e+00
1.00015084e+00
1.00015422e+00
1.00015912e+00
1.00016565e+00
1.00017393e+00
1.00018402e+00
1.00019599e+00
1.00020991e+00
1.00022580e+00
1.00024369e+00
1.00026359e+00
1.00028548e+00
1.00030934e+00
1.00033514e+00
1.00036281e+00
1.00039229e+00
1.00042348e+00
1.00045630e+00
1.00049062e+00
1.00052632e+00
1.00056328e+00
1.00060132e+00
1.00064032e+00
1.00068008e+00
1.00072045e+00
1.00076125e+00
1.00080230e+00
1.00084341e+00
1.00088439e+00
1.00092508e+00
1.00096528e+00
1.00100482e+00
1.00104353e+00
1.00108126e+00
1.00111786e+00
1.00115318e+00
1.00118710e+00
1.00121952e+00
1.00125033e+00
1.00127945e+00
1.00130683e+00
1.00133240e+00
1.00135615e+00
1.00137805e+00
1.00139809e+00
1.00141629e+00
1.00143269e+00
1.00144731e+00
1.00146015e+00
1.00147132e+00
1.00148093e+00
1.00148891e+00
1.00149530e+00
1.00150045e+00
1.00150423e+00
1.00150642e+00
1.00150756e+00
1.00150756e+00
1.00150601e+00
1.00150343e+00
9.99589604e-01
9.99587378e-01
9.99586607e-01
9.99587260e-01
9.99589322e-01
9.99592908e-01
9.99597812e-01
9.99603851e-01
9.99611202e-01
9.99619788e-01
9.99629400e-01
9.99640048e-01
9.99651722e-01
9.99664295e-01
9.99677678e-01
9.99691836e-01
9.99706697e-01
9.99722177e-01
9.99738213e-01
9.99754748e-01
9.99771715e-01
9.99789054e-01
9.99806708e-01
9.99824621e-01
9.99842738e-01
9.99861003e-01
9.99879362e-01
9.99897761e-01
9.99916142e-01
9.99934447e-01
9.99952616e-01
9.99970586e-01
9.99988291e-01
1.00000566e+00
1.00002263e+00
1.00003912e+00
1.00005506e+00
1.00007038e+00
1.00008500e+00
1.00009884e+00
1.00011184e+00
1.00012393e+00
1.00013504e+00
1.00014514e+00
1.00015416e+00
1.00016209e+00
1.00016888e+00
1.00017454e+00
1.00017907e+00
1.00018248e+00
1.00018481e+00
1.00018610e+00
1.00018642e+00
1.00018585e+00
1.00018447e+00
1.00018240e+00
1.00017975e+00
1.00017666e+00
1.00017326e+00
1.00016970e+00
1.00016615e+00
1.00016275e+00
1.00015968e+00
1.00015709e+00
1.00015515e+00
1.00015403e+00
1.00015387e+00
1.00015484e+00
1.00015707e+00
1.00016069e+00
1.00016584e+00
1.00017262e+00
1.00018114e+00
1.00019147e+00
1.00020370e+00
1.00021788e+00
1.00023404e+00
1.00025222e+00
1.00027243e+00
1.00029465e+00
1.00031886e+00
1.00034503e+00
1.00037310e+00
1.00040299e+00
1.00043463e+00
1.00046790e+00
1.00050270e+00
1.00053890e+00
1.00057636e+00
1.00061492e+00
1.00065443e+00
1.00069472e+00
1.00073561e+00
1.00077691e+00
1.00081845e+00
1.00086003e+00
1.00090146e+00
1.00094256e+00
1.00098315e+00
1.00102304e+00
1.00106206e+00
1.00110007e+00
1.00113689e+00
1.00117240e+00
1.00120646e+00
1.00123898e+00
1.00126985e+00
1.00129899e+00
1.00132635e+00
1.00135187e+00
1.00137553e+00
1.00139731e+00
1.00141723e+00
1.00143528e+00
1.00145149e+00
1.00146593e+00
1.00147865e+00
1.00148962e+00
1.00149897e+00
1.00150688e+00
1.00151322e+00
1.00151804e+00
1.00152168e+00
1.00152404e+00
1.00152496e+00
1.00152467e+00
1.00152324e+00
1.00152076e+00
9.99564522e-01
9.99562281e-01
9.99561565e-01
9.99562301e-01
9.99564551e-01
9.99568277e-01
9.99573261e-01
9.99579563e-01
9.99587179e-01
9.99595920e-01
9.99605767e-01
9.99616719e-01
9.99628651e-01
9.99641473e-01
9.99655153e-01
9.99669615e-01
9.99684770e-01
9.99700557e-01
9.99716915e-01
9.99733778e-01
9.99751080e-01
9.99768764e-01
9.99786776e-01
9.99805057e-01
9.99823555e-01
9.99842216e-01
9.99860987e-01
9.99879815e-01
9.99898643e-01
9.99917415e-01
9.99936072e-01
9.99954552e-01
9.99972791e-01
9.99990720e-01
1.00000827e+00
1.00002537e+00
1.00004194e+00
1.00005791e+00
1.00007320e+00
1.00008774e+00
1.00010145e+00
1.00011428e+00
1.00012614e+00
1.00013700e+00
1.00014680e+00
1.00015550e+00
1.00016307e+00
1.00016951e+00
1.00017482e+00
1.00017900e+00
1.00018208e+00
1.00018412e+00
1.00018517e+00
1.00018530e+00
1.00018461e+00
1.00018320e+00
1.00018119e+00
1.00017871e+00
1.00017589e+00
1.00017288e+00
1.00016984e+00
1.00016693e+00
1.00016431e+00
1.00016216e+00
1.00016062e+00
1.00015988e+00
1.00016008e+00
1.00016138e+00
1.00016393e+00
1.00016787e+00
1.00017332e+00
1.00018039e+00
1.00018920e+00
1.00019983e+00
1.00021235e+00
1.00022684e+00
1.00024332e+00
1.00026184e+00
1.00028239e+00
1.00030499e+00
1.00032959e+00
1.00035618e+00
1.00038468e+00
1.00041504e+00
1.00044715e+00
1.00048093e+00
1.00051625e+00
1.00055298e+00
1.00059098e+00
1.00063009e+00
1.00067016e+00
1.00071099e+00
1.00075242e+00
1.00079426e+00
1.00083631e+00
1.00087838e+00
1.00092028e+00
1.00096182e+00
1.00100281e+00
1.00104306e+00
1.00108241e+00
1.00112069e+00
1.00115774e+00
1.00119344e+00
1.00122765e+00
1.00126026e+00
1.00129118e+00
1.00132033e+00
1.00134766e+00
1.00137312e+00
1.00139669e+00
1.00141834e+00
1.00143811e+00
1.00145600e+00
1.00147204e+00
1.00148627e+00
1.00149878e+00
1.00150961e+00
1.00151878e+00
1.00152642e+00
1.00153265e+00
1.00153741e+00
1.00154081e+00
1.00154304e+00
1.00154395e+00
1.00154357e+00
1.00154207e+00
1.00153949e+00
9.99537448e-01
9.99535208e-01
9.99534496e-01
9.99535394e-01
9.99537801e-01
9.99541594e-01
9.99546783e-01
9.99553353e-01
9.99561133e-01
9.99570092e-01
9.99580241e-01
9.99591453e-01
9.99603635e-01
9.99616758e-01
9.99630748e-01
9.99645509e-01
9.99660977e-01
9.99677094e-01
9.99693787e-01
9.99710989e-01
9.99728643e-01
9.99746691e-01
9.99765076e-01
9.99783742e-01
9.99802639e-01
9.99821714e-01
9.99840915e-01
9.99860191e-01
9.99879487e-01
9.99898749e-01
9.99917918e-01
9.99936935e-01
9.99955735e-01
9.99974252e-01
9.99992417e-01
1.00001016e+00
1.00002740e+00
1.00004406e+00
1.00006007e+00
1.00007535e+00
1.00008984e+00
1.00010344e+00
1.00011612e+00
1.00012779e+00
1.00013842e+00
1.00014796e+00
1.00015639e+00
1.00016368e+00
1.00016982e+00
1.00017485e+00
1.00017876e+00
1.00018162e+00
1.00018347e+00
1.00018439e+00
1.00018446e+00
1.00018379e+00
1.00018248e+00
1.00018068e+00
1.00017851e+00
1.00017612e+00
1.00017367e+00
1.00017132e+00
1.00016923e+00
1.00016757e+00
1.00016650e+00
1.00016620e+00
1.00016682e+00
1.00016852e+00
1.00017145e+00
1.00017575e+00
1.00018155e+00
1.00018897e+00
1.00019812e+00
1.00020910e+00
1.00022197e+00
1.00023681e+00
1.00025366e+00
1.00027256e+00
1.00029351e+00
1.00031652e+00
1.00034156e+00
1.00036860e+00
1.00039758e+00
1.00042844e+00
1.00046107e+00
1.00049538e+00
1.00053126e+00
1.00056855e+00
1.00060713e+00
1.00064682e+00
1.00068746e+00
1.00072887e+00
1.00077087e+00
1.00081325e+00
1.00085584e+00
1.00089842e+00
1.00094079e+00
1.00098278e+00
1.00102417e+00
1.00106479e+00
1.00110447e+00
1.00114302e+00
1.00118031e+00
1.00121619e+00
1.00125054e+00
1.00128324e+00
1.00131421e+00
1.00134336e+00
1.00137065e+00
1.00139604e+00
1.00141950e+00
1.00144103e+00
1.00146063e+00
1.00147833e+00
1.00149420e+00
1.00150824e+00
1.00152051e+00
1.00153114e+00
1.00154016e+00
1.00154760e+00
1.00155359e+00
1.00155827e+00
1.00156157e+00
1.00156357e+00
1.00156442e+00
1.00156404e+00
1.00156241e+00
1.00155975e+00
9.99508373e-01
9.99506215e-01
9.99505597e-01
9.99506590e-01
9.99509102e-01
9.99513075e-01
9.99518486e-01
9.99525222e-01
9.99533215e-01
9.99542463e-01
9.99552865e-01
9.99564324e-01
9.99576807e-01
9.99590242e-01
9.99604528e-01
9.99619602e-01
9.99635405e-01
9.99651859e-01
9.99668893e-01
9.99686449e-01
9.99704468e-01
9.99722889e-01
9.99741658e-01
9.99760723e-01
9.99780032e-01
9.99799534e-01
9.99819181e-01
9.99838921e-01
9.99858703e-01
9.99878473e-01
9.99898175e-01
9.99917751e-01
9.99937137e-01
9.99956269e-01
9.99975078e-01
9.99993491e-01
1.00001143e+00
1.00002883e+00
1.00004560e+00
1.00006167e+00
1.00007697e+00
1.00009142e+00
1.00010495e+00
1.00011750e+00
1.00012902e+00
1.00013946e+00
1.00014880e+00
1.00015700e+00
1.00016407e+00
1.00017000e+00
1.00017482e+00
1.00017857e+00
1.00018130e+00
1.00018307e+00
1.00018398e+00
1.00018412e+00
1.00018360e+00
1.00018255e+00
1.00018110e+00
1.00017941e+00
1.00017762e+00
1.00017589e+00
1.00017440e+00
1.00017330e+00
1.00017277e+00
1.00017298e+00
1.00017408e+00
1.00017624e+00
1.00017961e+00
1.00018433e+00
1.00019055e+00
1.00019837e+00
1.00020792e+00
1.00021929e+00
1.00023256e+00
1.00024781e+00
1.00026508e+00
1.00028440e+00
1.00030579e+00
1.00032926e+00
1.00035478e+00
1.00038232e+00
1.00041181e+00
1.00044320e+00
1.00047639e+00
1.00051127e+00
1.00054772e+00
1.00058561e+00
1.00062478e+00
1.00066507e+00
1.00070631e+00
1.00074831e+00
1.00079089e+00
1.00083384e+00
1.00087696e+00
1.00092005e+00
1.00096291e+00
1.00100534e+00
1.00104715e+00
1.00108813e+00
1.00112813e+00
1.00116696e+00
1.00120447e+00
1.00124053e+00
1.00127500e+00
1.00130779e+00
1.00133879e+00
1.00136794e+00
1.00139518e+00
1.00142048e+00
1.00144382e+00
1.00146521e+00
1.00148465e+00
1.00150217e+00
1.00151782e+00
1.00153167e+00
1.00154376e+00
1.00155414e+00
1.00156296e+00
1.00157025e+00
1.00157606e+00
1.00158053e+00
1.00158373e+00
1.00158564e+00
1.00158635e+00
1.00158589e+00
1.00158424e+00
1.00158159e+00
9.99477494e-01
9.99475427e-01
9.99474916e-01
9.99475997e-01
9.99478644e-01
9.99482815e-01
9.99488400e-01
9.99495327e-01
9.99503583e-01
9.99513081e-01
9.99523724e-01
9.99535474e-01
9.99548264e-01
9.99561990e-01
9.99576587e-01
9.99591994e-01
9.99608131e-01
9.99624922e-01
9.99642308e-01
9.99660228e-01
9.99678616e-01
9.99697418e-01
9.99716580e-01
9.99736051e-01
9.99755780e-01
9.99775720e-01
9.99795823e-01
9.99816039e-01
9.99836319e-01
9.99856613e-01
9.99876865e-01
9.99897018e-01
9.99917012e-01
9.99936782e-01
9.99956261e-01
9.99975376e-01
9.99994054e-01
1.00001222e+00
1.00002979e+00
1.00004669e+00
1.00006284e+00
1.00007818e+00
1.00009262e+00
1.00010610e+00
1.00011857e+00
1.00012998e+00
1.00014028e+00
1.00014947e+00
1.00015751e+00
1.00016443e+00
1.00017022e+00
1.00017494e+00
1.00017861e+00
1.00018132e+00
1.00018314e+00
1.00018417e+00
1.00018451e+00
1.00018429e+00
1.00018364e+00
1.00018272e+00
1.00018166e+00
1.00018064e+00
1.00017981e+00
1.00017935e+00
1.00017943e+00
1.00018021e+00
1.00018186e+00
1.00018455e+00
1.00018842e+00
1.00019363e+00
1.00020032e+00
1.00020860e+00
1.00021861e+00
1.00023043e+00
1.00024415e+00
1.00025986e+00
1.00027759e+00
1.00029738e+00
1.00031926e+00
1.00034323e+00
1.00036927e+00
1.00039734e+00
1.00042738e+00
1.00045934e+00
1.00049310e+00
1.00052858e+00
1.00056563e+00
1.00060413e+00
1.00064392e+00
1.00068482e+00
1.00072667e+00
1.00076928e+00
1.00081244e+00
1.00085595e+00
1.00089962e+00
1.00094323e+00
1.00098657e+00
1.00102944e+00
1.00107164e+00
1.00111299e+00
1.00115329e+00
1.00119239e+00
1.00123011e+00
1.00126634e+00
1.00130093e+00
1.00133378e+00
1.00136481e+00
1.00139394e+00
1.00142112e+00
1.00144633e+00
1.00146955e+00
1.00149078e+00
1.00151005e+00
1.00152739e+00
1.00154284e+00
1.00155646e+00
1.00156835e+00
1.00157855e+00
1.00158713e+00
1.00159424e+00
1.00159991e+00
1.00160420e+00
1.00160724e+00
1.00160907e+00
1.00160969e+00
1.00160914e+00
1.00160748e+00
1.00160486e+00
9.99444956e-01
9.99442963e-01
9.99442543e-01
9.99443755e-01
9.99446560e-01
9.99450889e-01
9.99456656e-01
9.99463820e-01
9.99472312e-01
9.99482042e-01
9.99492962e-01
9.99505007e-01
9.99518079e-01
9.99532108e-01
9.99547031e-01
9.99562765e-01
9.99579231e-01
9.99596369e-01
9.99614111e-01
9.99632392e-01
9.99651152e-01
9.99670338e-01
9.99689897e-01
9.99709777e-01
9.99729932e-01
9.99750315e-01
9.99770879e-01
9.99791580e-01
9.99812368e-01
9.99833196e-01
9.99854010e-01
9.99874756e-01
9.99895375e-01
9.99915803e-01
9.99935975e-01
9.99955819e-01
9.99975261e-01
9.99994224e-01
1.00001263e+00
1.00003040e+00
1.00004745e+00
1.00006372e+00
1.00007911e+00
1.00009358e+00
1.00010705e+00
1.00011948e+00
1.00013082e+00
1.00014105e+00
1.00015014e+00
1.00015810e+00
1.00016494e+00
1.00017069e+00
1.00017539e+00
1.00017911e+00
1.00018192e+00
1.00018391e+00
1.00018519e+00
1.00018588e+00
1.00018611e+00
1.00018602e+00
1.00018578e+00
1.00018553e+00
1.00018545e+00
1.00018570e+00
1.00018646e+00
1.00018789e+00
1.00019016e+00
1.00019344e+00
1.00019788e+00
1.00020364e+00
1.00021086e+00
1.00021967e+00
1.00023019e+00
1.00024252e+00
1.00025675e+00
1.00027296e+00
1.00029120e+00
1.00031152e+00
1.00033393e+00
1.00035844e+00
1.00038503e+00
1.00041367e+00
1.00044430e+00
1.00047684e+00
1.00051122e+00
1.00054731e+00
1.00058498e+00
1.00062411e+00
1.00066452e+00
1.00070605e+00
1.00074852e+00
1.00079172e+00
1.00083547e+00
1.00087955e+00
1.00092375e+00
1.00096786e+00
1.00101167e+00
1.00105497e+00
1.00109756e+00
1.00113924e+00
1.00117984e+00
1.00121918e+00
1.00125711e+00
1.00129348e+00
1.00132817e+00
1.00136108e+00
1.00139211e+00
1.00142122e+00
1.00144833e+00
1.00147344e+00
1.00149653e+00
1.00151760e+00
1.00153669e+00
1.00155384e+00
1.00156909e+00
1.00158251e+00
1.00159417e+00
1.00160418e+00
1.00161258e+00
1.00161948e+00
1.00162498e+00
1.00162915e+00
1.00163205e+00
1.00163377e+00
1.00163432e+00
1.00163374e+00
1.00163205e+00
1.00162944e+00
9.99410857e-01
9.99408959e-01
9.99408641e-01
9.99409986e-01
9.99412941e-01
9.99417434e-01
9.99423407e-01
9.99430792e-01
9.99439505e-01
9.99449490e-01
9.99460689e-01
9.99473006e-01
9.99486367e-01
9.99500709e-01
9.99515946e-01
9.99531998e-01
9.99548800e-01
9.99566282e-01
9.99584374e-01
9.99603014e-01
9.99622146e-01
9.99641714e-01
9.99661667e-01
9.99681956e-01
9.99702536e-01
9.99723363e-01
9.99744391e-01
9.99765579e-01
9.99786881e-01
9.99808250e-01
9.99829636e-01
9.99850986e-01
9.99872243e-01
9.99893347e-01
9.99914231e-01
9.99934826e-01
9.99955057e-01
9.99974849e-01
9.99994122e-01
1.00001280e+00
1.00003079e+00
1.00004802e+00
1.00006443e+00
1.00007992e+00
1.00009445e+00
1.00010795e+00
1.00012039e+00
1.00013172e+00
1.00014193e+00
1.00015100e+00
1.00015896e+00
1.00016581e+00
1.00017161e+00
1.00017641e+00
1.00018028e+00
1.00018331e+00
1.00018560e+00
1.00018728e+00
1.00018847e+00
1.00018931e+00
1.00018995e+00
1.00019056e+00
1.00019130e+00
1.00019234e+00
1.00019384e+00