# vtk DataFile Version 2.0
LBM Flow Field - Timestep 1020
ASCII
DATASET STRUCTURED_POINTS
DIMENSIONS 128 128 1
ORIGIN 0.0 0.0 0.0
SPACING 1.0 1.0 1.0
POINT_DATA 16384
SCALARS density double 1
LOOKUP_TABLE default
9.99504387e-01
9.99504885e-01
9.99505509e-01
9.99505485e-01
9.99505742e-01
9.99506419e-01
9.99507208e-01
9.99508183e-01
9.99509448e-01
9.99510955e-01
9.99512576e-01
9.99514262e-01
9.99515940e-01
9.99517496e-01
9.99518814e-01
9.99519796e-01
9.99520332e-01
9.99520305e-01
9.99519614e-01
9.99518173e-01
9.99515904e-01
9.99512753e-01
9.99508688e-01
9.99503707e-01
9.99497831e-01
9.99491110e-01
9.99483623e-01
9.99475469e-01
9.99466767e-01
9.99457649e-01
9.99448254e-01
9.99438717e-01
9.99429165e-01
9.99419708e-01
9.99410430e-01
9.99401389e-01
9.99392612e-01
9.99384094e-01
9.99375804e-01
9.99367690e-01
9.99359691e-01
9.99351748e-01
9.99343818e-01
9.99335891e-01
9.99328002e-01
9.99320249e-01
9.99312801e-01
9.99305909e-01
9.99299902e-01
9.99295195e-01
9.99292274e-01
9.99291688e-01
9.99294036e-01
9.99299941e-01
9.99310033e-01
9.99324926e-01
9.99345190e-01
9.99371330e-01
9.99403762e-01
9.99442791e-01
9.99488592e-01
9.99541193e-01
9.99600460e-01
9.99666087e-01
9.99737591e-01
9.99814313e-01
9.99895423e-01
9.99979932e-01
1.00006672e+00
1.00015455e+00
1.00024213e+00
1.00032814e+00
1.00041126e+00
1.00049028e+00
1.00056408e+00
1.00063171e+00
1.00069243e+00
1.00074572e+00
1.00079131e+00
1.00082919e+00
1.00085958e+00
1.00088291e+00
1.00089983e+00
1.00091110e+00
1.00091761e+00
1.00092032e+00
1.00092019e+00
1.00091816e+00
1.00091511e+00
1.00091185e+00
1.00090903e+00
1.00090722e+00
1.00090683e+00
1.00090814e+00
1.00091128e+00
1.00091631e+00
1.00092312e+00
1.00093157e+00
1.00094142e+00
1.00095240e+00
1.00096418e+00
1.00097646e+00
1.00098891e+00
1.00100124e+00
1.00101317e+00
1.00102446e+00
1.00103493e+00
1.00104441e+00
1.00105280e+00
1.00106002e+00
1.00106606e+00
1.00107093e+00
1.00107465e+00
1.00107730e+00
1.00107896e+00
1.00107974e+00
1.00107975e+00
1.00107910e+00
1.00107792e+00
1.00107634e+00
1.00107445e+00
1.00107234e+00
1.00107027e+00
1.00106842e+00
1.00106650e+00
1.00106466e+00
1.00106425e+00
1.00106436e+00
9.99505565e-01
9.99505399e-01
9.99505539e-01
9.99505679e-01
9.99505964e-01
9.99506606e-01
9.99507417e-01
9.99508471e-01
9.99509717e-01
9.99511172e-01
9.99512736e-01
9.99514354e-01
9.99515934e-01
9.99517389e-01
9.99518608e-01
9.99519488e-01
9.99519922e-01
9.99519806e-01
9.99519038e-01
9.99517534e-01
9.99515220e-01
9.99512044e-01
9.99507974e-01
9.99503005e-01
9.99497157e-01
9.99490476e-01
9.99483035e-01
9.99474926e-01
9.99466262e-01
9.99457168e-01
9.99447775e-01
9.99438211e-01
9.99428600e-01
9.99419046e-01
9.99409635e-01
9.99400425e-01
9.99391449e-01
9.99382707e-01
9.99374181e-01
9.99365831e-01
9.99357608e-01
9.99349469e-01
9.99341384e-01
9.99333355e-01
9.99325431e-01
9.99317717e-01
9.99310387e-01
9.99303690e-01
9.99297957e-01
9.99293594e-01
9.99291081e-01
9.99290957e-01
9.99293807e-01
9.99300243e-01
9.99310885e-01
9.99326333e-01
9.99347146e-01
9.99373821e-01
9.99406762e-01
9.99446263e-01
9.99492491e-01
9.99545460e-01
9.99605024e-01
9.99670866e-01
9.99742491e-01
9.99819228e-01
9.99900239e-01
9.99984532e-01
1.00007098e+00
1.00015837e+00
1.00024541e+00
1.00033080e+00
1.00041326e+00
1.00049158e+00
1.00056469e+00
1.00063168e+00
1.00069183e+00
1.00074466e+00
1.00078990e+00
1.00082757e+00
1.00085789e+00
1.00088128e+00
1.00089838e+00
1.00090994e+00
1.00091684e+00
1.00091999e+00
1.00092033e+00
1.00091878e+00
1.00091620e+00
1.00091335e+00
1.00091089e+00
1.00090937e+00
1.00090918e+00
1.00091060e+00
1.00091378e+00
1.00091874e+00
1.00092542e+00
1.00093367e+00
1.00094326e+00
1.00095393e+00
1.00096538e+00
1.00097731e+00
1.00098940e+00
1.00100137e+00
1.00101295e+00
1.00102393e+00
1.00103410e+00
1.00104332e+00
1.00105148e+00
1.00105852e+00
1.00106440e+00
1.00106915e+00
1.00107279e+00
1.00107539e+00
1.00107704e+00
1.00107783e+00
1.00107788e+00
1.00107730e+00
1.00107620e+00
1.00107472e+00
1.00107295e+00
1.00107105e+00
1.00106911e+00
1.00106729e+00
1.00106553e+00
1.00106401e+00
1.00106322e+00
1.00106271e+00
9.99506732e-01
9.99505959e-01
9.99505197e-01
9.99505371e-01
9.99505804e-01
9.99506311e-01
9.99507086e-01
9.99508150e-01
9.99509351e-01
9.99510687e-01
9.99512150e-01
9.99513658e-01
9.99515101e-01
9.99516406e-01
9.99517484e-01
9.99518221e-01
9.99518512e-01
9.99518264e-01
9.99517380e-01
9.99515774e-01
9.99513375e-01
9.99510134e-01
9.99506017e-01
9.99501016e-01
9.99495147e-01
9.99488453e-01
9.99480998e-01
9.99472869e-01
9.99464168e-01
9.99455014e-01
9.99445529e-01
9.99435838e-01
9.99426056e-01
9.99416288e-01
9.99406620e-01
9.99397114e-01
9.99387808e-01
9.99378717e-01
9.99369832e-01
9.99361129e-01
9.99352578e-01
9.99344151e-01
9.99335837e-01
9.99327653e-01
9.99319661e-01
9.99311976e-01
9.99304777e-01
9.99298319e-01
9.99292927e-01
9.99289004e-01
9.99287019e-01
9.99287503e-01
9.99291027e-01
9.99298191e-01
9.99309599e-01
9.99325840e-01
9.99347460e-01
9.99374942e-01
9.99408679e-01
9.99448955e-01
9.99495922e-01
9.99549582e-01
9.99609777e-01
9.99676174e-01
9.99748266e-01
9.99825370e-01
9.99906634e-01
9.99991060e-01
1.00007752e+00
1.00016480e+00
1.00025161e+00
1.00033667e+00
1.00041871e+00
1.00049657e+00
1.00056918e+00
1.00063567e+00
1.00069534e+00
1.00074775e+00
1.00079265e+00
1.00083007e+00
1.00086023e+00
1.00088358e+00
1.00090073e+00
1.00091244e+00
1.00091955e+00
1.00092297e+00
1.00092362e+00
1.00092239e+00
1.00092011e+00
1.00091753e+00
1.00091530e+00
1.00091394e+00
1.00091384e+00
1.00091527e+00
1.00091837e+00
1.00092318e+00
1.00092964e+00
1.00093759e+00
1.00094684e+00
1.00095711e+00
1.00096813e+00
1.00097960e+00
1.00099123e+00
1.00100274e+00
1.00101387e+00
1.00102441e+00
1.00103418e+00
1.00104303e+00
1.00105086e+00
1.00105760e+00
1.00106324e+00
1.00106777e+00
1.00107124e+00
1.00107371e+00
1.00107527e+00
1.00107600e+00
1.00107602e+00
1.00107544e+00
1.00107438e+00
1.00107293e+00
1.00107124e+00
1.00106948e+00
1.00106763e+00
1.00106576e+00
1.00106422e+00
1.00106292e+00
1.00106130e+00
1.00106034e+00
9.99506605e-01
9.99505685e-01
9.99505022e-01
9.99504925e-01
9.99505133e-01
9.99505637e-01
9.99506383e-01
9.99507297e-01
9.99508385e-01
9.99509612e-01
9.99510918e-01
9.99512236e-01
9.99513495e-01
9.99514605e-01
9.99515471e-01
9.99515997e-01
9.99516085e-01
9.99515639e-01
9.99514568e-01
9.99512791e-01
9.99510242e-01
9.99506867e-01
9.99502635e-01
9.99497535e-01
9.99491580e-01
9.99484804e-01
9.99477267e-01
9.99469045e-01
9.99460233e-01
9.99450939e-01
9.99441277e-01
9.99431364e-01
9.99421311e-01
9.99411220e-01
9.99401177e-01
9.99391250e-01
9.99381484e-01
9.99371908e-01
9.99362528e-01
9.99353342e-01
9.99344340e-01
9.99335519e-01
9.99326889e-01
9.99318490e-01
9.99310402e-01
9.99302756e-01
9.99295744e-01
9.99289621e-01
9.99284718e-01
9.99281429e-01
9.99280215e-01
9.99281590e-01
9.99286109e-01
9.99294350e-01
9.99306896e-01
9.99324313e-01
9.99347126e-01
9.99375795e-01
9.99410693e-01
9.99452084e-01
9.99500100e-01
9.99554729e-01
9.99615794e-01
9.99682950e-01
9.99755676e-01
9.99833280e-01
9.99914906e-01
9.99999552e-01
1.00008610e+00
1.00017333e+00
1.00025998e+00
1.00034478e+00
1.00042649e+00
1.00050398e+00
1.00057620e+00
1.00064231e+00
1.00070165e+00
1.00075377e+00
1.00079847e+00
1.00083577e+00
1.00086591e+00
1.00088933e+00
1.00090662e+00
1.00091854e+00
1.00092590e+00
1.00092960e+00
1.00093053e+00
1.00092956e+00
1.00092750e+00
1.00092509e+00
1.00092295e+00
1.00092160e+00
1.00092142e+00
1.00092268e+00
1.00092553e+00
1.00093000e+00
1.00093604e+00
1.00094352e+00
1.00095223e+00
1.00096193e+00
1.00097235e+00
1.00098321e+00
1.00099423e+00
1.00100514e+00
1.00101569e+00
1.00102569e+00
1.00103494e+00
1.00104332e+00
1.00105072e+00
1.00105709e+00
1.00106240e+00
1.00106666e+00
1.00106990e+00
1.00107219e+00
1.00107360e+00
1.00107423e+00
1.00107418e+00
1.00107356e+00
1.00107249e+00
1.00107107e+00
1.00106942e+00
1.00106765e+00
1.00106589e+00
1.00106414e+00
1.00106247e+00
1.00106102e+00
1.00105955e+00
1.00105849e+00
9.99505886e-01
9.99505039e-01
9.99504480e-01
9.99504089e-01
9.99504113e-01
9.99504574e-01
9.99505194e-01
9.99505929e-01
9.99506853e-01
9.99507902e-01
9.99508985e-01
9.99510058e-01
9.99511065e-01
9.99511907e-01
9.99512492e-01
9.99512735e-01
9.99512547e-01
9.99511830e-01
9.99510500e-01
9.99508482e-01
9.99505712e-01
9.99502137e-01
9.99497725e-01
9.99492464e-01
9.99486361e-01
9.99479444e-01
9.99471763e-01
9.99463385e-01
9.99454395e-01
9.99444889e-01
9.99434973e-01
9.99424753e-01
9.99414335e-01
9.99403819e-01
9.99393291e-01
9.99382825e-01
9.99372480e-01
9.99362296e-01
9.99352304e-01
9.99342523e-01
9.99332971e-01
9.99323674e-01
9.99314670e-01
9.99306028e-01
9.99297850e-01
9.99290286e-01
9.99283542e-01
9.99277883e-01
9.99273635e-01
9.99271189e-01
9.99270992e-01
9.99273539e-01
9.99279361e-01
9.99289010e-01
9.99303042e-01
9.99321991e-01
9.99346354e-01
9.99376561e-01
9.99412958e-01
9.99455784e-01
9.99505148e-01
9.99561014e-01
9.99623190e-01
9.99691313e-01
9.99764849e-01
9.99843098e-01
9.99925200e-01
1.00001015e+00
1.00009685e+00
1.00018407e+00
1.00027060e+00
1.00035516e+00
1.00043657e+00
1.00051370e+00
1.00058556e+00
1.00065133e+00
1.00071037e+00
1.00076227e+00
1.00080684e+00
1.00084411e+00
1.00087431e+00
1.00089788e+00
1.00091542e+00
1.00092763e+00
1.00093532e+00
1.00093937e+00
1.00094062e+00
1.00093994e+00
1.00093811e+00
1.00093584e+00
1.00093375e+00
1.00093233e+00
1.00093198e+00
1.00093296e+00
1.00093542e+00
1.00093940e+00
1.00094486e+00
1.00095168e+00
1.00095967e+00
1.00096862e+00
1.00097826e+00
1.00098833e+00
1.00099856e+00
1.00100870e+00
1.00101852e+00
1.00102782e+00
1.00103643e+00
1.00104422e+00
1.00105109e+00
1.00105699e+00
1.00106188e+00
1.00106579e+00
1.00106873e+00
1.00107078e+00
1.00107199e+00
1.00107248e+00
1.00107233e+00
1.00107163e+00
1.00107051e+00
1.00106909e+00
1.00106746e+00
1.00106567e+00
1.00106391e+00
1.00106227e+00
1.00106055e+00
1.00105888e+00
1.00105758e+00
1.00105657e+00
9.99504805e-01
9.99503924e-01
9.99503242e-01
9.99502827e-01
9.99502784e-01
9.99502992e-01
9.99503400e-01
9.99503997e-01
9.99504702e-01
9.99505473e-01
9.99506287e-01
9.99507078e-01
9.99507761e-01
9.99508264e-01
9.99508511e-01
9.99508410e-01
9.99507873e-01
9.99506818e-01
9.99505167e-01
9.99502844e-01
9.99499788e-01
9.99495951e-01
9.99491299e-01
9.99485816e-01
9.99479505e-01
9.99472386e-01
9.99464500e-01
9.99455903e-01
9.99446669e-01
9.99436882e-01
9.99426637e-01
9.99416031e-01
9.99405165e-01
9.99394134e-01
9.99383028e-01
9.99371928e-01
9.99360904e-01
9.99350017e-01
9.99339319e-01
9.99328858e-01
9.99318682e-01
9.99308850e-01
9.99299433e-01
9.99290531e-01
9.99282274e-01
9.99274834e-01
9.99268434e-01
9.99263346e-01
9.99259899e-01
9.99258477e-01
9.99259511e-01
9.99263474e-01
9.99270873e-01
9.99282227e-01
9.99298057e-01
9.99318863e-01
9.99345104e-01
9.99377178e-01
9.99415395e-01
9.99459962e-01
9.99510962e-01
9.99568331e-01
9.99631856e-01
9.99701155e-01
9.99775682e-01
9.99854727e-01
9.99937429e-01
1.00002279e+00
1.00010971e+00
1.00019699e+00
1.00028343e+00
1.00036780e+00
1.00044893e+00
1.00052574e+00
1.00059727e+00
1.00066273e+00
1.00072152e+00
1.00077325e+00
1.00081774e+00
1.00085502e+00
1.00088535e+00
1.00090914e+00
1.00092697e+00
1.00093953e+00
1.00094761e+00
1.00095203e+00
1.00095364e+00
1.00095326e+00
1.00095164e+00
1.00094950e+00
1.00094741e+00
1.00094588e+00
1.00094528e+00
1.00094588e+00
1.00094783e+00
1.00095119e+00
1.00095594e+00
1.00096196e+00
1.00096909e+00
1.00097713e+00
1.00098583e+00
1.00099495e+00
1.00100425e+00
1.00101348e+00
1.00102242e+00
1.00103089e+00
1.00103873e+00
1.00104581e+00
1.00105204e+00
1.00105736e+00
1.00106175e+00
1.00106522e+00
1.00106780e+00
1.00106954e+00
1.00107052e+00
1.00107080e+00
1.00107050e+00
1.00106971e+00
1.00106852e+00
1.00106703e+00
1.00106536e+00
1.00106361e+00
1.00106181e+00
1.00106007e+00
1.00105841e+00
1.00105679e+00
1.00105544e+00
1.00105441e+00
9.99503273e-01
9.99502349e-01
9.99501540e-01
9.99501060e-01
9.99500870e-01
9.99500856e-01
9.99501066e-01
9.99501433e-01
9.99501859e-01
9.99502333e-01
9.99502828e-01
9.99503266e-01
9.99503572e-01
9.99503686e-01
9.99503531e-01
9.99503021e-01
9.99502077e-01
9.99500624e-01
9.99498587e-01
9.99495897e-01
9.99492495e-01
9.99488336e-01
9.99483384e-01
9.99477619e-01
9.99471040e-01
9.99463660e-01
9.99455509e-01
9.99446632e-01
9.99437090e-01
9.99426956e-01
9.99416312e-01
9.99405248e-01
9.99393855e-01
9.99382230e-01
9.99370462e-01
9.99358643e-01
9.99346856e-01
9.99335181e-01
9.99323697e-01
9.99312483e-01
9.99301621e-01
9.99291205e-01
9.99281344e-01
9.99272170e-01
9.99263847e-01
9.99256572e-01
9.99250585e-01
9.99246170e-01
9.99243658e-01
9.99243425e-01
9.99245886e-01
9.99251493e-01
9.99260720e-01
9.99274053e-01
9.99291973e-01
9.99314940e-01
9.99343372e-01
9.99377623e-01
9.99417967e-01
9.99464573e-01
9.99517488e-01
9.99576621e-01
9.99641731e-01
9.99712416e-01
9.99788116e-01
9.99868112e-01
9.99951540e-01
1.00003741e+00
1.00012462e+00
1.00021203e+00
1.00029842e+00
1.00038263e+00
1.00046350e+00
1.00054001e+00
1.00061122e+00
1.00067640e+00
1.00073497e+00
1.00078656e+00
1.00083101e+00
1.00086837e+00
1.00089888e+00
1.00092294e+00
1.00094112e+00
1.00095409e+00
1.00096259e+00
1.00096744e+00
1.00096943e+00
1.00096936e+00
1.00096797e+00
1.00096593e+00
1.00096381e+00
1.00096211e+00
1.00096118e+00
1.00096131e+00
1.00096266e+00
1.00096529e+00
1.00096919e+00
1.00097428e+00
1.00098040e+00
1.00098738e+00
1.00099500e+00
1.00100303e+00
1.00101124e+00
1.00101941e+00
1.00102735e+00
1.00103486e+00
1.00104181e+00
1.00104807e+00
1.00105355e+00
1.00105821e+00
1.00106202e+00
1.00106498e+00
1.00106713e+00
1.00106851e+00
1.00106918e+00
1.00106923e+00
1.00106874e+00
1.00106780e+00
1.00106651e+00
1.00106495e+00
1.00106321e+00
1.00106143e+00
1.00105962e+00
1.00105782e+00
1.00105613e+00
1.00105454e+00
1.00105311e+00
1.00105208e+00
9.99501272e-01
9.99500279e-01
9.99499406e-01
9.99498746e-01
9.99498348e-01
9.99498180e-01
9.99498155e-01
9.99498202e-01
9.99498324e-01
9.99498480e-01
9.99498594e-01
9.99498620e-01
9.99498508e-01
9.99498181e-01
9.99497562e-01
9.99496585e-01
9.99495179e-01
9.99493268e-01
9.99490784e-01
9.99487666e-01
9.99483858e-01
9.99479314e-01
9.99474000e-01
9.99467893e-01
9.99460985e-01
9.99453280e-01
9.99444800e-01
9.99435578e-01
9.99425663e-01
9.99415115e-01
9.99404004e-01
9.99392410e-01
9.99380421e-01
9.99368128e-01
9.99355627e-01
9.99343016e-01
9.99330395e-01
9.99317867e-01
9.99305536e-01
9.99293515e-01
9.99281922e-01
9.99270890e-01
9.99260568e-01
9.99251126e-01
9.99242759e-01
9.99235693e-01
9.99230191e-01
9.99226547e-01
9.99225095e-01
9.99226204e-01
9.99230274e-01
9.99237731e-01
9.99249018e-01
9.99264583e-01
9.99284864e-01
9.99310276e-01
9.99341188e-01
9.99377911e-01
9.99420672e-01
9.99469596e-01
9.99524694e-01
9.99585838e-01
9.99652758e-01
9.99725029e-01
9.99802074e-01
9.99883164e-01
9.99967434e-01
1.00005390e+00
1.00014149e+00
1.00022905e+00
1.00031544e+00
1.00039950e+00
1.00048014e+00
1.00055636e+00
1.00062728e+00
1.00069219e+00
1.00075056e+00
1.00080205e+00
1.00084650e+00
1.00088398e+00
1.00091472e+00
1.00093912e+00
1.00095771e+00
1.00097115e+00
1.00098014e+00
1.00098545e+00
1.00098786e+00
1.00098813e+00
1.00098696e+00
1.00098501e+00
1.00098284e+00
1.00098091e+00
1.00097960e+00
1.00097919e+00
1.00097983e+00
1.00098162e+00
1.00098456e+00
1.00098858e+00
1.00099356e+00
1.00099934e+00
1.00100573e+00
1.00101252e+00
1.00101951e+00
1.00102650e+00
1.00103329e+00
1.00103972e+00
1.00104566e+00
1.00105099e+00
1.00105564e+00
1.00105955e+00
1.00106269e+00
1.00106507e+00
1.00106672e+00
1.00106768e+00
1.00106801e+00
1.00106778e+00
1.00106706e+00
1.00106594e+00
1.00106450e+00
1.00106285e+00
1.00106105e+00
1.00105917e+00
1.00105732e+00
1.00105552e+00
1.00105376e+00
1.00105211e+00
1.00105068e+00
1.00104960e+00
9.99498862e-01
9.99497740e-01
9.99496725e-01
9.99495888e-01
9.99495295e-01
9.99494900e-01
9.99494590e-01
9.99494330e-01
9.99494114e-01
9.99493879e-01
9.99493573e-01
9.99493155e-01
9.99492568e-01
9.99491740e-01
9.99490610e-01
9.99489115e-01
9.99487186e-01
9.99484756e-01
9.99481767e-01
9.99478161e-01
9.99473884e-01
9.99468894e-01
9.99463155e-01
9.99456641e-01
9.99449338e-01
9.99441245e-01
9.99432371e-01
9.99422739e-01
9.99412384e-01
9.99401355e-01
9.99389712e-01
9.99377525e-01
9.99364875e-01
9.99351853e-01
9.99338558e-01
9.99325099e-01
9.99311592e-01
9.99298162e-01
9.99284945e-01
9.99272084e-01
9.99259738e-01
9.99248081e-01
9.99237300e-01
9.99227606e-01
9.99219230e-01
9.99212428e-01
9.99207484e-01
9.99204706e-01
9.99204432e-01
9.99207025e-01
9.99212869e-01
9.99222364e-01
9.99235919e-01
9.99253943e-01
9.99276827e-01
9.99304938e-01
9.99338596e-01
9.99378057e-01
9.99423500e-01
9.99475004e-01
9.99532532e-01
9.99595920e-01
9.99664863e-01
9.99738911e-01
9.99817465e-01
9.99899788e-01
9.99985013e-01
1.00007216e+00
1.00016018e+00
1.00024796e+00
1.00033437e+00
1.00041830e+00
1.00049870e+00
1.00057463e+00
1.00064526e+00
1.00070992e+00
1.00076811e+00
1.00081951e+00
1.00086401e+00
1.00090165e+00
1.00093267e+00
1.00095746e+00
1.00097653e+00
1.00099048e+00
1.00100002e+00
1.00100585e+00
1.00100873e+00
1.00100937e+00
1.00100845e+00
1.00100659e+00
1.00100435e+00
1.00100218e+00
1.00100044e+00
1.00099941e+00
1.00099927e+00
1.00100012e+00
1.00100199e+00
1.00100482e+00
1.00100853e+00
1.00101298e+00
1.00101801e+00
1.00102343e+00
1.00102906e+00
1.00103472e+00
1.00104024e+00
1.00104548e+00
1.00105030e+00
1.00105460e+00
1.00105831e+00
1.00106137e+00
1.00106377e+00
1.00106551e+00
1.00106660e+00
1.00106708e+00
1.00106701e+00
1.00106645e+00
1.00106547e+00
1.00106415e+00
1.00106255e+00
1.00106076e+00
1.00105886e+00
1.00105691e+00
1.00105499e+00
1.00105314e+00
1.00105134e+00
1.00104962e+00
1.00104812e+00
1.00104695e+00
9.99495942e-01
9.99494665e-01
9.99493459e-01
9.99492463e-01
9.99491665e-01
9.99490980e-01
9.99490366e-01
9.99489789e-01
9.99489181e-01
9.99488512e-01
9.99487755e-01
9.99486851e-01
9.99485735e-01
9.99484360e-01
9.99482671e-01
9.99480602e-01
9.99478094e-01
9.99475091e-01
9.99471540e-01
9.99467384e-01
9.99462577e-01
9.99457077e-01
9.99450848e-01
9.99443862e-01
9.99436099e-01
9.99427551e-01
9.99418216e-01
9.99408107e-01
9.99397249e-01
9.99385677e-01
9.99373440e-01
9.99360602e-01
9.99347237e-01
9.99333437e-01
9.99319304e-01
9.99304959e-01
9.99290534e-01
9.99276178e-01
9.99262056e-01
9.99248348e-01
9.99235250e-01
9.99222977e-01
9.99211759e-01
9.99201847e-01
9.99193509e-01
9.99187032e-01
9.99182721e-01
9.99180902e-01
9.99181917e-01
9.99186121e-01
9.99193884e-01
9.99205582e-01
9.99221588e-01
9.99242270e-01
9.99267972e-01
9.99299009e-01
9.99335646e-01
9.99378086e-01
9.99426452e-01
9.99480770e-01
9.99540956e-01
9.99606802e-01
9.99677965e-01
9.99753964e-01
9.99834180e-01
9.99917863e-01
1.00000414e+00
1.00009206e+00
1.00018057e+00
1.00026859e+00
1.00035503e+00
1.00043884e+00
1.00051901e+00
1.00059466e+00
1.00066500e+00
1.00072940e+00
1.00078741e+00
1.00083875e+00
1.00088331e+00
1.00092116e+00
1.00095251e+00
1.00097774e+00
1.00099734e+00
1.00101189e+00
1.00102203e+00
1.00102844e+00
1.00103184e+00
1.00103289e+00
1.00103225e+00
1.00103052e+00
1.00102821e+00
1.00102577e+00
1.00102356e+00
1.00102187e+00
1.00102089e+00
1.00102072e+00
1.00102142e+00
1.00102297e+00
1.00102529e+00
1.00102829e+00
1.00103182e+00
1.00103574e+00
1.00103989e+00
1.00104410e+00
1.00104823e+00
1.00105215e+00
1.00105574e+00
1.00105891e+00
1.00106158e+00
1.00106372e+00
1.00106530e+00
1.00106632e+00
1.00106679e+00
1.00106674e+00
1.00106623e+00
1.00106530e+00
1.00106402e+00
1.00106246e+00
1.00106067e+00
1.00105872e+00
1.00105670e+00
1.00105467e+00
1.00105266e+00
1.00105073e+00
1.00104887e+00
1.00104710e+00
1.00104551e+00
1.00104422e+00
9.99492385e-01
9.99490976e-01
9.99489605e-01
9.99488411e-01
9.99487366e-01
9.99486401e-01
9.99485468e-01
9.99484511e-01
9.99483485e-01
9.99482367e-01
9.99481113e-01
9.99479670e-01
9.99477991e-01
9.99476030e-01
9.99473728e-01
9.99471034e-01
9.99467898e-01
9.99464269e-01
9.99460095e-01
9.99455331e-01
9.99449934e-01
9.99443862e-01
9.99437079e-01
9.99429554e-01
9.99421265e-01
9.99412194e-01
9.99402333e-01
9.99391684e-01
9.99380260e-01
9.99368086e-01
9.99355202e-01
9.99341663e-01
9.99327542e-01
9.99312927e-01
9.99297929e-01
9.99282677e-01
9.99267323e-01
9.99252039e-01
9.99237019e-01
9.99222478e-01
9.99208651e-01
9.99195795e-01
9.99184182e-01
9.99174103e-01
9.99165861e-01
9.99159777e-01
9.99156179e-01
9.99155409e-01
9.99157813e-01
9.99163743e-01
9.99173554e-01
9.99187595e-01
9.99206208e-01
9.99229717e-01
9.99258419e-01
9.99292574e-01
9.99332393e-01
9.99378018e-01
9.99429516e-01
9.99486857e-01
9.99549904e-01
9.99618399e-01
9.99691959e-01
9.99770069e-01
9.99852087e-01
9.99937247e-01
1.00002468e+00
1.00011343e+00
1.00020247e+00
1.00029077e+00
1.00037727e+00
1.00046096e+00
1.00054090e+00
1.00061624e+00
1.00068628e+00
1.00075042e+00
1.00080827e+00
1.00085955e+00
1.00090420e+00
1.00094227e+00
1.00097400e+00
1.00099973e+00
1.00101992e+00
1.00103512e+00
1.00104593e+00
1.00105300e+00
1.00105697e+00
1.00105850e+00
1.00105818e+00
1.00105660e+00
1.00105424e+00
1.00105154e+00
1.00104885e+00
1.00104647e+00
1.00104459e+00
1.00104334e+00
1.00104279e+00
1.00104296e+00
1.00104380e+00
1.00104523e+00
1.00104716e+00
1.00104946e+00
1.00105200e+00
1.00105465e+00
1.00105727e+00
1.00105976e+00
1.00106202e+00
1.00106395e+00
1.00106551e+00
1.00106664e+00
1.00106732e+00
1.00106755e+00
1.00106734e+00
1.00106671e+00
1.00106571e+00
1.00106437e+00
1.00106276e+00
1.00106092e+00
1.00105891e+00
1.00105680e+00
1.00105463e+00
1.00105248e+00
1.00105038e+00
1.00104837e+00
1.00104643e+00
1.00104459e+00
1.00104291e+00
1.00104154e+00
9.99488136e-01
9.99486603e-01
9.99485083e-01
9.99483668e-01
9.99482363e-01
9.99481111e-01
9.99479826e-01
9.99478460e-01
9.99476997e-01
9.99475396e-01
9.99473605e-01
9.99471591e-01
9.99469313e-01
9.99466719e-01
9.99463760e-01
9.99460398e-01
9.99456585e-01
9.99452275e-01
9.99447426e-01
9.99441998e-01
9.99435950e-01
9.99429242e-01
9.99421841e-01
9.99413713e-01
9.99404832e-01
9.99395173e-01
9.99384721e-01
9.99373470e-01
9.99361422e-01
9.99348594e-01
9.99335016e-01
9.99320739e-01
9.99305829e-01
9.99290380e-01
9.99274505e-01
9.99258347e-01
9.99242073e-01
9.99225880e-01
9.99209991e-01
9.99194656e-01
9.99180148e-01
9.99166763e-01
9.99154815e-01
9.99144634e-01
9.99136561e-01
9.99130946e-01
9.99128143e-01
9.99128508e-01
9.99132395e-01
9.99140152e-01
9.99152119e-01
9.99168622e-01
9.99189970e-01
9.99216444e-01
9.99248295e-01
9.99285728e-01
9.99328895e-01
9.99377879e-01
9.99432687e-01
9.99493227e-01
9.99559307e-01
9.99630619e-01
9.99706731e-01
9.99787094e-01
9.99871037e-01
9.99957779e-01
1.00004645e+00
1.00013609e+00
1.00022572e+00
1.00031432e+00
1.00040088e+00
1.00048445e+00
1.00056415e+00
1.00063919e+00
1.00070891e+00
1.00077278e+00
1.00083045e+00
1.00088169e+00
1.00092644e+00
1.00096477e+00
1.00099692e+00
1.00102319e+00
1.00104404e+00
1.00105996e+00
1.00107151e+00
1.00107930e+00
1.00108393e+00
1.00108599e+00
1.00108605e+00
1.00108466e+00
1.00108228e+00
1.00107934e+00
1.00107618e+00
1.00107308e+00
1.00107027e+00
1.00106789e+00
1.00106604e+00
1.00106475e+00
1.00106401e+00
1.00106379e+00
1.00106401e+00
1.00106458e+00
1.00106541e+00
1.00106638e+00
1.00106739e+00
1.00106835e+00
1.00106917e+00
1.00106978e+00
1.00107012e+00
1.00107016e+00
1.00106987e+00
1.00106925e+00
1.00106830e+00
1.00106704e+00
1.00106550e+00
1.00106371e+00
1.00106173e+00
1.00105959e+00
1.00105733e+00
1.00105502e+00
1.00105270e+00
1.00105041e+00
1.00104821e+00
1.00104611e+00
1.00104409e+00
1.00104217e+00
1.00104042e+00
1.00103896e+00
9.99483153e-01
9.99481493e-01
9.99479804e-01
9.99478180e-01
9.99476614e-01
9.99475040e-01
9.99473381e-01
9.99471602e-01
9.99469671e-01
9.99467546e-01
9.99465196e-01
9.99462584e-01
9.99459665e-01
9.99456398e-01
9.99452747e-01
9.99448673e-01
9.99444134e-01
9.99439094e-01
9.99433519e-01
9.99427371e-01
9.99420612e-01
9.99413209e-01
9.99405128e-01
9.99396333e-01
9.99386794e-01
9.99376484e-01
9.99365381e-01
9.99353470e-01
9.99340746e-01
9.99327218e-01
9.99312910e-01
9.99297865e-01
9.99282151e-01
9.99265861e-01
9.99249116e-01
9.99232070e-01
9.99214907e-01
9.99197848e-01
9.99181143e-01
9.99165076e-01
9.99149955e-01
9.99136116e-01
9.99123912e-01
9.99113711e-01
9.99105890e-01
9.99100828e-01
9.99098904e-01
9.99100490e-01
9.99105945e-01
9.99115616e-01
9.99129830e-01
9.99148890e-01
9.99173072e-01
9.99202619e-01
9.99237733e-01
9.99278566e-01
9.99325211e-01
9.99377691e-01
9.99435948e-01
9.99499832e-01
9.99569088e-01
9.99643353e-01
9.99722150e-01
9.99804885e-01
9.99890860e-01
9.99979276e-01
1.00006925e+00
1.00015985e+00
1.00025011e+00
1.00033903e+00
1.00042567e+00
1.00050912e+00
1.00058856e+00
1.00066328e+00
1.00073267e+00
1.00079627e+00
1.00085376e+00
1.00090496e+00
1.00094982e+00
1.00098845e+00
1.00102104e+00
1.00104791e+00
1.00106947e+00
1.00108618e+00
1.00109855e+00
1.00110713e+00
1.00111248e+00
1.00111515e+00
1.00111567e+00
1.00111452e+00
1.00111217e+00
1.00110901e+00
1.00110539e+00
1.00110159e+00
1.00109783e+00
1.00109429e+00
1.00109109e+00
1.00108828e+00
1.00108590e+00
1.00108393e+00
1.00108236e+00
1.00108111e+00
1.00108012e+00
1.00107932e+00
1.00107862e+00
1.00107795e+00
1.00107724e+00
1.00107643e+00
1.00107548e+00
1.00107435e+00
1.00107302e+00
1.00107148e+00
1.00106973e+00
1.00106778e+00
1.00106566e+00
1.00106339e+00
1.00106100e+00
1.00105853e+00
1.00105601e+00
1.00105347e+00
1.00105098e+00
1.00104855e+00
1.00104622e+00
1.00104402e+00
1.00104192e+00
1.00103992e+00
1.00103809e+00
1.00103655e+00
9.99477361e-01
9.99475580e-01
9.99473719e-01
9.99471882e-01
9.99470045e-01
9.99468132e-01
9.99466089e-01
9.99463876e-01
9.99461449e-01
9.99458781e-01
9.99455846e-01
9.99452602e-01
9.99449010e-01
9.99445040e-01
9.99440658e-01
9.99435829e-01
9.99430522e-01
9.99424708e-01
9.99418356e-01
9.99411433e-01
9.99403909e-01
9.99395752e-01
9.99386928e-01
9.99377404e-01
9.99367148e-01
9.99356128e-01
9.99344316e-01
9.99331694e-01
9.99318249e-01
9.99303984e-01
9.99288917e-01
9.99273090e-01
9.99256569e-01
9.99239448e-01
9.99221857e-01
9.99203961e-01
9.99185961e-01
9.99168099e-01
9.99150652e-01
9.99133935e-01
9.99118292e-01
9.99104093e-01
9.99091730e-01
9.99081606e-01
9.99074131e-01
9.99069714e-01
9.99068756e-01
9.99071644e-01
9.99078746e-01
9.99090405e-01
9.99106938e-01
9.99128626e-01
9.99155716e-01
9.99188411e-01
9.99226869e-01
9.99271187e-01
9.99321402e-01
9.99377476e-01
9.99439287e-01
9.99506620e-01
9.99579160e-01
9.99656487e-01
9.99738071e-01
9.99823277e-01
9.99911373e-01
1.00000154e+00
1.00009289e+00
1.00018450e+00
1.00027541e+00
1.00036468e+00
1.00045140e+00
1.00053474e+00
1.00061392e+00
1.00068831e+00
1.00075736e+00
1.00082068e+00
1.00087799e+00
1.00092915e+00
1.00097414e+00
1.00101308e+00
1.00104616e+00
1.00107368e+00
1.00109600e+00
1.00111357e+00
1.00112683e+00
1.00113629e+00
1.00114244e+00
1.00114579e+00
1.00114683e+00
1.00114600e+00
1.00114373e+00
1.00114041e+00
1.00113636e+00
1.00113186e+00
1.00112717e+00
1.00112245e+00
1.00111786e+00
1.00111350e+00
1.00110942e+00
1.00110565e+00
1.00110220e+00
1.00109905e+00
1.00109617e+00
1.00109350e+00
1.00109099e+00
1.00108860e+00
1.00108628e+00
1.00108397e+00
1.00108165e+00
1.00107927e+00
1.00107683e+00
1.00107431e+00
1.00107171e+00
1.00106902e+00
1.00106628e+00
1.00106348e+00
1.00106065e+00
1.00105781e+00
1.00105500e+00
1.00105223e+00
1.00104953e+00
1.00104695e+00
1.00104449e+00
1.00104218e+00
1.00103999e+00
1.00103791e+00
1.00103600e+00
1.00103437e+00
9.99470692e-01
9.99468797e-01
9.99466772e-01
9.99464708e-01
9.99462586e-01
9.99460335e-01
9.99457893e-01
9.99455218e-01
9.99452280e-01
9.99449055e-01
9.99445506e-01
9.99441600e-01
9.99437311e-01
9.99432607e-01
9.99427457e-01
9.99421837e-01
9.99415723e-01
9.99409089e-01
9.99401911e-01
9.99394164e-01
9.99385822e-01
9.99376854e-01
9.99367232e-01
9.99356921e-01
9.99345890e-01
9.99334104e-01
9.99321534e-01
9.99308156e-01
9.99293953e-01
9.99278924e-01
9.99263084e-01
9.99246472e-01
9.99229154e-01
9.99211229e-01
9.99192834e-01
9.99174144e-01
9.99155378e-01
9.99136797e-01
9.99118703e-01
9.99101440e-01
9.99085384e-01
9.99070938e-01
9.99058527e-01
9.99048590e-01
9.99041566e-01
9.99037892e-01
9.99037989e-01
9.99042260e-01
9.99051079e-01
9.99064788e-01
9.99083694e-01
9.99108059e-01
9.99138102e-01
9.99173991e-01
9.99215837e-01
9.99263690e-01
9.99317528e-01
9.99377253e-01
9.99442681e-01
9.99513532e-01
9.99589430e-01
9.99669893e-01
9.99754339e-01
9.99842089e-01
9.99932373e-01
1.00002435e+00
1.00011713e+00
1.00020979e+00
1.00030139e+00
1.00039103e+00
1.00047786e+00
1.00056108e+00
1.00064002e+00
1.00071407e+00
1.00078278e+00
1.00084581e+00
1.00090293e+00
1.00095406e+00
1.00099920e+00
1.00103848e+00
1.00107208e+00
1.00110029e+00
1.00112344e+00
1.00114192e+00
1.00115615e+00
1.00116656e+00
1.00117360e+00
1.00117772e+00
1.00117935e+00
1.00117892e+00
1.00117680e+00
1.00117336e+00
1.00116893e+00
1.00116378e+00
1.00115816e+00
1.00115227e+00
1.00114629e+00
1.00114035e+00
1.00113453e+00
1.00112891e+00
1.00112354e+00
1.00111842e+00
1.00111356e+00
1.00110895e+00
1.00110456e+00
1.00110037e+00
1.00109635e+00
1.00109247e+00
1.00108869e+00
1.00108501e+00
1.00108139e+00
1.00107782e+00
1.00107431e+00
1.00107084e+00
1.00106742e+00
1.00106405e+00
1.00106075e+00
1.00105752e+00
1.00105438e+00
1.00105135e+00
1.00104844e+00
1.00104568e+00
1.00104309e+00
1.00104066e+00
1.00103837e+00
1.00103620e+00
1.00103421e+00
1.00103251e+00
9.99463090e-01
9.99461080e-01
9.99458888e-01
9.99456595e-01
9.99454183e-01
9.99451582e-01
9.99448725e-01
9.99445577e-01
9.99442114e-01
9.99438306e-01
9.99434122e-01
9.99429536e-01
9.99424522e-01
9.99419052e-01
9.99413105e-01
9.99406661e-01
9.99399701e-01
9.99392206e-01
9.99384159e-01
9.99375541e-01
9.99366329e-01
9.99356500e-01
9.99346025e-01
9.99334876e-01
9.99323018e-01
9.99310420e-01
9.99297049e-01
9.99282878e-01
9.99267891e-01
9.99252082e-01
9.99235465e-01
9.99218079e-01
9.99199992e-01
9.99181306e-01
9.99162165e-01
9.99142756e-01
9.99123313e-01
9.99104114e-01
9.99085487e-01
9.99067800e-01
9.99051456e-01
9.99036891e-01
9.99024560e-01
9.99014931e-01
9.99008472e-01
9.99005643e-01
9.99006886e-01
9.99012616e-01
9.99023216e-01
9.99039025e-01
9.99060342e-01
9.99087413e-01
9.99120429e-01
9.99159525e-01
9.99204772e-01
9.99256170e-01
9.99313645e-01
9.99377040e-01
9.99446108e-01
9.99520507e-01
9.99599796e-01
9.99683437e-01
9.99770790e-01
9.99861129e-01
9.99953650e-01