# vtk DataFile Version 2.0
LBM Flow Field - Timestep 1090
ASCII
DATASET STRUCTURED_POINTS
DIMENSIONS 128 128 1
ORIGIN 0.0 0.0 0.0
SPACING 1.0 1.0 1.0
POINT_DATA 16384
SCALARS density double 1
LOOKUP_TABLE default
9.99182469e-01
9.99167146e-01
9.99147339e-01
9.99130729e-01
9.99109408e-01
9.99083774e-01
9.99055414e-01
9.99024813e-01
9.98992120e-01
9.98958125e-01
9.98923608e-01
9.98889331e-01
9.98856099e-01
9.98824792e-01
9.98796293e-01
9.98771487e-01
9.98751239e-01
9.98736367e-01
9.98727617e-01
9.98725635e-01
9.98730936e-01
9.98743881e-01
9.98764653e-01
9.98793238e-01
9.98829415e-01
9.98872755e-01
9.98922624e-01
9.98978203e-01
9.99038512e-01
9.99102452e-01
9.99168839e-01
9.99236463e-01
9.99304134e-01
9.99370732e-01
9.99435256e-01
9.99496861e-01
9.99554893e-01
9.99608900e-01
9.99658643e-01
9.99704091e-01
9.99745402e-01
9.99782897e-01
9.99817031e-01
9.99848347e-01
9.99877447e-01
9.99904942e-01
9.99931425e-01
9.99957435e-01
9.99983433e-01
1.00000978e+00
1.00003674e+00
1.00006444e+00
1.00009292e+00
1.00012210e+00
1.00015182e+00
1.00018184e+00
1.00021185e+00
1.00024152e+00
1.00027048e+00
1.00029838e+00
1.00032488e+00
1.00034968e+00
1.00037252e+00
1.00039321e+00
1.00041163e+00
1.00042773e+00
1.00044154e+00
1.00045317e+00
1.00046281e+00
1.00047071e+00
1.00047720e+00
1.00048265e+00
1.00048747e+00
1.00049211e+00
1.00049704e+00
1.00050270e+00
1.00050955e+00
1.00051801e+00
1.00052845e+00
1.00054121e+00
1.00055654e+00
1.00057464e+00
1.00059564e+00
1.00061957e+00
1.00064642e+00
1.00067607e+00
1.00070836e+00
1.00074302e+00
1.00077975e+00
1.00081820e+00
1.00085795e+00
1.00089853e+00
1.00093946e+00
1.00098022e+00
1.00102028e+00
1.00105908e+00
1.00109609e+00
1.00113079e+00
1.00116267e+00
1.00119129e+00
1.00121622e+00
1.00123714e+00
1.00125377e+00
1.00126595e+00
1.00127357e+00
1.00127664e+00
1.00127526e+00
1.00126962e+00
1.00125999e+00
1.00124673e+00
1.00123024e+00
1.00121098e+00
1.00118945e+00
1.00116617e+00
1.00114165e+00
1.00111640e+00
1.00109092e+00
1.00106565e+00
1.00104103e+00
1.00101743e+00
1.00099518e+00
1.00097459e+00
1.00095585e+00
1.00093919e+00
1.00092487e+00
1.00091333e+00
1.00090159e+00
1.00089227e+00
9.99167131e-01
9.99156700e-01
9.99139518e-01
9.99122476e-01
9.99100913e-01
9.99076184e-01
9.99048371e-01
9.99018289e-01
9.98986267e-01
9.98953069e-01
9.98919349e-01
9.98885928e-01
9.98853604e-01
9.98823245e-01
9.98795715e-01
9.98771891e-01
9.98752617e-01
9.98738692e-01
9.98730840e-01
9.98729682e-01
9.98735709e-01
9.98749260e-01
9.98770495e-01
9.98799383e-01
9.98835690e-01
9.98878981e-01
9.98928621e-01
9.98983801e-01
9.99043559e-01
9.99106817e-01
9.99172425e-01
9.99239207e-01
9.99306013e-01
9.99371762e-01
9.99435492e-01
9.99496393e-01
9.99553836e-01
9.99607390e-01
9.99656828e-01
9.99702121e-01
9.99743420e-01
9.99781033e-01
9.99815393e-01
9.99847022e-01
9.99876489e-01
9.99904381e-01
9.99931262e-01
9.99957646e-01
9.99983971e-01
1.00001058e+00
1.00003772e+00
1.00006553e+00
1.00009403e+00
1.00012315e+00
1.00015273e+00
1.00018254e+00
1.00021229e+00
1.00024166e+00
1.00027031e+00
1.00029790e+00
1.00032410e+00
1.00034862e+00
1.00037124e+00
1.00039176e+00
1.00041007e+00
1.00042612e+00
1.00043996e+00
1.00045169e+00
1.00046150e+00
1.00046963e+00
1.00047639e+00
1.00048215e+00
1.00048731e+00
1.00049231e+00
1.00049758e+00
1.00050357e+00
1.00051072e+00
1.00051942e+00
1.00053006e+00
1.00054293e+00
1.00055831e+00
1.00057639e+00
1.00059727e+00
1.00062103e+00
1.00064762e+00
1.00067695e+00
1.00070886e+00
1.00074310e+00
1.00077939e+00
1.00081737e+00
1.00085665e+00
1.00089677e+00
1.00093727e+00
1.00097765e+00
1.00101737e+00
1.00105592e+00
1.00109276e+00
1.00112737e+00
1.00115927e+00
1.00118800e+00
1.00121317e+00
1.00123442e+00
1.00125148e+00
1.00126418e+00
1.00127241e+00
1.00127615e+00
1.00127549e+00
1.00127060e+00
1.00126174e+00
1.00124923e+00
1.00123347e+00
1.00121490e+00
1.00119402e+00
1.00117131e+00
1.00114730e+00
1.00112250e+00
1.00109738e+00
1.00107242e+00
1.00104804e+00
1.00102463e+00
1.00100251e+00
1.00098204e+00
1.00096335e+00
1.00094684e+00
1.00093228e+00
1.00092074e+00
1.00090991e+00
1.00090223e+00
9.99147104e-01
9.99139135e-01
9.99128193e-01
9.99109711e-01
9.99087915e-01
9.99064177e-01
9.99037185e-01
9.99007629e-01
9.98976378e-01
9.98944040e-01
9.98911222e-01
9.98878743e-01
9.98847421e-01
9.98818097e-01
9.98791627e-01
9.98768871e-01
9.98750658e-01
9.98737768e-01
9.98730902e-01
9.98730661e-01
9.98737514e-01
9.98751777e-01
9.98773592e-01
9.98802912e-01
9.98839490e-01
9.98882884e-01
9.98932461e-01
9.98987416e-01
9.99046801e-01
9.99109559e-01
9.99174567e-01
9.99240682e-01
9.99306785e-01
9.99371834e-01
9.99434901e-01
9.99495207e-01
9.99552152e-01
9.99605324e-01
9.99654509e-01
9.99699684e-01
9.99740997e-01
9.99778746e-01
9.99813347e-01
9.99845300e-01
9.99875151e-01
9.99903459e-01
9.99930763e-01
9.99957551e-01
9.99984239e-01
1.00001116e+00
1.00003853e+00
1.00006649e+00
1.00009505e+00
1.00012415e+00
1.00015363e+00
1.00018327e+00
1.00021280e+00
1.00024190e+00
1.00027026e+00
1.00029755e+00
1.00032346e+00
1.00034772e+00
1.00037012e+00
1.00039047e+00
1.00040868e+00
1.00042470e+00
1.00043859e+00
1.00045044e+00
1.00046043e+00
1.00046882e+00
1.00047589e+00
1.00048201e+00
1.00048755e+00
1.00049294e+00
1.00049860e+00
1.00050496e+00
1.00051244e+00
1.00052142e+00
1.00053227e+00
1.00054528e+00
1.00056071e+00
1.00057875e+00
1.00059951e+00
1.00062305e+00
1.00064936e+00
1.00067833e+00
1.00070982e+00
1.00074360e+00
1.00077941e+00
1.00081690e+00
1.00085570e+00
1.00089540e+00
1.00093553e+00
1.00097560e+00
1.00101513e+00
1.00105359e+00
1.00109047e+00
1.00112527e+00
1.00115749e+00
1.00118669e+00
1.00121246e+00
1.00123445e+00
1.00125237e+00
1.00126603e+00
1.00127529e+00
1.00128012e+00
1.00128058e+00
1.00127681e+00
1.00126904e+00
1.00125758e+00
1.00124281e+00
1.00122514e+00
1.00120505e+00
1.00118303e+00
1.00115960e+00
1.00113525e+00
1.00111049e+00
1.00108579e+00
1.00106157e+00
1.00103824e+00
1.00101617e+00
1.00099566e+00
1.00097696e+00
1.00096044e+00
1.00094579e+00
1.00093345e+00
1.00092454e+00
1.00091733e+00
9.99130196e-01
9.99121508e-01
9.99108875e-01
9.99091466e-01
9.99071511e-01
9.99048048e-01
9.99021570e-01
9.98992977e-01
9.98962721e-01
9.98931342e-01
9.98899598e-01
9.98868261e-01
9.98838119e-01
9.98810000e-01
9.98784753e-01
9.98763214e-01
9.98746192e-01
9.98734446e-01
9.98728655e-01
9.98729396e-01
9.98737117e-01
9.98752115e-01
9.98774515e-01
9.98804256e-01
9.98841085e-01
9.98884558e-01
9.98934047e-01
9.98988759e-01
9.99047766e-01
9.99110037e-01
9.99174479e-01
9.99239983e-01
9.99305468e-01
9.99369927e-01
9.99432465e-01
9.99492333e-01
9.99548952e-01
9.99601927e-01
9.99651053e-01
9.99696304e-01
9.99737821e-01
9.99775887e-01
9.99810897e-01
9.99843325e-01
9.99873692e-01
9.99902527e-01
9.99930342e-01
9.99957600e-01
9.99984698e-01
1.00001194e+00
1.00003956e+00
1.00006766e+00
1.00009626e+00
1.00012531e+00
1.00015466e+00
1.00018409e+00
1.00021334e+00
1.00024214e+00
1.00027016e+00
1.00029711e+00
1.00032270e+00
1.00034668e+00
1.00036884e+00
1.00038902e+00
1.00040713e+00
1.00042315e+00
1.00043711e+00
1.00044912e+00
1.00045936e+00
1.00046806e+00
1.00047552e+00
1.00048207e+00
1.00048808e+00
1.00049396e+00
1.00050010e+00
1.00050692e+00
1.00051481e+00
1.00052416e+00
1.00053529e+00
1.00054849e+00
1.00056402e+00
1.00058205e+00
1.00060271e+00
1.00062604e+00
1.00065204e+00
1.00068062e+00
1.00071166e+00
1.00074494e+00
1.00078023e+00
1.00081720e+00
1.00085551e+00
1.00089477e+00
1.00093453e+00
1.00097436e+00
1.00101376e+00
1.00105225e+00
1.00108932e+00
1.00112448e+00
1.00115725e+00
1.00118718e+00
1.00121385e+00
1.00123689e+00
1.00125602e+00
1.00127098e+00
1.00128164e+00
1.00128793e+00
1.00128988e+00
1.00128758e+00
1.00128124e+00
1.00127115e+00
1.00125763e+00
1.00124110e+00
1.00122202e+00
1.00120086e+00
1.00117814e+00
1.00115436e+00
1.00113001e+00
1.00110559e+00
1.00108154e+00
1.00105829e+00
1.00103622e+00
1.00101563e+00
1.00099678e+00
1.00098003e+00
1.00096564e+00
1.00095322e+00
1.00094354e+00
1.00093577e+00
9.99107806e-01
9.99098454e-01
9.99085410e-01
9.99069775e-01
9.99050403e-01
9.99027225e-01
9.99001802e-01
9.98974342e-01
9.98945120e-01
9.98914903e-01
9.98884450e-01
9.98854450e-01
9.98825681e-01
9.98798970e-01
9.98775141e-01
9.98755005e-01
9.98739349e-01
9.98728905e-01
9.98724330e-01
9.98726175e-01
9.98734865e-01
9.98750676e-01
9.98773716e-01
9.98803913e-01
9.98841008e-01
9.98884557e-01
9.98933941e-01
9.98988386e-01
9.99046985e-01
9.99108738e-01
9.99172589e-01
9.99237468e-01
9.99302335e-01
9.99366222e-01
9.99428271e-01
9.99487763e-01
9.99544144e-01
9.99597033e-01
9.99646229e-01
9.99691705e-01
9.99733587e-01
9.99772139e-01
9.99807730e-01
9.99840804e-01
9.99871848e-01
9.99901360e-01
9.99929819e-01
9.99957663e-01
9.99985261e-01
1.00001291e+00
1.00004081e+00
1.00006907e+00
1.00009772e+00
1.00012670e+00
1.00015587e+00
1.00018504e+00
1.00021397e+00
1.00024238e+00
1.00027001e+00
1.00029655e+00
1.00032177e+00
1.00034541e+00
1.00036730e+00
1.00038729e+00
1.00040530e+00
1.00042131e+00
1.00043537e+00
1.00044759e+00
1.00045814e+00
1.00046724e+00
1.00047518e+00
1.00048227e+00
1.00048886e+00
1.00049534e+00
1.00050208e+00
1.00050948e+00
1.00051790e+00
1.00052770e+00
1.00053919e+00
1.00055266e+00
1.00056834e+00
1.00058640e+00
1.00060695e+00
1.00063006e+00
1.00065573e+00
1.00068390e+00
1.00071443e+00
1.00074717e+00
1.00078188e+00
1.00081828e+00
1.00085606e+00
1.00089485e+00
1.00093425e+00
1.00097385e+00
1.00101318e+00
1.00105178e+00
1.00108917e+00
1.00112485e+00
1.00115837e+00
1.00118926e+00
1.00121709e+00
1.00124150e+00
1.00126215e+00
1.00127878e+00
1.00129120e+00
1.00129932e+00
1.00130311e+00
1.00130265e+00
1.00129809e+00
1.00128967e+00
1.00127771e+00
1.00126260e+00
1.00124475e+00
1.00122465e+00
1.00120279e+00
1.00117969e+00
1.00115585e+00
1.00113177e+00
1.00110791e+00
1.00108473e+00
1.00106260e+00
1.00104192e+00
1.00102296e+00
1.00100590e+00
1.00099121e+00
1.00097893e+00
1.00096885e+00
1.00096065e+00
9.99079935e-01
9.99071128e-01
9.99058897e-01
9.99043370e-01
9.99024211e-01
9.99002355e-01
9.98978104e-01
9.98951593e-01
9.98923604e-01
9.98894820e-01
9.98865819e-01
9.98837323e-01
9.98810129e-01
9.98785025e-01
9.98762800e-01
9.98744246e-01
9.98730126e-01
9.98721144e-01
9.98717927e-01
9.98721001e-01
9.98730768e-01
9.98747482e-01
9.98771234e-01
9.98801942e-01
9.98839343e-01
9.98882995e-01
9.98932293e-01
9.98986480e-01
9.99044678e-01
9.99105921e-01
9.99169193e-01
9.99233465e-01
9.99297741e-01
9.99361095e-01
9.99422707e-01
9.99481889e-01
9.99538110e-01
9.99591003e-01
9.99640372e-01
9.99686182e-01
9.99728547e-01
9.99767705e-01
9.99803997e-01
9.99837835e-01
9.99869668e-01
9.99899960e-01
9.99929156e-01
9.99957663e-01
9.99985826e-01
1.00001392e+00
1.00004213e+00
1.00007058e+00
1.00009927e+00
1.00012817e+00
1.00015714e+00
1.00018601e+00
1.00021457e+00
1.00024256e+00
1.00026974e+00
1.00029584e+00
1.00032063e+00
1.00034391e+00
1.00036550e+00
1.00038528e+00
1.00040319e+00
1.00041922e+00
1.00043342e+00
1.00044589e+00
1.00045680e+00
1.00046637e+00
1.00047486e+00
1.00048258e+00
1.00048985e+00
1.00049702e+00
1.00050446e+00
1.00051253e+00
1.00052156e+00
1.00053190e+00
1.00054383e+00
1.00055762e+00
1.00057348e+00
1.00059159e+00
1.00061206e+00
1.00063495e+00
1.00066027e+00
1.00068799e+00
1.00071799e+00
1.00075013e+00
1.00078423e+00
1.00082002e+00
1.00085724e+00
1.00089556e+00
1.00093462e+00
1.00097402e+00
1.00101335e+00
1.00105215e+00
1.00108998e+00
1.00112635e+00
1.00116080e+00
1.00119288e+00
1.00122214e+00
1.00124819e+00
1.00127067e+00
1.00128929e+00
1.00130382e+00
1.00131411e+00
1.00132009e+00
1.00132180e+00
1.00131934e+00
1.00131292e+00
1.00130280e+00
1.00128935e+00
1.00127297e+00
1.00125413e+00
1.00123330e+00
1.00121101e+00
1.00118778e+00
1.00116411e+00
1.00114049e+00
1.00111739e+00
1.00109523e+00
1.00107439e+00
1.00105527e+00
1.00103806e+00
1.00102297e+00
1.00101037e+00
1.00100009e+00
1.00099173e+00
9.99047873e-01
9.99039264e-01
9.99027585e-01
9.99012385e-01
9.98994191e-01
9.98973458e-01
9.98950130e-01
9.98924887e-01
9.98898410e-01
9.98871145e-01
9.98843739e-01
9.98816956e-01
9.98791530e-01
9.98768209e-01
9.98747771e-01
9.98730982e-01
9.98718569e-01
9.98711208e-01
9.98709499e-01
9.98713938e-01
9.98724902e-01
9.98742624e-01
9.98767179e-01
9.98798473e-01
9.98836241e-01
9.98880046e-01
9.98929295e-01
9.98983256e-01
9.99041080e-01
9.99101838e-01
9.99164556e-01
9.99228251e-01
9.99291972e-01
9.99354838e-01
9.99416066e-01
9.99475002e-01
9.99531137e-01
9.99584118e-01
9.99633751e-01
9.99679994e-01
9.99722943e-01
9.99762811e-01
9.99799907e-01
9.99834604e-01
9.99867317e-01
9.99898469e-01
9.99928471e-01
9.99957697e-01
9.99986466e-01
1.00001503e+00
1.00004357e+00
1.00007219e+00
1.00010092e+00
1.00012970e+00
1.00015844e+00
1.00018697e+00
1.00021511e+00
1.00024263e+00
1.00026931e+00
1.00029492e+00
1.00031925e+00
1.00034212e+00
1.00036340e+00
1.00038296e+00
1.00040077e+00
1.00041682e+00
1.00043117e+00
1.00044393e+00
1.00045526e+00
1.00046536e+00
1.00047448e+00
1.00048290e+00
1.00049093e+00
1.00049889e+00
1.00050711e+00
1.00051592e+00
1.00052565e+00
1.00053659e+00
1.00054901e+00
1.00056317e+00
1.00057925e+00
1.00059743e+00
1.00061782e+00
1.00064049e+00
1.00066545e+00
1.00069270e+00
1.00072214e+00
1.00075367e+00
1.00078712e+00
1.00082230e+00
1.00085896e+00
1.00089681e+00
1.00093554e+00
1.00097480e+00
1.00101419e+00
1.00105330e+00
1.00109169e+00
1.00112890e+00
1.00116448e+00
1.00119795e+00
1.00122888e+00
1.00125683e+00
1.00128143e+00
1.00130233e+00
1.00131927e+00
1.00133204e+00
1.00134054e+00
1.00134473e+00
1.00134468e+00
1.00134054e+00
1.00133254e+00
1.00132102e+00
1.00130634e+00
1.00128895e+00
1.00126934e+00
1.00124801e+00
1.00122550e+00
1.00120234e+00
1.00117903e+00
1.00115606e+00
1.00113391e+00
1.00111296e+00
1.00109359e+00
1.00107616e+00
1.00106086e+00
1.00104793e+00
1.00103738e+00
1.00102879e+00
9.99011779e-01
9.99003284e-01
9.98991831e-01
9.98977410e-01
9.98960213e-01
9.98940340e-01
9.98918248e-01
9.98894550e-01
9.98869604e-01
9.98843977e-01
9.98818387e-01
9.98793499e-01
9.98769999e-01
9.98748640e-01
9.98730171e-01
9.98715318e-01
9.98704778e-01
9.98699198e-01
9.98699144e-01
9.98705086e-01
9.98717372e-01
9.98736214e-01
9.98761670e-01
9.98793636e-01
9.98831845e-01
9.98875867e-01
9.98925125e-01
9.98978909e-01
9.99036405e-01
9.99096722e-01
9.99158932e-01
9.99222097e-01
9.99285316e-01
9.99347751e-01
9.99408659e-01
9.99467419e-01
9.99523544e-01
9.99576695e-01
9.99626678e-01
9.99673441e-01
9.99717061e-01
9.99757724e-01
9.99795703e-01
9.99831336e-01
9.99864993e-01
9.99897061e-01
9.99927912e-01
9.99957887e-01
9.99987279e-01
1.00001632e+00
1.00004518e+00
1.00007396e+00
1.00010268e+00
1.00013131e+00
1.00015977e+00
1.00018791e+00
1.00021557e+00
1.00024256e+00
1.00026868e+00
1.00029375e+00
1.00031757e+00
1.00034001e+00
1.00036093e+00
1.00038026e+00
1.00039797e+00
1.00041405e+00
1.00042858e+00
1.00044166e+00
1.00045344e+00
1.00046412e+00
1.00047393e+00
1.00048312e+00
1.00049197e+00
1.00050078e+00
1.00050985e+00
1.00051948e+00
1.00052996e+00
1.00054155e+00
1.00055452e+00
1.00056907e+00
1.00058540e+00
1.00060367e+00
1.00062399e+00
1.00064643e+00
1.00067103e+00
1.00069779e+00
1.00072667e+00
1.00075757e+00
1.00079038e+00
1.00082494e+00
1.00086105e+00
1.00089847e+00
1.00093692e+00
1.00097609e+00
1.00101562e+00
1.00105514e+00
1.00109422e+00
1.00113242e+00
1.00116929e+00
1.00120436e+00
1.00123716e+00
1.00126725e+00
1.00129420e+00
1.00131765e+00
1.00133727e+00
1.00135281e+00
1.00136410e+00
1.00137106e+00
1.00137370e+00
1.00137212e+00
1.00136650e+00
1.00135714e+00
1.00134439e+00
1.00132867e+00
1.00131046e+00
1.00129027e+00
1.00126863e+00
1.00124609e+00
1.00122319e+00
1.00120044e+00
1.00117834e+00
1.00115734e+00
1.00113781e+00
1.00112014e+00
1.00110460e+00
1.00109142e+00
1.00108059e+00
1.00107180e+00
9.98971396e-01
9.98963141e-01
9.98952153e-01
9.98938516e-01
9.98922190e-01
9.98903457e-01
9.98882824e-01
9.98860635e-01
9.98837335e-01
9.98813580e-01
9.98789962e-01
9.98767100e-01
9.98745701e-01
9.98726485e-01
9.98710153e-01
9.98697402e-01
9.98688902e-01
9.98685261e-01
9.98687016e-01
9.98694603e-01
9.98708346e-01
9.98728432e-01
9.98754902e-01
9.98787644e-01
9.98826387e-01
9.98870710e-01
9.98920051e-01
9.98973728e-01
9.99030959e-01
9.99090896e-01
9.99152654e-01
9.99215347e-01
9.99278122e-01
9.99340185e-01
9.99400836e-01
9.99459485e-01
9.99515668e-01
9.99569057e-01
9.99619459e-01
9.99666812e-01
9.99711171e-01
9.99752693e-01
9.99791615e-01
9.99828233e-01
9.99862878e-01
9.99895895e-01
9.99927615e-01
9.99958349e-01
9.99988361e-01
1.00001787e+00
1.00004702e+00
1.00007591e+00
1.00010458e+00
1.00013301e+00
1.00016112e+00
1.00018880e+00
1.00021592e+00
1.00024232e+00
1.00026783e+00
1.00029229e+00
1.00031556e+00
1.00033751e+00
1.00035805e+00
1.00037713e+00
1.00039471e+00
1.00041083e+00
1.00042554e+00
1.00043896e+00
1.00045123e+00
1.00046253e+00
1.00047306e+00
1.00048307e+00
1.00049280e+00
1.00050252e+00
1.00051249e+00
1.00052298e+00
1.00053425e+00
1.00054654e+00
1.00056008e+00
1.00057506e+00
1.00059166e+00
1.00061003e+00
1.00063028e+00
1.00065250e+00
1.00067674e+00
1.00070302e+00
1.00073133e+00
1.00076161e+00
1.00079379e+00
1.00082775e+00
1.00086334e+00
1.00090037e+00
1.00093859e+00
1.00097774e+00
1.00101751e+00
1.00105754e+00
1.00109743e+00
1.00113676e+00
1.00117508e+00
1.00121190e+00
1.00124677e+00
1.00127919e+00
1.00130872e+00
1.00133494e+00
1.00135748e+00
1.00137603e+00
1.00139036e+00
1.00140034e+00
1.00140592e+00
1.00140714e+00
1.00140416e+00
1.00139720e+00
1.00138661e+00
1.00137277e+00
1.00135616e+00
1.00133728e+00
1.00131667e+00
1.00129491e+00
1.00127255e+00
1.00125014e+00
1.00122819e+00
1.00120720e+00
1.00118760e+00
1.00116976e+00
1.00115402e+00
1.00114062e+00
1.00112958e+00
1.00112064e+00
9.98927114e-01
9.98919230e-01
9.98908791e-01
9.98895888e-01
9.98880563e-01
9.98863163e-01
9.98843986e-01
9.98823407e-01
9.98801974e-01
9.98780218e-01
9.98758679e-01
9.98738012e-01
9.98718887e-01
9.98701969e-01
9.98687933e-01
9.98677451e-01
9.98671150e-01
9.98669606e-01
9.98673320e-01
9.98682700e-01
9.98698038e-01
9.98719500e-01
9.98747108e-01
9.98780740e-01
9.98820124e-01
9.98864847e-01
9.98914364e-01
9.98968018e-01
9.99025065e-01
9.99084697e-01
9.99146076e-01
9.99208368e-01
9.99270765e-01
9.99332523e-01
9.99392982e-01
9.99451583e-01
9.99507886e-01
9.99561573e-01
9.99612451e-01
9.99660445e-01
9.99705590e-01
9.99748011e-01
9.99787908e-01
9.99825536e-01
9.99861183e-01
9.99895150e-01
9.99927734e-01
9.99959207e-01
9.99989810e-01
1.00001974e+00
1.00004913e+00
1.00007809e+00
1.00010664e+00
1.00013479e+00
1.00016248e+00
1.00018963e+00
1.00021613e+00
1.00024186e+00
1.00026669e+00
1.00029048e+00
1.00031314e+00
1.00033457e+00
1.00035469e+00
1.00037347e+00
1.00039092e+00
1.00040706e+00
1.00042196e+00
1.00043573e+00
1.00044850e+00
1.00046044e+00
1.00047174e+00
1.00048259e+00
1.00049323e+00
1.00050389e+00
1.00051480e+00
1.00052618e+00
1.00053827e+00
1.00055128e+00
1.00056541e+00
1.00058083e+00
1.00059771e+00
1.00061619e+00
1.00063638e+00
1.00065838e+00
1.00068227e+00
1.00070808e+00
1.00073583e+00
1.00076551e+00
1.00079709e+00
1.00083050e+00
1.00086561e+00
1.00090230e+00
1.00094037e+00
1.00097959e+00
1.00101969e+00
1.00106033e+00
1.00110115e+00
1.00114173e+00
1.00118163e+00
1.00122036e+00
1.00125744e+00
1.00129236e+00
1.00132464e+00
1.00135382e+00
1.00137946e+00
1.00140122e+00
1.00141881e+00
1.00143203e+00
1.00144077e+00
1.00144502e+00
1.00144489e+00
1.00144056e+00
1.00143234e+00
1.00142061e+00
1.00140580e+00
1.00138843e+00
1.00136905e+00
1.00134824e+00
1.00132658e+00
1.00130464e+00
1.00128298e+00
1.00126213e+00
1.00124254e+00
1.00122464e+00
1.00120878e+00
1.00119526e+00
1.00118404e+00
1.00117504e+00
9.98879331e-01
9.98871838e-01
9.98861990e-01
9.98849945e-01
9.98835765e-01
9.98819719e-01
9.98802084e-01
9.98783305e-01
9.98763845e-01
9.98744176e-01
9.98724876e-01
9.98706564e-01
9.98689849e-01
9.98675376e-01
9.98663797e-01
9.98655738e-01
9.98651792e-01
9.98652498e-01
9.98658325e-01
9.98669645e-01
9.98686723e-01
9.98709699e-01
9.98738578e-01
9.98773228e-01
9.98813374e-01
9.98858610e-01
9.98908410e-01
9.98962143e-01
9.99019100e-01
9.99078515e-01
9.99139600e-01
9.99201566e-01
9.99263660e-01
9.99325181e-01
9.99385510e-01
9.99444120e-01
9.99500594e-01
9.99554625e-01
9.99606018e-01
9.99654686e-01
9.99700640e-01
9.99743974e-01
9.99784852e-01
9.99823485e-01
9.99860119e-01
9.99895013e-01
9.99928424e-01
9.99960592e-01
9.99991730e-01
1.00002201e+00
1.00005158e+00
1.00008052e+00
1.00010888e+00
1.00013666e+00
1.00016385e+00
1.00019037e+00
1.00021617e+00
1.00024115e+00
1.00026521e+00
1.00028827e+00
1.00031026e+00
1.00033109e+00
1.00035075e+00
1.00036922e+00
1.00038650e+00
1.00040264e+00
1.00041772e+00
1.00043184e+00
1.00044511e+00
1.00045770e+00
1.00046976e+00
1.00048148e+00
1.00049305e+00
1.00050466e+00
1.00051651e+00
1.00052880e+00
1.00054172e+00
1.00055546e+00
1.00057017e+00
1.00058604e+00
1.00060320e+00
1.00062179e+00
1.00064192e+00
1.00066372e+00
1.00068726e+00
1.00071262e+00
1.00073984e+00
1.00076897e+00
1.00079999e+00
1.00083289e+00
1.00086760e+00
1.00090403e+00
1.00094203e+00
1.00098141e+00
1.00102192e+00
1.00106328e+00
1.00110513e+00
1.00114708e+00
1.00118867e+00
1.00122944e+00
1.00126885e+00
1.00130640e+00
1.00134157e+00
1.00137383e+00
1.00140274e+00
1.00142787e+00
1.00144888e+00
1.00146551e+00
1.00147760e+00
1.00148508e+00
1.00148800e+00
1.00148651e+00
1.00148089e+00
1.00147146e+00
1.00145867e+00
1.00144303e+00
1.00142508e+00
1.00140541e+00
1.00138463e+00
1.00136335e+00
1.00134214e+00
1.00132157e+00
1.00130214e+00
1.00128431e+00
1.00126845e+00
1.00125489e+00
1.00124360e+00
1.00123465e+00
9.98828453e-01
9.98821439e-01
9.98812248e-01
9.98801158e-01
9.98788185e-01
9.98773568e-01
9.98757619e-01
9.98740740e-01
9.98723331e-01
9.98705892e-01
9.98688972e-01
9.98673130e-01
9.98658958e-01
9.98647079e-01
9.98638099e-01
9.98632608e-01
9.98631164e-01
9.98634270e-01
9.98642358e-01
9.98655766e-01
9.98674728e-01
9.98699361e-01
9.98729650e-01
9.98765452e-01
9.98806489e-01
9.98852363e-01
9.98902564e-01
9.98956488e-01
9.99013460e-01
9.99072758e-01
9.99133638e-01
9.99195365e-01
9.99257231e-01
9.99318584e-01
9.99378844e-01
9.99437516e-01
9.99494204e-01
9.99548611e-01
9.99600541e-01
9.99649895e-01
9.99696659e-01
9.99740898e-01
9.99782734e-01
9.99822341e-01
9.99859918e-01
9.99895684e-01
9.99929858e-01
9.99962646e-01
9.99994237e-01
1.00002479e+00
1.00005443e+00
1.00008325e+00
1.00011130e+00
1.00013862e+00
1.00016519e+00
1.00019100e+00
1.00021600e+00
1.00024013e+00
1.00026334e+00
1.00028559e+00
1.00030682e+00
1.00032702e+00
1.00034615e+00
1.00036425e+00
1.00038133e+00
1.00039745e+00
1.00041268e+00
1.00042712e+00
1.00044089e+00
1.00045412e+00
1.00046694e+00
1.00047952e+00
1.00049201e+00
1.00050456e+00
1.00051736e+00
1.00053054e+00
1.00054428e+00
1.00055873e+00
1.00057403e+00
1.00059032e+00
1.00060775e+00
1.00062645e+00
1.00064654e+00
1.00066813e+00
1.00069135e+00
1.00071628e+00
1.00074302e+00
1.00077163e+00
1.00080216e+00
1.00083463e+00
1.00086901e+00
1.00090527e+00
1.00094328e+00
1.00098291e+00
1.00102395e+00
1.00106612e+00
1.00110910e+00
1.00115251e+00
1.00119589e+00
1.00123877e+00
1.00128062e+00
1.00132089e+00
1.00135902e+00
1.00139448e+00
1.00142675e+00
1.00145537e+00
1.00147992e+00
1.00150010e+00
1.00151568e+00
1.00152655e+00
1.00153271e+00
1.00153426e+00
1.00153142e+00
1.00152451e+00
1.00151396e+00
1.00150026e+00
1.00148395e+00
1.00146564e+00
1.00144596e+00
1.00142553e+00
1.00140497e+00
1.00138487e+00
1.00136576e+00
1.00134816e+00
1.00133244e+00
1.00131897e+00
1.00130774e+00
1.00129896e+00
9.98774983e-01
9.98768546e-01
9.98760109e-01
9.98750042e-01
9.98738349e-01
9.98725273e-01
9.98711102e-01
9.98696195e-01
9.98680955e-01
9.98665867e-01
9.98651424e-01
9.98638168e-01
9.98626671e-01
9.98617512e-01
9.98611260e-01
9.98608472e-01
9.98609670e-01
9.98615317e-01
9.98625807e-01
9.98641447e-01
9.98662438e-01
9.98688871e-01
9.98720711e-01
9.98757803e-01
9.98799867e-01
9.98846510e-01
9.98897237e-01
9.98951472e-01
9.99008572e-01
9.99067857e-01
9.99128631e-01
9.99190205e-01
9.99251922e-01
9.99313173e-01
9.99373419e-01
9.99432196e-01
9.99489129e-01
9.99543930e-01
9.99596402e-01
9.99646432e-01
9.99693985e-01
9.99739092e-01
9.99781840e-01
9.99822358e-01
9.99860807e-01
9.99897362e-01
9.99932204e-01
9.99965511e-01
9.99997445e-01
1.00002815e+00
1.00005775e+00
1.00008632e+00
1.00011396e+00
1.00014068e+00
1.00016652e+00
1.00019149e+00
1.00021557e+00
1.00023876e+00
1.00026103e+00
1.00028237e+00
1.00030277e+00
1.00032224e+00
1.00034080e+00
1.00035846e+00
1.00037529e+00
1.00039134e+00
1.00040669e+00
1.00042143e+00
1.00043566e+00
1.00044950e+00
1.00046306e+00
1.00047647e+00
1.00048985e+00
1.00050332e+00
1.00051702e+00
1.00053108e+00
1.00054561e+00
1.00056073e+00
1.00057659e+00
1.00059330e+00
1.00061098e+00
1.00062978e+00
1.00064981e+00
1.00067122e+00
1.00069414e+00
1.00071869e+00
1.00074499e+00
1.00077314e+00
1.00080325e+00
1.00083536e+00
1.00086951e+00
1.00090568e+00
1.00094382e+00
1.00098380e+00
1.00102545e+00
1.00106853e+00
1.00111272e+00
1.00115766e+00
1.00120290e+00
1.00124796e+00
1.00129229e+00
1.00133533e+00
1.00137649e+00
1.00141520e+00
1.00145089e+00
1.00148305e+00
1.00151123e+00
1.00153505e+00
1.00155424e+00
1.00156863e+00
1.00157817e+00
1.00158291e+00
1.00158305e+00
1.00157887e+00
1.00157076e+00
1.00155922e+00
1.00154478e+00
1.00152807e+00
1.00150971e+00
1.00149036e+00
1.00147067e+00
1.00145124e+00
1.00143266e+00
1.00141546e+00
1.00140005e+00
1.00138682e+00
1.00137580e+00
1.00136733e+00
9.98719557e-01
9.98713795e-01
9.98706192e-01
9.98697219e-01
9.98686894e-01
9.98675442e-01
9.98663119e-01
9.98650277e-01
9.98637307e-01
9.98624652e-01
9.98612783e-01
9.98602224e-01
9.98593509e-01
9.98587179e-01
9.98583773e-01
9.98583813e-01
9.98587777e-01
9.98596094e-01
9.98609121e-01
9.98627128e-01
9.98650287e-01
9.98678658e-01
9.98712189e-01
9.98750709e-01
9.98793935e-01
9.98841479e-01
9.98892861e-01
9.98947528e-01
9.99004872e-01
9.99064252e-01
9.99125017e-01
9.99186525e-01
9.99248167e-01
9.99309380e-01
9.99369660e-01
9.99428577e-01
9.99485772e-01
9.99540971e-01
9.99593972e-01
9.99644650e-01
9.99692947e-01
9.99738863e-01
9.99782448e-01
9.99823791e-01
9.99863011e-01
9.99900244e-01
9.99935635e-01
9.99969332e-01
1.00000147e+00
1.00003219e+00
1.00006160e+00
1.00008979e+00
1.00011686e+00
1.00014285e+00
1.00016783e+00
1.00019182e+00
1.00021487e+00
1.00023699e+00
1.00025820e+00
1.00027853e+00
1.00029802e+00
1.00031668e+00
1.00033458e+00
1.00035175e+00
1.00036826e+00
1.00038419e+00
1.00039960e+00
1.00041459e+00
1.00042923e+00
1.00044363e+00
1.00045788e+00
1.00047207e+00
1.00048629e+00
1.00050064e+00
1.00051520e+00
1.00053007e+00
1.00054534e+00
1.00056110e+00
1.00057747e+00
1.00059456e+00
1.00061248e+00
1.00063136e+00
1.00065134e+00
1.00067258e+00
1.00069522e+00
1.00071942e+00
1.00074534e+00
1.00077312e+00
1.00080289e+00
1.00083474e+00
1.00086875e+00
1.00090494e+00
1.00094330e+00
1.00098372e+00
1.00102608e+00
1.00107014e+00
1.00111561e+00
1.00116214e+00
1.00120928e+00
1.00125655e+00
1.00130338e+00
1.00134920e+00
1.00139340e+00
1.00143536e+00
1.00147448e+00
1.00151021e+00
1.00154205e+00
1.00156957e+00
1.00159244e+00
1.00161044e+00
1.00162348e+00
1.00163156e+00
1.00163483e+00
1.00163355e+00
1.00162810e+00
1.00161894e+00
1.00160661e+00
1.00159172e+00
1.00157493e+00
1.00155690e+00
1.00153831e+00
1.00151979e+00
1.00150195e+00
1.00148535e+00
1.00147044e+00
1.00145763e+00
1.00144696e+00
1.00143897e+00
9.98662893e-01
9.98657891e-01
9.98651202e-01
9.98643402e-01
9.98634518e-01
9.98624755e-01
9.98614355e-01
9.98603659e-01
9.98593029e-01
9.98582883e-01
9.98573677e-01
9.98565902e-01
9.98560055e-01
9.98556651e-01
9.98556194e-01
9.98559166e-01
9.98566008e-01
9.98577113e-01
9.98592797e-01
9.98613296e-01
9.98638750e-01
9.98669191e-01
9.98704544e-01
9.98744625e-01
9.98789145e-01
9.98837719e-01
9.98889881e-01
9.98945101e-01
9.99002802e-01
9.99062382e-01
9.99123232e-01
9.99184758e-01
9.99246396e-01
9.99307625e-01
9.99367979e-01
9.99427057e-01
9.99484521e-01
9.99540104e-01
9.99593603e-01
9.99644881e-01
9.99693856e-01
9.99740498e-01
9.99784822e-01
9.99826877e-01
9.99866743e-01
9.99904517e-01
9.99940310e-01
9.99974243e-01
1.00000643e+00
1.00003700e+00
1.00006606e+00
1.00009370e+00
1.00012004e+00
1.00014514e+00
1.00016910e+00
1.00019198e+00
1.00021385e+00
1.00023477e+00
1.00025481e+00
1.00027402e+00
1.00029248e+00
1.00031025e+00
1.00032739e+00
1.00034399e+00
1.00036012e+00
1.00037584e+00
1.00039125e+00
1.00040641e+00
1.00042141e+00
1.00043630e+00
1.00045117e+00
1.00046607e+00
1.00048106e+00
1.00049621e+00
1.00051156e+00
1.00052717e+00
1.00054311e+00
1.00055946e+00
1.00057630e+00
1.00059371e+00
1.00061183e+00
1.00063078e+00
1.00065072e+00
1.00067179e+00
1.00069420e+00
1.00071811e+00
1.00074371e+00
1.00077119e+00
1.00080070e+00
1.00083239e+00
1.00086637e+00
1.00090269e+00
1.00094136e+00
1.00098232e+00
1.00102546e+00
1.00107057e+00
1.00111738e+00
1.00116553e+00
1.00121458e+00
1.00126405e+00
1.00131337e+00
1.00136195e+00
1.00140915e+00
1.00145432e+00
1.00149685e+00
1.00153612e+00
1.00157160e+00
1.00160282e+00
1.00162940e+00
1.00165108e+00
1.00166769e+00
1.00167922e+00
1.00168577e+00
1.00168756e+00
1.00168495e+00
1.00167838e+00
1.00166838e+00
1.00165556e+00
1.00164059e+00
1.00162413e+00
1.00160688e+00
1.00158951e+00
1.00157264e+00
1.00155687e+00
1.00154266e+00
1.00153044e+00
1.00152030e+00
1.00151295e+00
9.98605786e-01
9.98601629e-01
9.98595928e-01
9.98589365e-01
9.98581983e-01
9.98573970e-01
9.98565557e-01
9.98557064e-01
9.98548831e-01
9.98541262e-01
9.98534784e-01
9.98529857e-01
9.98526953e-01
9.98526554e-01
9.98529128e-01
9.98535119e-01
9.98544934e-01
9.98558924e-01
9.98577371e-01
9.98600473e-01
9.98628335e-01
9.98660963e-01
9.98698259e-01
9.98740023e-01
9.98785958e-01
9.98835683e-01
9.98888743e-01
9.98944629e-01
9.99002793e-01
9.99062670e-01
9.99123694e-01
9.99185312e-01
9.99247007e-01
9.99308297e-01
9.99368755e-01
9.99428004e-01
9.99485729e-01
9.99541668e-01
9.99595618e-01
9.99647428e-01
9.99696995e-01
9.99744259e-01
9.99789202e-01
9.99831834e-01
9.99872197e-01
9.99910352e-01
9.99946379e-01
9.99980372e-01
1.00001243e+00
1.00004267e+00
1.00007119e+00
1.00009811e+00
1.00012353e+00
1.00014758e+00
1.00017035e+00
1.00019195e+00
1.00021249e+00
1.00023208e+00
1.00025081e+00
1.00026878e+00
1.00028610e+00
1.00030286e+00
1.00031916e+00
1.00033508e+00
1.00035073e+00