# vtk DataFile Version 2.0
LBM Flow Field - Timestep 470
ASCII
DATASET STRUCTURED_POINTS
DIMENSIONS 128 128 1
ORIGIN 0.0 0.0 0.0
SPACING 1.0 1.0 1.0
POINT_DATA 16384
SCALARS density double 1
LOOKUP_TABLE default
1.00591493e+00
1.00590803e+00
1.00589532e+00
1.00587558e+00
1.00584754e+00
1.00580983e+00
1.00576051e+00
1.00569757e+00
1.00561901e+00
1.00552283e+00
1.00540724e+00
1.00527085e+00
1.00511282e+00
1.00493299e+00
1.00473205e+00
1.00451157e+00
1.00427404e+00
1.00402278e+00
1.00376183e+00
1.00349574e+00
1.00322933e+00
1.00296744e+00
1.00271461e+00
1.00247488e+00
1.00225150e+00
1.00204685e+00
1.00186234e+00
1.00169840e+00
1.00155459e+00
1.00142972e+00
1.00132208e+00
1.00122959e+00
1.00115004e+00
1.00108126e+00
1.00102125e+00
1.00096826e+00
1.00092085e+00
1.00087785e+00
1.00083839e+00
1.00080179e+00
1.00076755e+00
1.00073529e+00
1.00070469e+00
1.00067549e+00
1.00064747e+00
1.00062042e+00
1.00059418e+00
1.00056859e+00
1.00054354e+00
1.00051892e+00
1.00049466e+00
1.00047069e+00
1.00044698e+00
1.00042345e+00
1.00040007e+00
1.00037678e+00
1.00035350e+00
1.00033017e+00
1.00030672e+00
1.00028308e+00
1.00025918e+00
1.00023497e+00
1.00021038e+00
1.00018539e+00
1.00015995e+00
1.00013404e+00
1.00010762e+00
1.00008067e+00
1.00005314e+00
1.00002501e+00
9.99996214e-01
9.99966707e-01
9.99936433e-01
9.99905336e-01
9.99873367e-01
9.99840484e-01
9.99806651e-01
9.99771840e-01
9.99736023e-01
9.99699165e-01
9.99661218e-01
9.99622110e-01
9.99581739e-01
9.99539967e-01
9.99496621e-01
9.99451487e-01
9.99404315e-01
9.99354812e-01
9.99302635e-01
9.99247370e-01
9.99188501e-01
9.99125370e-01
9.99057129e-01
9.98982697e-01
9.98900724e-01
9.98809595e-01
9.98707465e-01
9.98592356e-01
9.98462298e-01
9.98315533e-01
9.98150736e-01
9.97967249e-01
9.97765290e-01
9.97546090e-01
9.97311953e-01
9.97066196e-01
9.96812992e-01
9.96557108e-01
9.96303588e-01
9.96057400e-01
9.95823106e-01
9.95604581e-01
9.95404805e-01
9.95225760e-01
9.95068413e-01
9.94932793e-01
9.94818107e-01
9.94722928e-01
9.94645400e-01
9.94583421e-01
9.94534762e-01
9.94497273e-01
9.94469023e-01
9.94448223e-01
9.94433149e-01
9.94422759e-01
9.94416678e-01
9.94413594e-01
1.00591064e+00
1.00590339e+00
1.00588977e+00
1.00586880e+00
1.00583920e+00
1.00579957e+00
1.00574806e+00
1.00568279e+00
1.00560179e+00
1.00550322e+00
1.00538542e+00
1.00524718e+00
1.00508783e+00
1.00490738e+00
1.00470664e+00
1.00448727e+00
1.00425179e+00
1.00400346e+00
1.00374622e+00
1.00348443e+00
1.00322270e+00
1.00296559e+00
1.00271740e+00
1.00248187e+00
1.00226208e+00
1.00206023e+00
1.00187764e+00
1.00171475e+00
1.00157116e+00
1.00144583e+00
1.00133718e+00
1.00124333e+00
1.00116225e+00
1.00109191e+00
1.00103043e+00
1.00097614e+00
1.00092764e+00
1.00088375e+00
1.00084359e+00
1.00080643e+00
1.00077174e+00
1.00073910e+00
1.00070817e+00
1.00067866e+00
1.00065034e+00
1.00062301e+00
1.00059650e+00
1.00057066e+00
1.00054537e+00
1.00052054e+00
1.00049608e+00
1.00047193e+00
1.00044803e+00
1.00042434e+00
1.00040079e+00
1.00037733e+00
1.00035389e+00
1.00033040e+00
1.00030680e+00
1.00028301e+00
1.00025897e+00
1.00023463e+00
1.00020993e+00
1.00018483e+00
1.00015929e+00
1.00013329e+00
1.00010678e+00
1.00007974e+00
1.00005213e+00
1.00002390e+00
9.99995017e-01
9.99965421e-01
9.99935059e-01
9.99903878e-01
9.99871826e-01
9.99838861e-01
9.99804944e-01
9.99770040e-01
9.99734117e-01
9.99697135e-01
9.99659040e-01
9.99619758e-01
9.99579186e-01
9.99537187e-01
9.99493589e-01
9.99448179e-01
9.99400703e-01
9.99350859e-01
9.99298285e-01
9.99242541e-01
9.99183079e-01
9.99119209e-01
9.99050061e-01
9.98974549e-01
9.98891356e-01
9.98798936e-01
9.98695564e-01
9.98579419e-01
9.98448720e-01
9.98301900e-01
9.98137806e-01
9.97955901e-01
9.97756443e-01
9.97540611e-01
9.97310554e-01
9.97069355e-01
9.96820885e-01
9.96569591e-01
9.96320205e-01
9.96077437e-01
9.95845664e-01
9.95628665e-01
9.95429417e-01
9.95249980e-01
9.95091462e-01
9.94954065e-01
9.94837196e-01
9.94739624e-01
9.94659651e-01
9.94595306e-01
9.94544469e-01
9.94505063e-01
9.94475118e-01
9.94452886e-01
9.94436779e-01
9.94425656e-01
9.94418842e-01
9.94415209e-01
1.00590575e+00
1.00589798e+00
1.00588349e+00
1.00586109e+00
1.00582973e+00
1.00578787e+00
1.00573392e+00
1.00566605e+00
1.00558235e+00
1.00548110e+00
1.00536087e+00
1.00522060e+00
1.00505981e+00
1.00487871e+00
1.00467824e+00
1.00446015e+00
1.00422699e+00
1.00398197e+00
1.00372891e+00
1.00347197e+00
1.00321552e+00
1.00296383e+00
1.00272088e+00
1.00249016e+00
1.00227447e+00
1.00207587e+00
1.00189557e+00
1.00173396e+00
1.00159075e+00
1.00146498e+00
1.00135529e+00
1.00125996e+00
1.00117718e+00
1.00110508e+00
1.00104193e+00
1.00098614e+00
1.00093634e+00
1.00089140e+00
1.00085038e+00
1.00081255e+00
1.00077730e+00
1.00074419e+00
1.00071284e+00
1.00068295e+00
1.00065427e+00
1.00062658e+00
1.00059973e+00
1.00057355e+00
1.00054794e+00
1.00052279e+00
1.00049804e+00
1.00047361e+00
1.00044945e+00
1.00042550e+00
1.00040171e+00
1.00037801e+00
1.00035434e+00
1.00033064e+00
1.00030683e+00
1.00028285e+00
1.00025864e+00
1.00023413e+00
1.00020928e+00
1.00018405e+00
1.00015839e+00
1.00013226e+00
1.00010565e+00
1.00007850e+00
1.00005079e+00
1.00002246e+00
9.99993477e-01
9.99963782e-01
9.99933320e-01
9.99902039e-01
9.99869884e-01
9.99836811e-01
9.99802776e-01
9.99767743e-01
9.99731672e-01
9.99694520e-01
9.99656231e-01
9.99616729e-01
9.99575911e-01
9.99533641e-01
9.99489746e-01
9.99444014e-01
9.99396183e-01
9.99345938e-01
9.99292896e-01
9.99236586e-01
9.99176429e-01
9.99111702e-01
9.99041517e-01
9.98964793e-01
9.98880252e-01
9.98786435e-01
9.98681745e-01
9.98564533e-01
9.98433219e-01
9.98286436e-01
9.98123206e-01
9.97943112e-01
9.97746448e-01
9.97534328e-01
9.97308740e-01
9.97072510e-01
9.96829196e-01
9.96582902e-01
9.96338034e-01
9.96099023e-01
9.95870050e-01
9.95654786e-01
9.95456201e-01
9.95276433e-01
9.95116732e-01
9.94977486e-01
9.94858310e-01
9.94758183e-01
9.94675581e-01
9.94608662e-01
9.94555458e-01
9.94513957e-01
9.94482147e-01
9.94458274e-01
9.94441036e-01
9.94429082e-01
9.94421275e-01
9.94417062e-01
1.00589986e+00
1.00589124e+00
1.00587524e+00
1.00585099e+00
1.00581741e+00
1.00577299e+00
1.00571617e+00
1.00564519e+00
1.00555837e+00
1.00545417e+00
1.00533134e+00
1.00518907e+00
1.00502708e+00
1.00484578e+00
1.00464626e+00
1.00443034e+00
1.00420055e+00
1.00396003e+00
1.00371239e+00
1.00346155e+00
1.00321154e+00
1.00296628e+00
1.00272941e+00
1.00250407e+00
1.00229283e+00
1.00209754e+00
1.00191934e+00
1.00175866e+00
1.00161529e+00
1.00148849e+00
1.00137709e+00
1.00127965e+00
1.00119457e+00
1.00112020e+00
1.00105493e+00
1.00099730e+00
1.00094596e+00
1.00089977e+00
1.00085777e+00
1.00081917e+00
1.00078332e+00
1.00074971e+00
1.00071793e+00
1.00068763e+00
1.00065857e+00
1.00063051e+00
1.00060328e+00
1.00057674e+00
1.00055077e+00
1.00052527e+00
1.00050018e+00
1.00047542e+00
1.00045094e+00
1.00042669e+00
1.00040260e+00
1.00037862e+00
1.00035469e+00
1.00033073e+00
1.00030669e+00
1.00028250e+00
1.00025809e+00
1.00023341e+00
1.00020840e+00
1.00018302e+00
1.00015723e+00
1.00013100e+00
1.00010427e+00
1.00007703e+00
1.00004922e+00
1.00002081e+00
9.99991733e-01
9.99961947e-01
9.99931394e-01
9.99900017e-01
9.99867763e-01
9.99834583e-01
9.99800431e-01
9.99765268e-01
9.99729050e-01
9.99691732e-01
9.99653253e-01
9.99613536e-01
9.99572478e-01
9.99529942e-01
9.99485755e-01
9.99439698e-01
9.99391501e-01
9.99340829e-01
9.99287271e-01
9.99230319e-01
9.99169349e-01
9.99103597e-01
9.99032141e-01
9.98953897e-01
9.98867620e-01
9.98771934e-01
9.98665385e-01
9.98546519e-01
9.98413986e-01
9.98266672e-01
9.98103830e-01
9.97925219e-01
9.97731225e-01
9.97522941e-01
9.97302212e-01
9.97071609e-01
9.96834343e-01
9.96594123e-01
9.96354953e-01
9.96120904e-01
9.95895873e-01
9.95683357e-01
9.95486261e-01
9.95306764e-01
9.95146252e-01
9.95005311e-01
9.94883788e-01
9.94780890e-01
9.94695333e-01
9.94625467e-01
9.94569437e-01
9.94525334e-01
9.94491309e-01
9.94465592e-01
9.94446707e-01
9.94433429e-01
9.94424712e-01
9.94419924e-01
1.00589217e+00
1.00588243e+00
1.00586493e+00
1.00583860e+00
1.00580236e+00
1.00575491e+00
1.00569469e+00
1.00562013e+00
1.00552974e+00
1.00542221e+00
1.00529651e+00
1.00515211e+00
1.00498901e+00
1.00480780e+00
1.00460973e+00
1.00439672e+00
1.00417126e+00
1.00393636e+00
1.00369541e+00
1.00345199e+00
1.00320974e+00
1.00297217e+00
1.00274248e+00
1.00252346e+00
1.00231735e+00
1.00212581e+00
1.00194989e+00
1.00179005e+00
1.00164624e+00
1.00151793e+00
1.00140425e+00
1.00130403e+00
1.00121596e+00
1.00113864e+00
1.00107065e+00
1.00101062e+00
1.00095728e+00
1.00090948e+00
1.00086621e+00
1.00082663e+00
1.00079001e+00
1.00075578e+00
1.00072347e+00
1.00069270e+00
1.00066319e+00
1.00063470e+00
1.00060705e+00
1.00058009e+00
1.00055371e+00
1.00052782e+00
1.00050234e+00
1.00047721e+00
1.00045237e+00
1.00042777e+00
1.00040336e+00
1.00037907e+00
1.00035484e+00
1.00033061e+00
1.00030632e+00
1.00028189e+00
1.00025728e+00
1.00023241e+00
1.00020725e+00
1.00018173e+00
1.00015582e+00
1.00012948e+00
1.00010267e+00
1.00007534e+00
1.00004745e+00
1.00001896e+00
9.99989806e-01
9.99959943e-01
9.99929310e-01
9.99897849e-01
9.99865504e-01
9.99832224e-01
9.99797960e-01
9.99762667e-01
9.99726299e-01
9.99688805e-01
9.99650122e-01
9.99610171e-01
9.99568847e-01
9.99526011e-01
9.99481486e-01
9.99435046e-01
9.99386403e-01
9.99335197e-01
9.99280978e-01
9.99223187e-01
9.99161143e-01
9.99094029e-01
9.99020887e-01
9.98940626e-01
9.98852048e-01
9.98753882e-01
9.98644851e-01
9.98523738e-01
9.98389482e-01
9.98241271e-01
9.98078640e-01
9.97901567e-01
9.97710551e-01
9.97506671e-01
9.97291610e-01
9.97067642e-01
9.96837577e-01
9.96604657e-01
9.96372412e-01
9.96144480e-01
9.95924413e-01
9.95715482e-01
9.95520497e-01
9.95341670e-01
9.95180524e-01
9.95037870e-01
9.94913815e-01
9.94807838e-01
9.94718920e-01
9.94645655e-01
9.94586359e-01
9.94539222e-01
9.94502521e-01
9.94474589e-01
9.94453806e-01
9.94439000e-01
9.94429298e-01
9.94423764e-01
1.00588248e+00
1.00587160e+00
1.00585230e+00
1.00582359e+00
1.00578439e+00
1.00573345e+00
1.00566941e+00
1.00559087e+00
1.00549655e+00
1.00538538e+00
1.00525666e+00
1.00511014e+00
1.00494607e+00
1.00476529e+00
1.00456922e+00
1.00435983e+00
1.00413957e+00
1.00391128e+00
1.00367808e+00
1.00344318e+00
1.00320977e+00
1.00298089e+00
1.00275929e+00
1.00254732e+00
1.00234692e+00
1.00215952e+00
1.00198610e+00
1.00182716e+00
1.00168280e+00
1.00155276e+00
1.00143644e+00
1.00133304e+00
1.00124154e+00
1.00116080e+00
1.00108961e+00
1.00102673e+00
1.00097096e+00
1.00092116e+00
1.00087630e+00
1.00083545e+00
1.00079783e+00
1.00076279e+00
1.00072979e+00
1.00069843e+00
1.00066837e+00
1.00063936e+00
1.00061120e+00
1.00058375e+00
1.00055688e+00
1.00053052e+00
1.00050459e+00
1.00047903e+00
1.00045378e+00
1.00042878e+00
1.00040399e+00
1.00037935e+00
1.00035480e+00
1.00033027e+00
1.00030571e+00
1.00028104e+00
1.00025620e+00
1.00023115e+00
1.00020582e+00
1.00018016e+00
1.00015414e+00
1.00012770e+00
1.00010079e+00
1.00007339e+00
1.00004543e+00
1.00001687e+00
9.99987648e-01
9.99957713e-01
9.99927004e-01
9.99895458e-01
9.99863017e-01
9.99829627e-01
9.99795235e-01
9.99759791e-01
9.99723246e-01
9.99685544e-01
9.99646620e-01
9.99606391e-01
9.99564749e-01
9.99521552e-01
9.99476615e-01
9.99429697e-01
9.99380488e-01
9.99328594e-01
9.99273518e-01
9.99214648e-01
9.99151242e-01
9.99082431e-01
9.99007227e-01
9.98924545e-01
9.98833247e-01
9.98732191e-01
9.98620298e-01
9.98496615e-01
9.98360394e-01
9.98211149e-01
9.98048719e-01
9.97873319e-01
9.97685574e-01
9.97486551e-01
9.97277769e-01
9.97061191e-01
9.96839200e-01
9.96614534e-01
9.96390201e-01
9.96169356e-01
9.95955154e-01
9.95750591e-01
9.95558346e-01
9.95380642e-01
9.95219132e-01
9.95074844e-01
9.94948176e-01
9.94838918e-01
9.94746330e-01
9.94669261e-01
9.94606277e-01
9.94555750e-01
9.94515973e-01
9.94485376e-01
9.94462486e-01
9.94446055e-01
9.94435068e-01
9.94428700e-01
1.00587042e+00
1.00585838e+00
1.00583717e+00
1.00580584e+00
1.00576335e+00
1.00570859e+00
1.00564036e+00
1.00555748e+00
1.00545890e+00
1.00534389e+00
1.00521204e+00
1.00506341e+00
1.00489857e+00
1.00471858e+00
1.00452502e+00
1.00431992e+00
1.00410565e+00
1.00388488e+00
1.00366038e+00
1.00343497e+00
1.00321137e+00
1.00299208e+00
1.00277937e+00
1.00257515e+00
1.00238100e+00
1.00219814e+00
1.00202747e+00
1.00186953e+00
1.00172459e+00
1.00159266e+00
1.00147347e+00
1.00136656e+00
1.00127124e+00
1.00118666e+00
1.00111183e+00
1.00104567e+00
1.00098706e+00
1.00093489e+00
1.00088810e+00
1.00084569e+00
1.00080683e+00
1.00077079e+00
1.00073695e+00
1.00070486e+00
1.00067414e+00
1.00064451e+00
1.00061575e+00
1.00058773e+00
1.00056031e+00
1.00053341e+00
1.00050696e+00
1.00048090e+00
1.00045517e+00
1.00042973e+00
1.00040453e+00
1.00037950e+00
1.00035458e+00
1.00032973e+00
1.00030486e+00
1.00027993e+00
1.00025487e+00
1.00022962e+00
1.00020412e+00
1.00017832e+00
1.00015217e+00
1.00012563e+00
1.00009864e+00
1.00007116e+00
1.00004313e+00
1.00001451e+00
9.99985223e-01
9.99955218e-01
9.99924429e-01
9.99892793e-01
9.99860248e-01
9.99826734e-01
9.99792195e-01
9.99756578e-01
9.99719828e-01
9.99681885e-01
9.99642682e-01
9.99602132e-01
9.99560122e-01
9.99516504e-01
9.99471082e-01
9.99423595e-01
9.99373705e-01
9.99320975e-01
9.99264855e-01
9.99204672e-01
9.99139624e-01
9.99068792e-01
9.98991163e-01
9.98905673e-01
9.98811264e-01
9.98706943e-01
9.98591854e-01
9.98465336e-01
9.98326972e-01
9.98176624e-01
9.98014450e-01
9.97840909e-01
9.97656758e-01
9.97463049e-01
9.97261128e-01
9.97052635e-01
9.96839501e-01
9.96623932e-01
9.96408380e-01
9.96195476e-01
9.95987937e-01
9.95788449e-01
9.95599525e-01
9.95423372e-01
9.95261766e-01
9.95115959e-01
9.94986637e-01
9.94873923e-01
9.94777406e-01
9.94696219e-01
9.94629163e-01
9.94574836e-01
9.94531663e-01
9.94498112e-01
9.94472814e-01
9.94454545e-01
9.94442213e-01
9.94435052e-01
1.00585577e+00
1.00584256e+00
1.00581933e+00
1.00578514e+00
1.00573908e+00
1.00568020e+00
1.00560747e+00
1.00551995e+00
1.00541692e+00
1.00529793e+00
1.00516293e+00
1.00501232e+00
1.00484696e+00
1.00466816e+00
1.00447765e+00
1.00427748e+00
1.00406995e+00
1.00385748e+00
1.00364252e+00
1.00342744e+00
1.00321443e+00
1.00300547e+00
1.00280230e+00
1.00260639e+00
1.00241896e+00
1.00224101e+00
1.00207334e+00
1.00191656e+00
1.00177111e+00
1.00163725e+00
1.00151507e+00
1.00140444e+00
1.00130502e+00
1.00121625e+00
1.00113740e+00
1.00106756e+00
1.00100571e+00
1.00095078e+00
1.00090168e+00
1.00085741e+00
1.00081703e+00
1.00077974e+00
1.00074488e+00
1.00071191e+00
1.00068040e+00
1.00065005e+00
1.00062062e+00
1.00059194e+00
1.00056390e+00
1.00053639e+00
1.00050937e+00
1.00048275e+00
1.00045651e+00
1.00043058e+00
1.00040491e+00
1.00037946e+00
1.00035416e+00
1.00032895e+00
1.00030377e+00
1.00027856e+00
1.00025326e+00
1.00022780e+00
1.00020213e+00
1.00017619e+00
1.00014992e+00
1.00012328e+00
1.00009622e+00
1.00006867e+00
1.00004058e+00
1.00001189e+00
9.99982547e-01
9.99952474e-01
9.99921607e-01
9.99889879e-01
9.99857223e-01
9.99823576e-01
9.99788877e-01
9.99753068e-01
9.99716089e-01
9.99677878e-01
9.99638363e-01
9.99597453e-01
9.99555028e-01
9.99510930e-01
9.99464946e-01
9.99416790e-01
9.99366086e-01
9.99312347e-01
9.99254967e-01
9.99193207e-01
9.99126208e-01
9.99053008e-01
9.98972588e-01
9.98883924e-01
9.98786058e-01
9.98678173e-01
9.98559656e-01
9.98430152e-01
9.98289589e-01
9.98138179e-01
9.97976399e-01
9.97804947e-01
9.97624706e-01
9.97436710e-01
9.97242127e-01
9.97042267e-01
9.96838605e-01
9.96632804e-01
9.96426741e-01
9.96222500e-01
9.96022330e-01
9.95828571e-01
9.95643540e-01
9.95469398e-01
9.95308019e-01
9.95160878e-01
9.95028954e-01
9.94912699e-01
9.94812055e-01
9.94726491e-01
9.94655065e-01
9.94596572e-01
9.94549662e-01
9.94512906e-01
9.94484932e-01
9.94464587e-01
9.94450869e-01
9.94442932e-01
1.00583835e+00
1.00582392e+00
1.00579856e+00
1.00576132e+00
1.00571147e+00
1.00564821e+00
1.00557074e+00
1.00547839e+00
1.00537076e+00
1.00524775e+00
1.00510966e+00
1.00495725e+00
1.00479167e+00
1.00461448e+00
1.00442752e+00
1.00423289e+00
1.00403274e+00
1.00382927e+00
1.00362454e+00
1.00342045e+00
1.00321867e+00
1.00302065e+00
1.00282757e+00
1.00264046e+00
1.00246018e+00
1.00228751e+00
1.00212316e+00
1.00196778e+00
1.00182198e+00
1.00168629e+00
1.00156112e+00
1.00144667e+00
1.00134296e+00
1.00124974e+00
1.00116653e+00
1.00109262e+00
1.00102710e+00
1.00096898e+00
1.00091719e+00
1.00087067e+00
1.00082845e+00
1.00078966e+00
1.00075355e+00
1.00071952e+00
1.00068709e+00
1.00065590e+00
1.00062570e+00
1.00059629e+00
1.00056755e+00
1.00053938e+00
1.00051172e+00
1.00048451e+00
1.00045770e+00
1.00043124e+00
1.00040508e+00
1.00037918e+00
1.00035347e+00
1.00032790e+00
1.00030240e+00
1.00027690e+00
1.00025135e+00
1.00022569e+00
1.00019984e+00
1.00017376e+00
1.00014739e+00
1.00012066e+00
1.00009352e+00
1.00006591e+00
1.00003777e+00
1.00000904e+00
9.99979642e-01
9.99949510e-01
9.99918571e-01
9.99886754e-01
9.99853987e-01
9.99820201e-01
9.99785332e-01
9.99749315e-01
9.99712087e-01
9.99673583e-01
9.99633723e-01
9.99592411e-01
9.99549520e-01
9.99504875e-01
9.99458240e-01
9.99409295e-01
9.99357619e-01
9.99302670e-01
9.99243777e-01
9.99180141e-01
9.99110849e-01
9.99034914e-01
9.98951327e-01
9.98859132e-01
9.98757500e-01
9.98645813e-01
9.98523723e-01
9.98391192e-01
9.98248494e-01
9.98096185e-01
9.97935043e-01
9.97765990e-01
9.97590018e-01
9.97408129e-01
9.97221308e-01
9.97030534e-01
9.96836826e-01
9.96641310e-01
9.96445287e-01
9.96250283e-01
9.96058063e-01
9.95870597e-01
9.95689975e-01
9.95518289e-01
9.95357486e-01
9.95209236e-01
9.95074815e-01
9.94955016e-01
9.94850130e-01
9.94759972e-01
9.94683919e-01
9.94620999e-01
9.94570039e-01
9.94529778e-01
9.94498919e-01
9.94476341e-01
9.94461111e-01
9.94452345e-01
1.00581797e+00
1.00580229e+00
1.00577466e+00
1.00573424e+00
1.00568040e+00
1.00561256e+00
1.00553016e+00
1.00543287e+00
1.00532059e+00
1.00519359e+00
1.00505257e+00
1.00489862e+00
1.00473318e+00
1.00455803e+00
1.00437515e+00
1.00418660e+00
1.00399442e+00
1.00380051e+00
1.00360656e+00
1.00341398e+00
1.00322392e+00
1.00303726e+00
1.00285469e+00
1.00267677e+00
1.00250401e+00
1.00233697e+00
1.00217626e+00
1.00202259e+00
1.00187672e+00
1.00173940e+00
1.00161136e+00
1.00149313e+00
1.00138505e+00
1.00128721e+00
1.00119936e+00
1.00112102e+00
1.00105145e+00
1.00098971e+00
1.00093480e+00
1.00088564e+00
1.00084123e+00
1.00080062e+00
1.00076300e+00
1.00072770e+00
1.00069417e+00
1.00066202e+00
1.00063094e+00
1.00060072e+00
1.00057122e+00
1.00054233e+00
1.00051398e+00
1.00048612e+00
1.00045870e+00
1.00043168e+00
1.00040501e+00
1.00037863e+00
1.00035250e+00
1.00032655e+00
1.00030071e+00
1.00027493e+00
1.00024913e+00
1.00022326e+00
1.00019725e+00
1.00017103e+00
1.00014455e+00
1.00011775e+00
1.00009055e+00
1.00006290e+00
1.00003472e+00
1.00000595e+00
9.99976512e-01
9.99946331e-01
9.99915330e-01
9.99883429e-01
9.99850552e-01
9.99816625e-01
9.99781577e-01
9.99745339e-01
9.99707844e-01
9.99669020e-01
9.99628782e-01
9.99587026e-01
9.99543609e-01
9.99498338e-01
9.99450945e-01
9.99401069e-01
9.99348235e-01
9.99291841e-01
9.99231153e-01
9.99165312e-01
9.99093368e-01
9.99014327e-01
9.98927219e-01
9.98831180e-01
9.98725542e-01
9.98609910e-01
9.98484214e-01
9.98348736e-01
9.98204088e-01
9.98051148e-01
9.97890970e-01
9.97724671e-01
9.97553328e-01
9.97377894e-01
9.97199168e-01
9.97017805e-01
9.96834383e-01
9.96649506e-01
9.96463911e-01
9.96278574e-01
9.96094772e-01
9.95914086e-01
9.95738356e-01
9.95569570e-01
9.95409722e-01
9.95260654e-01
9.95123911e-01
9.95000635e-01
9.94891478e-01
9.94796598e-01
9.94715707e-01
9.94648123e-01
9.94592867e-01
9.94548829e-01
9.94514864e-01
9.94489896e-01
9.94473020e-01
9.94463374e-01
1.00579445e+00
1.00577748e+00
1.00574749e+00
1.00570374e+00
1.00564577e+00
1.00557321e+00
1.00548581e+00
1.00538352e+00
1.00526663e+00
1.00513579e+00
1.00499206e+00
1.00483687e+00
1.00467198e+00
1.00449934e+00
1.00432102e+00
1.00413906e+00
1.00395532e+00
1.00377142e+00
1.00358865e+00
1.00340795e+00
1.00322992e+00
1.00305492e+00
1.00288314e+00
1.00271469e+00
1.00254978e+00
1.00238871e+00
1.00223203e+00
1.00208044e+00
1.00193485e+00
1.00179623e+00
1.00166556e+00
1.00154369e+00
1.00143129e+00
1.00132872e+00
1.00123604e+00
1.00115297e+00
1.00107896e+00
1.00101319e+00
1.00095472e+00
1.00090250e+00
1.00085549e+00
1.00081271e+00
1.00077329e+00
1.00073648e+00
1.00070168e+00
1.00066841e+00
1.00063634e+00
1.00060522e+00
1.00057487e+00
1.00054520e+00
1.00051612e+00
1.00048757e+00
1.00045951e+00
1.00043189e+00
1.00040468e+00
1.00037781e+00
1.00035123e+00
1.00032489e+00
1.00029871e+00
1.00027263e+00
1.00024658e+00
1.00022051e+00
1.00019433e+00
1.00016798e+00
1.00014141e+00
1.00011453e+00
1.00008728e+00
1.00005960e+00
1.00003139e+00
1.00000260e+00
9.99973139e-01
9.99942922e-01
9.99911867e-01
9.99879891e-01
9.99846908e-01
9.99812840e-01
9.99777609e-01
9.99741141e-01
9.99703362e-01
9.99664193e-01
9.99623544e-01
9.99581297e-01
9.99537290e-01
9.99491302e-01
9.99443027e-01
9.99392055e-01
9.99337851e-01
9.99279748e-01
9.99216950e-01
9.99148551e-01
9.99073581e-01
9.98991063e-01
9.98900095e-01
9.98799943e-01
9.98690126e-01
9.98570493e-01
9.98441266e-01
9.98303042e-01
9.98156748e-01
9.98003555e-01
9.97844755e-01
9.97681621e-01
9.97515281e-01
9.97346624e-01
9.97176256e-01
9.97004520e-01
9.96831576e-01
9.96657532e-01
9.96482594e-01
9.96307204e-01
9.96132157e-01
9.95958643e-01
9.95788227e-01
9.95622765e-01
9.95464264e-01
9.95314710e-01
9.95175895e-01
9.95049281e-01
9.94935888e-01
9.94836242e-01
9.94750381e-01
9.94677930e-01
9.94618163e-01
9.94570139e-01
9.94532850e-01
9.94505313e-01
9.94486680e-01
9.94476108e-01
1.00576761e+00
1.00574930e+00
1.00571689e+00
1.00566971e+00
1.00560751e+00
1.00553017e+00
1.00543773e+00
1.00533049e+00
1.00520912e+00
1.00507466e+00
1.00492853e+00
1.00477250e+00
1.00460859e+00
1.00443892e+00
1.00426564e+00
1.00409070e+00
1.00391580e+00
1.00374224e+00
1.00357091e+00
1.00340229e+00
1.00323646e+00
1.00307327e+00
1.00291243e+00
1.00275366e+00
1.00259684e+00
1.00244207e+00
1.00228979e+00
1.00214072e+00
1.00199585e+00
1.00185633e+00
1.00172339e+00
1.00159815e+00
1.00148157e+00
1.00137429e+00
1.00127665e+00
1.00118862e+00
1.00110982e+00
1.00103962e+00
1.00097715e+00
1.00092142e+00
1.00087140e+00
1.00082608e+00
1.00078453e+00
1.00074594e+00
1.00070964e+00
1.00067509e+00
1.00064190e+00
1.00060978e+00
1.00057852e+00
1.00054800e+00
1.00051813e+00
1.00048886e+00
1.00046012e+00
1.00043188e+00
1.00040410e+00
1.00037672e+00
1.00034968e+00
1.00032293e+00
1.00029639e+00
1.00027001e+00
1.00024371e+00
1.00021742e+00
1.00019107e+00
1.00016460e+00
1.00013793e+00
1.00011099e+00
1.00008370e+00
1.00005599e+00
1.00002777e+00
9.99998969e-01
9.99969492e-01
9.99939251e-01
9.99908155e-01
9.99876112e-01
9.99843030e-01
9.99808823e-01
9.99773407e-01
9.99736701e-01
9.99698625e-01
9.99659092e-01
9.99617998e-01
9.99575209e-01
9.99530538e-01
9.99483729e-01
9.99434429e-01
9.99382170e-01
9.99326352e-01
9.99266246e-01
9.99200999e-01
9.99129674e-01
9.99051302e-01
9.98964953e-01
9.98869829e-01
9.98765357e-01
9.98651273e-01
9.98527689e-01
9.98395118e-01
9.98254459e-01
9.98106929e-01
9.97953950e-01
9.97797003e-01
9.97637473e-01
9.97476505e-01
9.97314901e-01
9.97153072e-01
9.96991064e-01
9.96828652e-01
9.96665488e-01
9.96501283e-01
9.96335980e-01
9.96169908e-01
9.96003865e-01
9.95839130e-01
9.95677399e-01
9.95520651e-01
9.95370981e-01
9.95230402e-01
9.95100670e-01
9.94983156e-01
9.94878760e-01
9.94787871e-01
9.94710419e-01
9.94645957e-01
9.94593759e-01
9.94552961e-01
9.94522689e-01
9.94502183e-01
9.94490617e-01
1.00573728e+00
1.00571761e+00
1.00568271e+00
1.00563205e+00
1.00556558e+00
1.00548345e+00
1.00538603e+00
1.00527398e+00
1.00514835e+00
1.00501056e+00
1.00486242e+00
1.00470599e+00
1.00454353e+00
1.00437731e+00
1.00420950e+00
1.00404197e+00
1.00387620e+00
1.00371319e+00
1.00355343e+00
1.00339693e+00
1.00324330e+00
1.00309193e+00
1.00294207e+00
1.00279309e+00
1.00264455e+00
1.00249638e+00
1.00234889e+00
1.00220280e+00
1.00205916e+00
1.00191927e+00
1.00178451e+00
1.00165627e+00
1.00153575e+00
1.00142387e+00
1.00132124e+00
1.00122807e+00
1.00114421e+00
1.00106920e+00
1.00100230e+00
1.00094262e+00
1.00088915e+00
1.00084089e+00
1.00079685e+00
1.00075618e+00
1.00071813e+00
1.00068211e+00
1.00064766e+00
1.00061442e+00
1.00058217e+00
1.00055075e+00
1.00052005e+00
1.00049001e+00
1.00046056e+00
1.00043167e+00
1.00040329e+00
1.00037537e+00
1.00034786e+00
1.00032068e+00
1.00029378e+00
1.00026708e+00
1.00024051e+00
1.00021400e+00
1.00018748e+00
1.00016088e+00
1.00013411e+00
1.00010710e+00
1.00007977e+00
1.00005204e+00
1.00002382e+00
9.99995012e-01
9.99965532e-01
9.99935278e-01
9.99904150e-01
9.99872049e-01
9.99838875e-01
9.99804534e-01
9.99768934e-01
9.99731988e-01
9.99693604e-01
9.99653686e-01
9.99612113e-01
9.99568727e-01
9.99523310e-01
9.99475560e-01
9.99425068e-01
9.99371304e-01
9.99313602e-01
9.99251170e-01
9.99183115e-01
9.99108486e-01
9.99026343e-01
9.98935839e-01
9.98836314e-01
9.98727388e-01
9.98609041e-01
9.98481658e-01
9.98346041e-01
9.98203370e-01
9.98055112e-01
9.97902892e-01
9.97748328e-01
9.97592865e-01
9.97437627e-01
9.97283306e-01
9.97130119e-01
9.96977836e-01
9.96825884e-01
9.96673506e-01
9.96519965e-01
9.96364750e-01
9.96207752e-01
9.96049385e-01
9.95890632e-01
9.95733003e-01
9.95578419e-01
9.95429036e-01
9.95287049e-01
9.95154487e-01
9.95033049e-01
9.94923993e-01
9.94828076e-01
9.94745557e-01
9.94676272e-01
9.94619736e-01
9.94575268e-01
9.94542123e-01
9.94519627e-01
9.94506994e-01
1.00570328e+00
1.00568222e+00
1.00564481e+00
1.00559066e+00
1.00551994e+00
1.00543309e+00
1.00533082e+00
1.00521418e+00
1.00508460e+00
1.00494388e+00
1.00479418e+00
1.00463784e+00
1.00447733e+00
1.00431503e+00
1.00415309e+00
1.00399328e+00
1.00383685e+00
1.00368448e+00
1.00353627e+00
1.00339180e+00
1.00325026e+00
1.00311057e+00
1.00297162e+00
1.00283243e+00
1.00269232e+00
1.00255100e+00
1.00240870e+00
1.00226608e+00
1.00212422e+00
1.00198451e+00
1.00184849e+00
1.00171772e+00
1.00159361e+00
1.00147735e+00
1.00136978e+00
1.00127139e+00
1.00118225e+00
1.00110210e+00
1.00103039e+00
1.00096632e+00
1.00090896e+00
1.00085732e+00
1.00081041e+00
1.00076733e+00
1.00072727e+00
1.00068956e+00
1.00065367e+00
1.00061920e+00
1.00058587e+00
1.00055348e+00
1.00052190e+00
1.00049105e+00
1.00046087e+00
1.00043130e+00
1.00040230e+00
1.00037382e+00
1.00034580e+00
1.00031818e+00
1.00029089e+00
1.00026385e+00
1.00023701e+00
1.00021027e+00
1.00018356e+00
1.00015681e+00
1.00012993e+00
1.00010285e+00
1.00007548e+00
1.00004772e+00
1.00001949e+00
9.99990688e-01
9.99961209e-01
9.99930948e-01
9.99899796e-01
9.99867644e-01
9.99834386e-01
9.99799917e-01
9.99764137e-01
9.99726948e-01
9.99688249e-01
9.99647925e-01
9.99605836e-01
9.99561791e-01
9.99515530e-01
9.99466699e-01
9.99414826e-01
9.99359313e-01
9.99299428e-01
9.99234329e-01
9.99163096e-01
9.99084791e-01
9.98998535e-01
9.98903598e-01
9.98799496e-01
9.98686073e-01
9.98563568e-01
9.98432648e-01
9.98294391e-01
9.98150226e-01
9.98001828e-01
9.97850968e-01
9.97699344e-01
9.97548412e-01
9.97399233e-01
9.97252372e-01
9.97107853e-01
9.96965194e-01
9.96823513e-01
9.96681700e-01
9.96538629e-01
9.96393378e-01
9.96245439e-01
9.96094861e-01
9.95942327e-01
9.95789138e-01
9.95637121e-01
9.95488452e-01
9.95345460e-01
9.95210413e-01
9.95085317e-01
9.94971772e-01
9.94870897e-01
9.94783298e-01
9.94709116e-01
9.94648123e-01
9.94599851e-01
9.94563709e-01
9.94539120e-01
9.94525361e-01
1.00566543e+00
1.00564298e+00
1.00560308e+00
1.00554547e+00
1.00547059e+00
1.00537917e+00
1.00527227e+00
1.00515134e+00
1.00501819e+00
1.00487501e+00
1.00472425e+00
1.00456854e+00
1.00441050e+00
1.00425257e+00
1.00409688e+00
1.00394503e+00
1.00379805e+00
1.00365629e+00
1.00351950e+00
1.00338685e+00
1.00325712e+00
1.00312888e+00
1.00300066e+00
1.00287119e+00
1.00273956e+00
1.00260532e+00
1.00246857e+00
1.00232991e+00
1.00219043e+00
1.00205153e+00
1.00191486e+00
1.00178210e+00
1.00165486e+00
1.00153453e+00
1.00142219e+00
1.00131858e+00
1.00122402e+00
1.00113848e+00
1.00106160e+00
1.00099273e+00
1.00093104e+00
1.00087560e+00
1.00082542e+00
1.00077957e+00
1.00073719e+00
1.00069755e+00
1.00066004e+00
1.00062420e+00
1.00058969e+00
1.00055626e+00
1.00052375e+00
1.00049205e+00
1.00046109e+00
1.00043082e+00
1.00040118e+00
1.00037211e+00
1.00034357e+00
1.00031548e+00
1.00028777e+00
1.00026038e+00
1.00023323e+00
1.00020623e+00
1.00017932e+00
1.00015240e+00
1.00012540e+00
1.00009823e+00
1.00007079e+00
1.00004300e+00
1.00001476e+00
9.99985950e-01
9.99956469e-01
9.99926200e-01
9.99895026e-01
9.99862828e-01
9.99829490e-01
9.99794897e-01
9.99758940e-01
9.99721508e-01
9.99682484e-01
9.99641733e-01
9.99599083e-01
9.99554306e-01
9.99507089e-01
9.99457016e-01
9.99403548e-01
9.99346015e-01
9.99283629e-01
9.99215507e-01
9.99140727e-01
9.99058393e-01
9.98967722e-01
9.98868139e-01
9.98759368e-01
9.98641502e-01
9.98515056e-01
9.98380970e-01
9.98240578e-01
9.98095523e-01
9.97947636e-01
9.97798776e-01
9.97650665e-01
9.97504714e-01
9.97361888e-01
9.97222605e-01
9.97086704e-01
9.96953475e-01
9.96821775e-01
9.96690196e-01
9.96557281e-01
9.96421758e-01
9.96282759e-01
9.96139993e-01
9.95993845e-01
9.95845392e-01
9.95696328e-01
9.95548810e-01
9.95405257e-01
9.95268126e-01
9.95139699e-01
9.95021907e-01
9.94916217e-01
9.94823588e-01
9.94744487e-01
9.94678968e-01
9.94626791e-01
9.94587547e-01
9.94560785e-01
9.94545848e-01
1.00562357e+00
1.00559975e+00
1.00555740e+00
1.00549643e+00
1.00541753e+00
1.00532175e+00
1.00521054e+00
1.00508571e+00
1.00494947e+00
1.00480435e+00
1.00465310e+00
1.00449858e+00
1.00434353e+00
1.00419042e+00
1.00404129e+00
1.00389759e+00
1.00376008e+00
1.00362882e+00
1.00350319e+00
1.00338201e+00
1.00326373e+00
1.00314657e+00
1.00302880e+00
1.00290890e+00
1.00278575e+00
1.00265877e+00
1.00252790e+00
1.00239370e+00
1.00225717e+00
1.00211975e+00
1.00198309e+00
1.00184896e+00
1.00171912e+00
1.00159513e+00
1.00147829e+00
1.00136957e+00
1.00126955e+00
1.00117845e+00
1.00109611e+00
1.00102207e+00
1.00095565e+00
1.00089597e+00
1.00084211e+00
1.00079311e+00
1.00074809e+00
1.00070624e+00
1.00066690e+00
1.00062953e+00
1.00059371e+00
1.00055915e+00
1.00052565e+00
1.00049307e+00
1.00046131e+00
1.00043030e+00
1.00039999e+00
1.00037031e+00
1.00034121e+00
1.00031263e+00
1.00028448e+00
1.00025670e+00
1.00022922e+00
1.00020194e+00
1.00017478e+00
1.00014767e+00
1.00012052e+00