# vtk DataFile Version 2.0
LBM Flow Field - Timestep 2230
ASCII
DATASET STRUCTURED_POINTS
DIMENSIONS 128 128 1
ORIGIN 0.0 0.0 0.0
SPACING 1.0 1.0 1.0
POINT_DATA 16384
SCALARS density double 1
LOOKUP_TABLE default
1.00115343e+00
1.00114560e+00
1.00113516e+00
1.00112972e+00
1.00112120e+00
1.00110892e+00
1.00109518e+00
1.00107992e+00
1.00106249e+00
1.00104321e+00
1.00102242e+00
1.00100016e+00
1.00097650e+00
1.00095164e+00
1.00092577e+00
1.00089903e+00
1.00087161e+00
1.00084369e+00
1.00081549e+00
1.00078718e+00
1.00075899e+00
1.00073110e+00
1.00070373e+00
1.00067707e+00
1.00065131e+00
1.00062666e+00
1.00060328e+00
1.00058133e+00
1.00056098e+00
1.00054235e+00
1.00052556e+00
1.00051069e+00
1.00049782e+00
1.00048698e+00
1.00047821e+00
1.00047148e+00
1.00046677e+00
1.00046400e+00
1.00046310e+00
1.00046396e+00
1.00046643e+00
1.00047038e+00
1.00047562e+00
1.00048198e+00
1.00048927e+00
1.00049728e+00
1.00050581e+00
1.00051468e+00
1.00052368e+00
1.00053263e+00
1.00054135e+00
1.00054971e+00
1.00055754e+00
1.00056474e+00
1.00057121e+00
1.00057687e+00
1.00058166e+00
1.00058556e+00
1.00058855e+00
1.00059063e+00
1.00059182e+00
1.00059216e+00
1.00059169e+00
1.00059046e+00
1.00058854e+00
1.00058598e+00
1.00058285e+00
1.00057920e+00
1.00057509e+00
1.00057057e+00
1.00056568e+00
1.00056044e+00
1.00055488e+00
1.00054902e+00
1.00054286e+00
1.00053640e+00
1.00052961e+00
1.00052249e+00
1.00051500e+00
1.00050712e+00
1.00049880e+00
1.00049000e+00
1.00048068e+00
1.00047080e+00
1.00046031e+00
1.00044916e+00
1.00043730e+00
1.00042470e+00
1.00041130e+00
1.00039705e+00
1.00038192e+00
1.00036585e+00
1.00034881e+00
1.00033075e+00
1.00031162e+00
1.00029140e+00
1.00027004e+00
1.00024752e+00
1.00022380e+00
1.00019886e+00
1.00017268e+00
1.00014527e+00
1.00011663e+00
1.00008679e+00
1.00005577e+00
1.00002363e+00
9.99990449e-01
9.99956326e-01
9.99921379e-01
9.99885753e-01
9.99849617e-01
9.99813167e-01
9.99776620e-01
9.99740220e-01
9.99704228e-01
9.99668914e-01
9.99634574e-01
9.99601542e-01
9.99570084e-01
9.99540443e-01
9.99513051e-01
9.99488356e-01
9.99466103e-01
9.99446461e-01
9.99431253e-01
9.99420342e-01
9.99406897e-01
9.99397340e-01
1.00114509e+00
1.00114229e+00
1.00113445e+00
1.00112761e+00
1.00111874e+00
1.00110732e+00
1.00109382e+00
1.00107853e+00
1.00106136e+00
1.00104242e+00
1.00102184e+00
1.00099979e+00
1.00097639e+00
1.00095180e+00
1.00092617e+00
1.00089969e+00
1.00087253e+00
1.00084487e+00
1.00081692e+00
1.00078887e+00
1.00076092e+00
1.00073327e+00
1.00070613e+00
1.00067969e+00
1.00065415e+00
1.00062969e+00
1.00060649e+00
1.00058471e+00
1.00056450e+00
1.00054600e+00
1.00052930e+00
1.00051452e+00
1.00050170e+00
1.00049090e+00
1.00048213e+00
1.00047539e+00
1.00047063e+00
1.00046781e+00
1.00046683e+00
1.00046758e+00
1.00046993e+00
1.00047374e+00
1.00047884e+00
1.00048504e+00
1.00049215e+00
1.00049999e+00
1.00050834e+00
1.00051702e+00
1.00052584e+00
1.00053460e+00
1.00054315e+00
1.00055132e+00
1.00055898e+00
1.00056601e+00
1.00057231e+00
1.00057780e+00
1.00058243e+00
1.00058617e+00
1.00058900e+00
1.00059093e+00
1.00059196e+00
1.00059214e+00
1.00059151e+00
1.00059013e+00
1.00058804e+00
1.00058531e+00
1.00058201e+00
1.00057818e+00
1.00057389e+00
1.00056918e+00
1.00056410e+00
1.00055867e+00
1.00055293e+00
1.00054688e+00
1.00054053e+00
1.00053388e+00
1.00052692e+00
1.00051963e+00
1.00051198e+00
1.00050394e+00
1.00049547e+00
1.00048655e+00
1.00047711e+00
1.00046713e+00
1.00045655e+00
1.00044533e+00
1.00043342e+00
1.00042078e+00
1.00040736e+00
1.00039310e+00
1.00037798e+00
1.00036194e+00
1.00034494e+00
1.00032693e+00
1.00030788e+00
1.00028774e+00
1.00026648e+00
1.00024407e+00
1.00022047e+00
1.00019566e+00
1.00016963e+00
1.00014238e+00
1.00011391e+00
1.00008425e+00
1.00005343e+00
1.00002150e+00
9.99988547e-01
9.99954663e-01
9.99919968e-01
9.99884609e-01
9.99848754e-01
9.99812598e-01
9.99776358e-01
9.99740274e-01
9.99704604e-01
9.99669630e-01
9.99635638e-01
9.99602932e-01
9.99571798e-01
9.99542568e-01
9.99515533e-01
9.99491001e-01
9.99469085e-01
9.99450247e-01
9.99434845e-01
9.99422958e-01
9.99411651e-01
9.99406420e-01
1.00113720e+00
1.00113741e+00
1.00113619e+00
1.00112778e+00
1.00111767e+00
1.00110721e+00
1.00109425e+00
1.00107885e+00
1.00106184e+00
1.00104320e+00
1.00102283e+00
1.00100096e+00
1.00097779e+00
1.00095342e+00
1.00092802e+00
1.00090176e+00
1.00087482e+00
1.00084740e+00
1.00081967e+00
1.00079185e+00
1.00076412e+00
1.00073669e+00
1.00070976e+00
1.00068352e+00
1.00065817e+00
1.00063388e+00
1.00061085e+00
1.00058921e+00
1.00056913e+00
1.00055074e+00
1.00053413e+00
1.00051941e+00
1.00050664e+00
1.00049586e+00
1.00048708e+00
1.00048031e+00
1.00047551e+00
1.00047261e+00
1.00047153e+00
1.00047217e+00
1.00047439e+00
1.00047804e+00
1.00048297e+00
1.00048898e+00
1.00049590e+00
1.00050353e+00
1.00051167e+00
1.00052012e+00
1.00052871e+00
1.00053724e+00
1.00054555e+00
1.00055348e+00
1.00056090e+00
1.00056768e+00
1.00057374e+00
1.00057899e+00
1.00058338e+00
1.00058688e+00
1.00058946e+00
1.00059114e+00
1.00059192e+00
1.00059185e+00
1.00059097e+00
1.00058933e+00
1.00058698e+00
1.00058400e+00
1.00058043e+00
1.00057634e+00
1.00057179e+00
1.00056682e+00
1.00056147e+00
1.00055579e+00
1.00054979e+00
1.00054350e+00
1.00053691e+00
1.00053003e+00
1.00052285e+00
1.00051535e+00
1.00050750e+00
1.00049928e+00
1.00049065e+00
1.00048158e+00
1.00047202e+00
1.00046193e+00
1.00045127e+00
1.00043998e+00
1.00042803e+00
1.00041537e+00
1.00040195e+00
1.00038772e+00
1.00037264e+00
1.00035666e+00
1.00033974e+00
1.00032184e+00
1.00030291e+00
1.00028290e+00
1.00026180e+00
1.00023955e+00
1.00021613e+00
1.00019152e+00
1.00016569e+00
1.00013866e+00
1.00011042e+00
1.00008099e+00
1.00005042e+00
1.00001875e+00
9.99986056e-01
9.99952445e-01
9.99918032e-01
9.99882961e-01
9.99847401e-01
9.99811546e-01
9.99775613e-01
9.99739839e-01
9.99704482e-01
9.99669826e-01
9.99636155e-01
9.99603743e-01
9.99572922e-01
9.99544057e-01
9.99517300e-01
9.99492859e-01
9.99471483e-01
9.99453463e-01
9.99437299e-01
9.99424123e-01
9.99418409e-01
9.99415645e-01
1.00114003e+00
1.00113946e+00
1.00113585e+00
1.00112864e+00
1.00112007e+00
1.00110916e+00
1.00109597e+00
1.00108099e+00
1.00106421e+00
1.00104561e+00
1.00102540e+00
1.00100374e+00
1.00098073e+00
1.00095653e+00
1.00093131e+00
1.00090523e+00
1.00087849e+00
1.00085125e+00
1.00082372e+00
1.00079609e+00
1.00076856e+00
1.00074132e+00
1.00071458e+00
1.00068853e+00
1.00066335e+00
1.00063924e+00
1.00061635e+00
1.00059486e+00
1.00057491e+00
1.00055661e+00
1.00054010e+00
1.00052544e+00
1.00051270e+00
1.00050194e+00
1.00049316e+00
1.00048635e+00
1.00048148e+00
1.00047849e+00
1.00047729e+00
1.00047778e+00
1.00047983e+00
1.00048330e+00
1.00048800e+00
1.00049378e+00
1.00050045e+00
1.00050781e+00
1.00051566e+00
1.00052383e+00
1.00053211e+00
1.00054033e+00
1.00054832e+00
1.00055593e+00
1.00056302e+00
1.00056948e+00
1.00057522e+00
1.00058014e+00
1.00058421e+00
1.00058738e+00
1.00058964e+00
1.00059099e+00
1.00059146e+00
1.00059107e+00
1.00058987e+00
1.00058790e+00
1.00058524e+00
1.00058194e+00
1.00057806e+00
1.00057365e+00
1.00056879e+00
1.00056351e+00
1.00055787e+00
1.00055189e+00
1.00054560e+00
1.00053902e+00
1.00053216e+00
1.00052502e+00
1.00051760e+00
1.00050986e+00
1.00050180e+00
1.00049339e+00
1.00048459e+00
1.00047536e+00
1.00046567e+00
1.00045547e+00
1.00044472e+00
1.00043337e+00
1.00042139e+00
1.00040871e+00
1.00039530e+00
1.00038111e+00
1.00036609e+00
1.00035020e+00
1.00033338e+00
1.00031561e+00
1.00029682e+00
1.00027698e+00
1.00025605e+00
1.00023399e+00
1.00021078e+00
1.00018639e+00
1.00016081e+00
1.00013401e+00
1.00010603e+00
1.00007686e+00
1.00004656e+00
1.00001517e+00
9.99982764e-01
9.99949445e-01
9.99915331e-01
9.99880563e-01
9.99845312e-01
9.99809769e-01
9.99774149e-01
9.99738693e-01
9.99703656e-01
9.99669309e-01
9.99635948e-01
9.99603869e-01
9.99573350e-01
9.99544710e-01
9.99518307e-01
9.99494320e-01
9.99472929e-01
9.99454721e-01
9.99439931e-01
9.99427695e-01
9.99420005e-01
9.99416618e-01
1.00114455e+00
1.00114277e+00
1.00113796e+00
1.00113236e+00
1.00112404e+00
1.00111253e+00
1.00109956e+00
1.00108493e+00
1.00106818e+00
1.00104963e+00
1.00102958e+00
1.00100806e+00
1.00098517e+00
1.00096111e+00
1.00093604e+00
1.00091012e+00
1.00088354e+00
1.00085647e+00
1.00082911e+00
1.00080166e+00
1.00077430e+00
1.00074725e+00
1.00072068e+00
1.00069480e+00
1.00066980e+00
1.00064585e+00
1.00062311e+00
1.00060176e+00
1.00058193e+00
1.00056374e+00
1.00054730e+00
1.00053270e+00
1.00052000e+00
1.00050924e+00
1.00050043e+00
1.00049356e+00
1.00048860e+00
1.00048549e+00
1.00048415e+00
1.00048446e+00
1.00048629e+00
1.00048951e+00
1.00049395e+00
1.00049944e+00
1.00050579e+00
1.00051281e+00
1.00052031e+00
1.00052810e+00
1.00053600e+00
1.00054383e+00
1.00055142e+00
1.00055863e+00
1.00056532e+00
1.00057137e+00
1.00057669e+00
1.00058121e+00
1.00058487e+00
1.00058764e+00
1.00058951e+00
1.00059047e+00
1.00059054e+00
1.00058977e+00
1.00058818e+00
1.00058584e+00
1.00058280e+00
1.00057913e+00
1.00057488e+00
1.00057011e+00
1.00056489e+00
1.00055926e+00
1.00055327e+00
1.00054696e+00
1.00054034e+00
1.00053345e+00
1.00052629e+00
1.00051886e+00
1.00051116e+00
1.00050318e+00
1.00049488e+00
1.00048625e+00
1.00047726e+00
1.00046787e+00
1.00045803e+00
1.00044772e+00
1.00043688e+00
1.00042547e+00
1.00041345e+00
1.00040077e+00
1.00038738e+00
1.00037324e+00
1.00035829e+00
1.00034250e+00
1.00032580e+00
1.00030817e+00
1.00028955e+00
1.00026989e+00
1.00024916e+00
1.00022733e+00
1.00020435e+00
1.00018021e+00
1.00015488e+00
1.00012836e+00
1.00010065e+00
1.00007178e+00
1.00004177e+00
1.00001068e+00
9.99978587e-01
9.99945584e-01
9.99911790e-01
9.99877348e-01
9.99842425e-01
9.99807213e-01
9.99771926e-01
9.99736802e-01
9.99702099e-01
9.99668080e-01
9.99635033e-01
9.99603281e-01
9.99573101e-01
9.99544713e-01
9.99518529e-01
9.99494989e-01
9.99473971e-01
9.99455459e-01
9.99440901e-01
9.99430084e-01
9.99421612e-01
9.99417255e-01
1.00114951e+00
1.00114810e+00
1.00114401e+00
1.00113765e+00
1.00112867e+00
1.00111791e+00
1.00110524e+00
1.00109033e+00
1.00107360e+00
1.00105528e+00
1.00103532e+00
1.00101384e+00
1.00099106e+00
1.00096713e+00
1.00094218e+00
1.00091639e+00
1.00088995e+00
1.00086303e+00
1.00083583e+00
1.00080854e+00
1.00078135e+00
1.00075446e+00
1.00072807e+00
1.00070236e+00
1.00067752e+00
1.00065373e+00
1.00063114e+00
1.00060993e+00
1.00059021e+00
1.00057212e+00
1.00055576e+00
1.00054121e+00
1.00052854e+00
1.00051777e+00
1.00050892e+00
1.00050197e+00
1.00049691e+00
1.00049365e+00
1.00049211e+00
1.00049220e+00
1.00049378e+00
1.00049671e+00
1.00050083e+00
1.00050596e+00
1.00051193e+00
1.00051855e+00
1.00052563e+00
1.00053298e+00
1.00054042e+00
1.00054778e+00
1.00055489e+00
1.00056161e+00
1.00056781e+00
1.00057338e+00
1.00057821e+00
1.00058224e+00
1.00058542e+00
1.00058771e+00
1.00058910e+00
1.00058959e+00
1.00058921e+00
1.00058797e+00
1.00058594e+00
1.00058315e+00
1.00057968e+00
1.00057557e+00
1.00057090e+00
1.00056572e+00
1.00056009e+00
1.00055406e+00
1.00054768e+00
1.00054099e+00
1.00053400e+00
1.00052676e+00
1.00051926e+00
1.00051151e+00
1.00050351e+00
1.00049524e+00
1.00048669e+00
1.00047782e+00
1.00046862e+00
1.00045905e+00
1.00044906e+00
1.00043862e+00
1.00042769e+00
1.00041622e+00
1.00040417e+00
1.00039148e+00
1.00037812e+00
1.00036404e+00
1.00034918e+00
1.00033349e+00
1.00031694e+00
1.00029947e+00
1.00028104e+00
1.00026159e+00
1.00024109e+00
1.00021950e+00
1.00019679e+00
1.00017292e+00
1.00014788e+00
1.00012166e+00
1.00009426e+00
1.00006571e+00
1.00003603e+00
1.00000527e+00
9.99973521e-01
9.99940863e-01
9.99907417e-01
9.99873326e-01
9.99838757e-01
9.99803899e-01
9.99768967e-01
9.99734192e-01
9.99699834e-01
9.99666169e-01
9.99633463e-01
9.99602004e-01
9.99572137e-01
9.99544149e-01
9.99518213e-01
9.99494686e-01
9.99474084e-01
9.99456294e-01
9.99441366e-01
9.99430095e-01
9.99422224e-01
9.99418201e-01
1.00115661e+00
1.00115506e+00
1.00115122e+00
1.00114440e+00
1.00113557e+00
1.00112505e+00
1.00111214e+00
1.00109722e+00
1.00108069e+00
1.00106241e+00
1.00104244e+00
1.00102105e+00
1.00099838e+00
1.00097453e+00
1.00094967e+00
1.00092400e+00
1.00089768e+00
1.00087090e+00
1.00084384e+00
1.00081670e+00
1.00078967e+00
1.00076295e+00
1.00073672e+00
1.00071118e+00
1.00068651e+00
1.00066287e+00
1.00064044e+00
1.00061936e+00
1.00059976e+00
1.00058177e+00
1.00056549e+00
1.00055098e+00
1.00053832e+00
1.00052753e+00
1.00051863e+00
1.00051160e+00
1.00050639e+00
1.00050296e+00
1.00050121e+00
1.00050104e+00
1.00050233e+00
1.00050492e+00
1.00050867e+00
1.00051339e+00
1.00051892e+00
1.00052507e+00
1.00053166e+00
1.00053849e+00
1.00054540e+00
1.00055221e+00
1.00055876e+00
1.00056492e+00
1.00057055e+00
1.00057554e+00
1.00057980e+00
1.00058327e+00
1.00058588e+00
1.00058761e+00
1.00058845e+00
1.00058840e+00
1.00058747e+00
1.00058571e+00
1.00058316e+00
1.00057986e+00
1.00057589e+00
1.00057129e+00
1.00056613e+00
1.00056048e+00
1.00055439e+00
1.00054791e+00
1.00054109e+00
1.00053396e+00
1.00052657e+00
1.00051893e+00
1.00051106e+00
1.00050295e+00
1.00049462e+00
1.00048604e+00
1.00047720e+00
1.00046808e+00
1.00045865e+00
1.00044888e+00
1.00043872e+00
1.00042815e+00
1.00041712e+00
1.00040559e+00
1.00039350e+00
1.00038082e+00
1.00036749e+00
1.00035348e+00
1.00033872e+00
1.00032316e+00
1.00030677e+00
1.00028949e+00
1.00027126e+00
1.00025205e+00
1.00023181e+00
1.00021049e+00
1.00018807e+00
1.00016451e+00
1.00013979e+00
1.00011390e+00
1.00008685e+00
1.00005864e+00
1.00002932e+00
9.99998935e-01
9.99967552e-01
9.99935268e-01
9.99902200e-01
9.99868489e-01
9.99834299e-01
9.99799819e-01
9.99765264e-01
9.99730864e-01
9.99696869e-01
9.99663556e-01
9.99631215e-01
9.99600105e-01
9.99570513e-01
9.99542820e-01
9.99517280e-01
9.99493987e-01
9.99473396e-01
9.99455969e-01
9.99441344e-01
9.99429855e-01
9.99422242e-01
9.99418176e-01
1.00116589e+00
1.00116397e+00
1.00115957e+00
1.00115296e+00
1.00114432e+00
1.00113340e+00
1.00112044e+00
1.00110577e+00
1.00108921e+00
1.00107083e+00
1.00105095e+00
1.00102965e+00
1.00100701e+00
1.00098322e+00
1.00095846e+00
1.00093289e+00
1.00090668e+00
1.00088002e+00
1.00085310e+00
1.00082610e+00
1.00079923e+00
1.00077267e+00
1.00074661e+00
1.00072123e+00
1.00069672e+00
1.00067325e+00
1.00065097e+00
1.00063003e+00
1.00061055e+00
1.00059266e+00
1.00057645e+00
1.00056200e+00
1.00054934e+00
1.00053853e+00
1.00052956e+00
1.00052242e+00
1.00051706e+00
1.00051343e+00
1.00051144e+00
1.00051098e+00
1.00051193e+00
1.00051414e+00
1.00051746e+00
1.00052173e+00
1.00052676e+00
1.00053238e+00
1.00053840e+00
1.00054465e+00
1.00055095e+00
1.00055714e+00
1.00056306e+00
1.00056856e+00
1.00057354e+00
1.00057788e+00
1.00058149e+00
1.00058430e+00
1.00058627e+00
1.00058736e+00
1.00058757e+00
1.00058689e+00
1.00058536e+00
1.00058300e+00
1.00057985e+00
1.00057598e+00
1.00057144e+00
1.00056628e+00
1.00056058e+00
1.00055440e+00
1.00054779e+00
1.00054081e+00
1.00053350e+00
1.00052590e+00
1.00051806e+00
1.00050998e+00
1.00050169e+00
1.00049320e+00
1.00048450e+00
1.00047558e+00
1.00046643e+00
1.00045703e+00
1.00044735e+00
1.00043736e+00
1.00042703e+00
1.00041632e+00
1.00040518e+00
1.00039358e+00
1.00038146e+00
1.00036879e+00
1.00035550e+00
1.00034156e+00
1.00032691e+00
1.00031151e+00
1.00029529e+00
1.00027821e+00
1.00026022e+00
1.00024126e+00
1.00022130e+00
1.00020029e+00
1.00017819e+00
1.00015496e+00
1.00013059e+00
1.00010507e+00
1.00007839e+00
1.00005057e+00
1.00002164e+00
9.99991647e-01
9.99960665e-01
9.99928786e-01
9.99896124e-01
9.99862819e-01
9.99829036e-01
9.99794960e-01
9.99760802e-01
9.99726798e-01
9.99693196e-01
9.99660252e-01
9.99628259e-01
9.99597524e-01
9.99568294e-01
9.99540835e-01
9.99515544e-01
9.99492678e-01
9.99472289e-01
9.99454779e-01
9.99440462e-01
9.99429240e-01
9.99421348e-01
9.99417091e-01
1.00117633e+00
1.00117419e+00
1.00116964e+00
1.00116305e+00
1.00115422e+00
1.00114320e+00
1.00113037e+00
1.00111562e+00
1.00109895e+00
1.00108064e+00
1.00106081e+00
1.00103950e+00
1.00101690e+00
1.00099318e+00
1.00096850e+00
1.00094300e+00
1.00091689e+00
1.00089035e+00
1.00086356e+00
1.00083670e+00
1.00080998e+00
1.00078358e+00
1.00075769e+00
1.00073248e+00
1.00070815e+00
1.00068484e+00
1.00066271e+00
1.00064192e+00
1.00062257e+00
1.00060478e+00
1.00058865e+00
1.00057424e+00
1.00056160e+00
1.00055075e+00
1.00054170e+00
1.00053444e+00
1.00052892e+00
1.00052506e+00
1.00052280e+00
1.00052202e+00
1.00052259e+00
1.00052438e+00
1.00052723e+00
1.00053098e+00
1.00053545e+00
1.00054048e+00
1.00054587e+00
1.00055147e+00
1.00055709e+00
1.00056257e+00
1.00056777e+00
1.00057256e+00
1.00057680e+00
1.00058040e+00
1.00058327e+00
1.00058535e+00
1.00058660e+00
1.00058697e+00
1.00058647e+00
1.00058510e+00
1.00058288e+00
1.00057984e+00
1.00057604e+00
1.00057152e+00
1.00056635e+00
1.00056058e+00
1.00055427e+00
1.00054750e+00
1.00054032e+00
1.00053278e+00
1.00052493e+00
1.00051682e+00
1.00050847e+00
1.00049992e+00
1.00049118e+00
1.00048226e+00
1.00047316e+00
1.00046388e+00
1.00045439e+00
1.00044469e+00
1.00043474e+00
1.00042453e+00
1.00041400e+00
1.00040314e+00
1.00039189e+00
1.00038021e+00
1.00036806e+00
1.00035539e+00
1.00034216e+00
1.00032830e+00
1.00031378e+00
1.00029853e+00
1.00028250e+00
1.00026564e+00
1.00024790e+00
1.00022923e+00
1.00020957e+00
1.00018888e+00
1.00016713e+00
1.00014427e+00
1.00012028e+00
1.00009515e+00
1.00006887e+00
1.00004146e+00
1.00001295e+00
9.99983387e-01
9.99952836e-01
9.99921390e-01
9.99889163e-01
9.99856292e-01
9.99822941e-01
9.99789296e-01
9.99755562e-01
9.99721970e-01
9.99688775e-01
9.99656239e-01
9.99624620e-01
9.99594222e-01
9.99565361e-01
9.99538264e-01
9.99513197e-01
9.99490551e-01
9.99470504e-01
9.99453144e-01
9.99438867e-01
9.99427818e-01
9.99419942e-01
9.99415601e-01
1.00118801e+00
1.00118579e+00
1.00118122e+00
1.00117437e+00
1.00116538e+00
1.00115445e+00
1.00114154e+00
1.00112664e+00
1.00111000e+00
1.00109173e+00
1.00107185e+00
1.00105054e+00
1.00102799e+00
1.00100432e+00
1.00097969e+00
1.00095427e+00
1.00092826e+00
1.00090183e+00
1.00087516e+00
1.00084845e+00
1.00082189e+00
1.00079565e+00
1.00076993e+00
1.00074491e+00
1.00072074e+00
1.00069761e+00
1.00067565e+00
1.00065500e+00
1.00063579e+00
1.00061811e+00
1.00060206e+00
1.00058769e+00
1.00057506e+00
1.00056418e+00
1.00055505e+00
1.00054765e+00
1.00054194e+00
1.00053784e+00
1.00053528e+00
1.00053414e+00
1.00053430e+00
1.00053563e+00
1.00053796e+00
1.00054114e+00
1.00054500e+00
1.00054937e+00
1.00055407e+00
1.00055894e+00
1.00056381e+00
1.00056852e+00
1.00057293e+00
1.00057691e+00
1.00058034e+00
1.00058312e+00
1.00058518e+00
1.00058645e+00
1.00058688e+00
1.00058646e+00
1.00058517e+00
1.00058303e+00
1.00058005e+00
1.00057627e+00
1.00057174e+00
1.00056651e+00
1.00056063e+00
1.00055418e+00
1.00054722e+00
1.00053980e+00
1.00053199e+00
1.00052384e+00
1.00051541e+00
1.00050673e+00
1.00049785e+00
1.00048878e+00
1.00047955e+00
1.00047017e+00
1.00046064e+00
1.00045095e+00
1.00044111e+00
1.00043108e+00
1.00042085e+00
1.00041038e+00
1.00039965e+00
1.00038862e+00
1.00037725e+00
1.00036550e+00
1.00035331e+00
1.00034066e+00
1.00032747e+00
1.00031371e+00
1.00029931e+00
1.00028423e+00
1.00026841e+00
1.00025179e+00
1.00023432e+00
1.00021595e+00
1.00019662e+00
1.00017628e+00
1.00015489e+00
1.00013242e+00
1.00010884e+00
1.00008412e+00
1.00005828e+00
1.00003131e+00
1.00000325e+00
9.99974139e-01
9.99944048e-01
9.99913063e-01
9.99881299e-01
9.99848891e-01
9.99815999e-01
9.99782808e-01
9.99749525e-01
9.99716375e-01
9.99683602e-01
9.99651480e-01
9.99620278e-01
9.99590254e-01
9.99561715e-01
9.99534980e-01
9.99510257e-01
9.99487801e-01
9.99467965e-01
9.99450903e-01
9.99436715e-01
9.99425660e-01
9.99417876e-01
9.99413575e-01
1.00120098e+00
1.00119857e+00
1.00119386e+00
1.00118689e+00
1.00117786e+00
1.00116684e+00
1.00115379e+00
1.00113888e+00
1.00112224e+00
1.00110389e+00
1.00108399e+00
1.00106273e+00
1.00104020e+00
1.00101655e+00
1.00099198e+00
1.00096665e+00
1.00094073e+00
1.00091441e+00
1.00088787e+00
1.00086131e+00
1.00083490e+00
1.00080884e+00
1.00078330e+00
1.00075846e+00
1.00073449e+00
1.00071154e+00
1.00068976e+00
1.00066927e+00
1.00065020e+00
1.00063264e+00
1.00061667e+00
1.00060235e+00
1.00058972e+00
1.00057880e+00
1.00056958e+00
1.00056204e+00
1.00055612e+00
1.00055176e+00
1.00054887e+00
1.00054735e+00
1.00054706e+00
1.00054788e+00
1.00054965e+00
1.00055221e+00
1.00055541e+00
1.00055906e+00
1.00056301e+00
1.00056708e+00
1.00057113e+00
1.00057499e+00
1.00057854e+00
1.00058163e+00
1.00058417e+00
1.00058606e+00
1.00058722e+00
1.00058759e+00
1.00058714e+00
1.00058585e+00
1.00058370e+00
1.00058070e+00
1.00057689e+00
1.00057230e+00
1.00056696e+00
1.00056095e+00
1.00055432e+00
1.00054712e+00
1.00053943e+00
1.00053131e+00
1.00052282e+00
1.00051402e+00
1.00050495e+00
1.00049566e+00
1.00048619e+00
1.00047657e+00
1.00046681e+00
1.00045693e+00
1.00044694e+00
1.00043683e+00
1.00042660e+00
1.00041622e+00
1.00040568e+00
1.00039495e+00
1.00038401e+00
1.00037280e+00
1.00036130e+00
1.00034946e+00
1.00033724e+00
1.00032459e+00
1.00031146e+00
1.00029779e+00
1.00028354e+00
1.00026864e+00
1.00025303e+00
1.00023667e+00
1.00021948e+00
1.00020142e+00
1.00018243e+00
1.00016246e+00
1.00014147e+00
1.00011941e+00
1.00009625e+00
1.00007199e+00
1.00004660e+00
1.00002010e+00
9.99992512e-01
9.99963884e-01
9.99934279e-01
9.99903784e-01
9.99872510e-01
9.99840592e-01
9.99808187e-01
9.99775476e-01
9.99742665e-01
9.99709983e-01
9.99677666e-01
9.99645972e-01
9.99615186e-01
9.99585582e-01
9.99557413e-01
9.99530988e-01
9.99506605e-01
9.99484461e-01
9.99464813e-01
9.99447940e-01
9.99433943e-01
9.99422978e-01
9.99415241e-01
9.99410913e-01
1.00121505e+00
1.00121245e+00
1.00120755e+00
1.00120052e+00
1.00119140e+00
1.00118023e+00
1.00116713e+00
1.00115220e+00
1.00113548e+00
1.00111708e+00
1.00109720e+00
1.00107593e+00
1.00105341e+00
1.00102981e+00
1.00100530e+00
1.00098005e+00
1.00095422e+00
1.00092802e+00
1.00090163e+00
1.00087522e+00
1.00084898e+00
1.00082310e+00
1.00079776e+00
1.00077312e+00
1.00074935e+00
1.00072659e+00
1.00070500e+00
1.00068469e+00
1.00066577e+00
1.00064833e+00
1.00063245e+00
1.00061819e+00
1.00060557e+00
1.00059460e+00
1.00058529e+00
1.00057759e+00
1.00057145e+00
1.00056681e+00
1.00056358e+00
1.00056164e+00
1.00056087e+00
1.00056114e+00
1.00056230e+00
1.00056420e+00
1.00056667e+00
1.00056955e+00
1.00057268e+00
1.00057590e+00
1.00057905e+00
1.00058200e+00
1.00058460e+00
1.00058674e+00
1.00058831e+00
1.00058922e+00
1.00058941e+00
1.00058881e+00
1.00058740e+00
1.00058515e+00
1.00058206e+00
1.00057814e+00
1.00057342e+00
1.00056794e+00
1.00056174e+00
1.00055488e+00
1.00054742e+00
1.00053942e+00
1.00053095e+00
1.00052207e+00
1.00051285e+00
1.00050333e+00
1.00049358e+00
1.00048364e+00
1.00047354e+00
1.00046332e+00
1.00045300e+00
1.00044259e+00
1.00043210e+00
1.00042154e+00
1.00041089e+00
1.00040015e+00
1.00038928e+00
1.00037827e+00
1.00036709e+00
1.00035570e+00
1.00034406e+00
1.00033213e+00
1.00031987e+00
1.00030723e+00
1.00029415e+00
1.00028058e+00
1.00026647e+00
1.00025175e+00
1.00023637e+00
1.00022027e+00
1.00020338e+00
1.00018566e+00
1.00016703e+00
1.00014744e+00
1.00012686e+00
1.00010523e+00
1.00008253e+00
1.00005873e+00
1.00003382e+00
1.00000782e+00
9.99980731e-01
9.99952611e-01
9.99923520e-01
9.99893542e-01
9.99862786e-01
9.99831384e-01
9.99799493e-01
9.99767291e-01
9.99734980e-01
9.99702784e-01
9.99670948e-01
9.99639720e-01
9.99609364e-01
9.99580175e-01
9.99552420e-01
9.99526352e-01
9.99502270e-01
9.99480446e-01
9.99461066e-01
9.99444361e-01
9.99430537e-01
9.99419711e-01
9.99412007e-01
9.99407670e-01
1.00122998e+00
1.00122723e+00
1.00122222e+00
1.00121507e+00
1.00120583e+00
1.00119458e+00
1.00118143e+00
1.00116642e+00
1.00114963e+00
1.00113124e+00
1.00111134e+00
1.00109006e+00
1.00106756e+00
1.00104402e+00
1.00101957e+00
1.00099440e+00
1.00096869e+00
1.00094262e+00
1.00091637e+00
1.00089013e+00
1.00086408e+00
1.00083840e+00
1.00081326e+00
1.00078884e+00
1.00076528e+00
1.00074274e+00
1.00072135e+00
1.00070122e+00
1.00068247e+00
1.00066517e+00
1.00064939e+00
1.00063519e+00
1.00062258e+00
1.00061157e+00
1.00060215e+00
1.00059429e+00
1.00058792e+00
1.00058298e+00
1.00057938e+00
1.00057699e+00
1.00057571e+00
1.00057540e+00
1.00057591e+00
1.00057709e+00
1.00057879e+00
1.00058084e+00
1.00058309e+00
1.00058539e+00
1.00058758e+00
1.00058954e+00
1.00059112e+00
1.00059223e+00
1.00059276e+00
1.00059262e+00
1.00059176e+00
1.00059011e+00
1.00058766e+00
1.00058438e+00
1.00058028e+00
1.00057537e+00
1.00056967e+00
1.00056323e+00
1.00055610e+00
1.00054832e+00
1.00053997e+00
1.00053111e+00
1.00052180e+00
1.00051211e+00
1.00050209e+00
1.00049182e+00
1.00048133e+00
1.00047069e+00
1.00045992e+00
1.00044906e+00
1.00043814e+00
1.00042717e+00
1.00041616e+00
1.00040511e+00
1.00039403e+00
1.00038289e+00
1.00037167e+00
1.00036036e+00
1.00034893e+00
1.00033734e+00
1.00032556e+00
1.00031353e+00
1.00030122e+00
1.00028858e+00
1.00027556e+00
1.00026209e+00
1.00024812e+00
1.00023360e+00
1.00021845e+00
1.00020262e+00
1.00018605e+00
1.00016866e+00
1.00015041e+00
1.00013123e+00
1.00011107e+00
1.00008989e+00
1.00006766e+00
1.00004435e+00
1.00001994e+00
9.99994452e-01
9.99967893e-01
9.99940307e-01
9.99911755e-01
9.99882320e-01
9.99852108e-01
9.99821249e-01
9.99789897e-01
9.99758231e-01
9.99726448e-01
9.99694767e-01
9.99663429e-01
9.99632690e-01
9.99602806e-01
9.99574046e-01
9.99546702e-01
9.99521037e-01
9.99497296e-01
9.99475763e-01
9.99456669e-01
9.99440196e-01
9.99426534e-01
9.99415837e-01
9.99408217e-01
9.99403904e-01
1.00124570e+00
1.00124281e+00
1.00123768e+00
1.00123040e+00
1.00122107e+00
1.00120976e+00
1.00119653e+00
1.00118144e+00
1.00116463e+00
1.00114621e+00
1.00112629e+00
1.00110502e+00
1.00108257e+00
1.00105907e+00
1.00103470e+00
1.00100963e+00
1.00098404e+00
1.00095811e+00
1.00093203e+00
1.00090598e+00
1.00088013e+00
1.00085467e+00
1.00082976e+00
1.00080557e+00
1.00078225e+00
1.00075994e+00
1.00073877e+00
1.00071885e+00
1.00070028e+00
1.00068313e+00
1.00066746e+00
1.00065332e+00
1.00064073e+00
1.00062968e+00
1.00062016e+00
1.00061212e+00
1.00060551e+00
1.00060026e+00
1.00059626e+00
1.00059340e+00
1.00059158e+00
1.00059065e+00
1.00059047e+00
1.00059089e+00
1.00059176e+00
1.00059293e+00
1.00059424e+00
1.00059555e+00
1.00059672e+00
1.00059762e+00
1.00059812e+00
1.00059812e+00
1.00059753e+00
1.00059627e+00
1.00059428e+00
1.00059152e+00
1.00058795e+00
1.00058357e+00
1.00057838e+00
1.00057240e+00
1.00056565e+00
1.00055819e+00
1.00055005e+00
1.00054130e+00
1.00053200e+00
1.00052221e+00
1.00051200e+00
1.00050144e+00
1.00049058e+00
1.00047950e+00
1.00046824e+00
1.00045684e+00
1.00044536e+00
1.00043383e+00
1.00042227e+00
1.00041071e+00
1.00039914e+00
1.00038759e+00
1.00037604e+00
1.00036448e+00
1.00035290e+00
1.00034127e+00
1.00032958e+00
1.00031777e+00
1.00030583e+00
1.00029370e+00
1.00028134e+00
1.00026870e+00
1.00025572e+00
1.00024236e+00
1.00022854e+00
1.00021421e+00
1.00019930e+00
1.00018375e+00
1.00016749e+00
1.00015046e+00
1.00013259e+00
1.00011382e+00
1.00009411e+00
1.00007340e+00
1.00005166e+00
1.00002885e+00
1.00000497e+00
9.99980015e-01
9.99954003e-01
9.99926974e-01
9.99898985e-01
9.99870118e-01
9.99840476e-01
9.99810187e-01
9.99779402e-01
9.99748296e-01
9.99717067e-01
9.99685931e-01
9.99655120e-01
9.99624886e-01
9.99595496e-01
9.99567207e-01
9.99540289e-01
9.99515027e-01
9.99491669e-01
9.99470457e-01
9.99451641e-01
9.99435421e-01
9.99421953e-01
9.99411389e-01
9.99403863e-01
9.99399592e-01
1.00126207e+00
1.00125903e+00
1.00125378e+00
1.00124641e+00
1.00123700e+00
1.00122561e+00
1.00121230e+00
1.00119717e+00
1.00118034e+00
1.00116189e+00
1.00114197e+00
1.00112074e+00
1.00109832e+00
1.00107489e+00
1.00105061e+00
1.00102566e+00
1.00100021e+00
1.00097445e+00
1.00094855e+00
1.00092270e+00
1.00089708e+00
1.00087186e+00
1.00084721e+00
1.00082328e+00
1.00080021e+00
1.00077816e+00
1.00075723e+00
1.00073753e+00
1.00071915e+00
1.00070217e+00
1.00068663e+00
1.00067256e+00
1.00065999e+00
1.00064890e+00
1.00063927e+00
1.00063106e+00
1.00062419e+00
1.00061860e+00
1.00061419e+00
1.00061085e+00
1.00060845e+00
1.00060686e+00
1.00060595e+00
1.00060556e+00
1.00060556e+00
1.00060579e+00
1.00060611e+00
1.00060638e+00
1.00060646e+00
1.00060624e+00
1.00060559e+00
1.00060442e+00
1.00060264e+00
1.00060018e+00
1.00059699e+00
1.00059303e+00
1.00058828e+00
1.00058272e+00
1.00057637e+00
1.00056925e+00
1.00056139e+00
1.00055283e+00
1.00054363e+00
1.00053384e+00
1.00052352e+00
1.00051275e+00
1.00050159e+00
1.00049011e+00
1.00047836e+00
1.00046642e+00
1.00045433e+00
1.00044215e+00
1.00042992e+00
1.00041768e+00
1.00040544e+00
1.00039325e+00
1.00038110e+00
1.00036901e+00
1.00035697e+00
1.00034497e+00
1.00033300e+00
1.00032104e+00
1.00030907e+00
1.00029704e+00
1.00028493e+00
1.00027268e+00
1.00026026e+00
1.00024761e+00
1.00023468e+00
1.00022142e+00
1.00020775e+00
1.00019361e+00
1.00017894e+00
1.00016368e+00
1.00014774e+00
1.00013107e+00
1.00011359e+00
1.00009526e+00
1.00007600e+00
1.00005577e+00
1.00003453e+00
1.00001224e+00
9.99988901e-01
9.99964501e-01
9.99939057e-01
9.99912606e-01
9.99885203e-01
9.99856927e-01
9.99827879e-01
9.99798184e-01
9.99767993e-01
9.99737474e-01
9.99706824e-01
9.99676256e-01
9.99646002e-01
9.99616305e-01
9.99587425e-01
9.99559630e-01
9.99533177e-01
9.99508334e-01
9.99485367e-01
9.99464514e-01
9.99445999e-01
9.99430035e-01
9.99416783e-01
9.99406383e-01
9.99398961e-01
9.99394734e-01
1.00127895e+00
1.00127578e+00
1.00127041e+00
1.00126296e+00
1.00125347e+00
1.00124201e+00
1.00122865e+00
1.00121349e+00
1.00119663e+00
1.00117818e+00
1.00115829e+00
1.00113709e+00
1.00111473e+00
1.00109139e+00
1.00106723e+00
1.00104241e+00
1.00101712e+00
1.00099155e+00
1.00096586e+00
1.00094025e+00
1.00091488e+00
1.00088993e+00
1.00086555e+00
1.00084190e+00
1.00081912e+00
1.00079734e+00
1.00077667e+00
1.00075722e+00
1.00073906e+00
1.00072225e+00
1.00070685e+00
1.00069287e+00
1.00068032e+00
1.00066920e+00
1.00065946e+00
1.00065106e+00
1.00064394e+00
1.00063800e+00
1.00063315e+00
1.00062929e+00
1.00062629e+00
1.00062401e+00
1.00062233e+00
1.00062110e+00
1.00062018e+00
1.00061942e+00
1.00061870e+00
1.00061786e+00
1.00061680e+00
1.00061538e+00
1.00061352e+00
1.00061111e+00
1.00060807e+00
1.00060435e+00
1.00059989e+00
1.00059467e+00
1.00058866e+00
1.00058186e+00
1.00057429e+00
1.00056596e+00
1.00055691e+00
1.00054720e+00
1.00053687e+00
1.00052597e+00
1.00051459e+00