# vtk DataFile Version 2.0
LBM Flow Field - Timestep 220
ASCII
DATASET STRUCTURED_POINTS
DIMENSIONS 128 128 1
ORIGIN 0.0 0.0 0.0
SPACING 1.0 1.0 1.0
POINT_DATA 16384
SCALARS density double 1
LOOKUP_TABLE default
9.99307378e-01
9.99249229e-01
9.99198014e-01
9.99172146e-01
9.99147951e-01
9.99127691e-01
9.99111392e-01
9.99099652e-01
9.99091751e-01
9.99087802e-01
9.99087628e-01
9.99091169e-01
9.99098265e-01
9.99108793e-01
9.99122589e-01
9.99139483e-01
9.99159284e-01
9.99181787e-01
9.99206772e-01
9.99234005e-01
9.99263240e-01
9.99294220e-01
9.99326679e-01
9.99360344e-01
9.99394938e-01
9.99430183e-01
9.99465801e-01
9.99501519e-01
9.99537071e-01
9.99572201e-01
9.99606667e-01
9.99640243e-01
9.99672722e-01
9.99703921e-01
9.99733679e-01
9.99761859e-01
9.99788354e-01
9.99813082e-01
9.99835991e-01
9.99857055e-01
9.99876272e-01
9.99893667e-01
9.99909286e-01
9.99923196e-01
9.99935480e-01
9.99946234e-01
9.99955567e-01
9.99963592e-01
9.99970430e-01
9.99976200e-01
9.99981023e-01
9.99985014e-01
9.99988283e-01
9.99990932e-01
9.99993057e-01
9.99994743e-01
9.99996067e-01
9.99997097e-01
9.99997891e-01
9.99998501e-01
9.99998971e-01
9.99999338e-01
9.99999637e-01
9.99999897e-01
1.00000015e+00
1.00000041e+00
1.00000073e+00
1.00000112e+00
1.00000162e+00
1.00000228e+00
1.00000314e+00
1.00000426e+00
1.00000571e+00
1.00000755e+00
1.00000988e+00
1.00001279e+00
1.00001639e+00
1.00002079e+00
1.00002613e+00
1.00003252e+00
1.00004012e+00
1.00004905e+00
1.00005946e+00
1.00007149e+00
1.00008525e+00
1.00010087e+00
1.00011844e+00
1.00013805e+00
1.00015975e+00
1.00018359e+00
1.00020956e+00
1.00023764e+00
1.00026777e+00
1.00029988e+00
1.00033383e+00
1.00036948e+00
1.00040664e+00
1.00044511e+00
1.00048464e+00
1.00052498e+00
1.00056584e+00
1.00060694e+00
1.00064795e+00
1.00068857e+00
1.00072847e+00
1.00076733e+00
1.00080483e+00
1.00084064e+00
1.00087445e+00
1.00090598e+00
1.00093493e+00
1.00096102e+00
1.00098401e+00
1.00100366e+00
1.00101974e+00
1.00103205e+00
1.00104041e+00
1.00104467e+00
1.00104464e+00
1.00104026e+00
1.00103130e+00
1.00101792e+00
1.00099926e+00
1.00097602e+00
1.00094819e+00
1.00091842e+00
1.00085946e+00
1.00079244e+00
9.99219464e-01
9.99172582e-01
9.99129570e-01
9.99104957e-01
9.99078272e-01
9.99058756e-01
9.99042609e-01
9.99031089e-01
9.99023178e-01
9.99019365e-01
9.99019242e-01
9.99022858e-01
9.99030007e-01
9.99040609e-01
9.99054491e-01
9.99071508e-01
9.99091474e-01
9.99114205e-01
9.99139492e-01
9.99167118e-01
9.99196852e-01
9.99228452e-01
9.99261665e-01
9.99296231e-01
9.99331884e-01
9.99368354e-01
9.99405370e-01
9.99442660e-01
9.99479960e-01
9.99517009e-01
9.99553560e-01
9.99589376e-01
9.99624237e-01
9.99657941e-01
9.99690308e-01
9.99721180e-01
9.99750424e-01
9.99777933e-01
9.99803627e-01
9.99827453e-01
9.99849384e-01
9.99869420e-01
9.99887583e-01
9.99903919e-01
9.99918494e-01
9.99931390e-01
9.99942704e-01
9.99952544e-01
9.99961026e-01
9.99968271e-01
9.99974401e-01
9.99979538e-01
9.99983800e-01
9.99987302e-01
9.99990150e-01
9.99992442e-01
9.99994269e-01
9.99995712e-01
9.99996844e-01
9.99997728e-01
9.99998422e-01
9.99998976e-01
9.99999435e-01
9.99999840e-01
1.00000023e+00
1.00000065e+00
1.00000113e+00
1.00000172e+00
1.00000246e+00
1.00000342e+00
1.00000465e+00
1.00000622e+00
1.00000822e+00
1.00001073e+00
1.00001386e+00
1.00001772e+00
1.00002243e+00
1.00002812e+00
1.00003492e+00
1.00004298e+00
1.00005243e+00
1.00006342e+00
1.00007609e+00
1.00009056e+00
1.00010695e+00
1.00012535e+00
1.00014585e+00
1.00016851e+00
1.00019336e+00
1.00022040e+00
1.00024961e+00
1.00028093e+00
1.00031427e+00
1.00034952e+00
1.00038652e+00
1.00042509e+00
1.00046503e+00
1.00050610e+00
1.00054805e+00
1.00059061e+00
1.00063348e+00
1.00067637e+00
1.00071897e+00
1.00076097e+00
1.00080204e+00
1.00084187e+00
1.00088017e+00
1.00091662e+00
1.00095093e+00
1.00098283e+00
1.00101205e+00
1.00103833e+00
1.00106145e+00
1.00108117e+00
1.00109730e+00
1.00110967e+00
1.00111806e+00
1.00112240e+00
1.00112245e+00
1.00111825e+00
1.00110934e+00
1.00109627e+00
1.00107786e+00
1.00105558e+00
1.00102501e+00
1.00099684e+00
1.00094741e+00
1.00089352e+00
9.99068228e-01
9.99025060e-01
9.98995266e-01
9.98965701e-01
9.98940161e-01
9.98921659e-01
9.98906223e-01
9.98894853e-01
9.98887413e-01
9.98883901e-01
9.98884096e-01
9.98887965e-01
9.98895388e-01
9.98906261e-01
9.98920454e-01
9.98937832e-01
9.98958243e-01
9.98981524e-01
9.99007497e-01
9.99035974e-01
9.99066751e-01
9.99099612e-01
9.99134333e-01
9.99170675e-01
9.99208394e-01
9.99247236e-01
9.99286942e-01
9.99327248e-01
9.99367891e-01
9.99408606e-01
9.99449135e-01
9.99489222e-01
9.99528625e-01
9.99567113e-01
9.99604468e-01
9.99640493e-01
9.99675010e-01
9.99707865e-01
9.99738928e-01
9.99768097e-01
9.99795293e-01
9.99820469e-01
9.99843603e-01
9.99864701e-01
9.99883791e-01
9.99900928e-01
9.99916185e-01
9.99929654e-01
9.99941442e-01
9.99951667e-01
9.99960455e-01
9.99967937e-01
9.99974247e-01
9.99979516e-01
9.99983873e-01
9.99987440e-01
9.99990334e-01
9.99992661e-01
9.99994521e-01
9.99996004e-01
9.99997192e-01
9.99998160e-01
9.99998979e-01
9.99999712e-01
1.00000042e+00
1.00000118e+00
1.00000203e+00
1.00000306e+00
1.00000434e+00
1.00000595e+00
1.00000797e+00
1.00001052e+00
1.00001369e+00
1.00001762e+00
1.00002242e+00
1.00002825e+00
1.00003525e+00
1.00004357e+00
1.00005337e+00
1.00006479e+00
1.00007799e+00
1.00009311e+00
1.00011027e+00
1.00012959e+00
1.00015116e+00
1.00017503e+00
1.00020127e+00
1.00022986e+00
1.00026080e+00
1.00029403e+00
1.00032947e+00
1.00036700e+00
1.00040647e+00
1.00044770e+00
1.00049049e+00
1.00053460e+00
1.00057979e+00
1.00062578e+00
1.00067229e+00
1.00071902e+00
1.00076568e+00
1.00081195e+00
1.00085753e+00
1.00090212e+00
1.00094542e+00
1.00098713e+00
1.00102697e+00
1.00106469e+00
1.00110001e+00
1.00113269e+00
1.00116251e+00
1.00118926e+00
1.00121273e+00
1.00123274e+00
1.00124912e+00
1.00126172e+00
1.00127039e+00
1.00127502e+00
1.00127546e+00
1.00127168e+00
1.00126342e+00
1.00125069e+00
1.00123330e+00
1.00121242e+00
1.00118342e+00
1.00114991e+00
1.00111590e+00
1.00106676e+00
9.98866245e-01
9.98823348e-01
9.98792319e-01
9.98764796e-01
9.98743201e-01
9.98725083e-01
9.98710383e-01
9.98699999e-01
9.98693419e-01
9.98690534e-01
9.98691316e-01
9.98695701e-01
9.98703599e-01
9.98714917e-01
9.98729563e-01
9.98747431e-01
9.98768405e-01
9.98792358e-01
9.98819153e-01
9.98848640e-01
9.98880657e-01
9.98915028e-01
9.98951567e-01
9.98990074e-01
9.99030334e-01
9.99072125e-01
9.99115209e-01
9.99159341e-01
9.99204266e-01
9.99249722e-01
9.99295444e-01
9.99341163e-01
9.99386610e-01
9.99431521e-01
9.99475638e-01
9.99518714e-01
9.99560515e-01
9.99600825e-01
9.99639446e-01
9.99676207e-01
9.99710960e-01
9.99743586e-01
9.99773998e-01
9.99802137e-01
9.99827975e-01
9.99851515e-01
9.99872790e-01
9.99891859e-01
9.99908804e-01
9.99923730e-01
9.99936760e-01
9.99948029e-01
9.99957683e-01
9.99965875e-01
9.99972759e-01
9.99978488e-01
9.99983214e-01
9.99987082e-01
9.99990230e-01
9.99992788e-01
9.99994878e-01
9.99996617e-01
9.99998113e-01
9.99999472e-01
1.00000080e+00
1.00000219e+00
1.00000376e+00
1.00000561e+00
1.00000786e+00
1.00001063e+00
1.00001407e+00
1.00001831e+00
1.00002351e+00
1.00002984e+00
1.00003747e+00
1.00004657e+00
1.00005732e+00
1.00006990e+00
1.00008449e+00
1.00010125e+00
1.00012031e+00
1.00014181e+00
1.00016586e+00
1.00019252e+00
1.00022183e+00
1.00025382e+00
1.00028844e+00
1.00032564e+00
1.00036531e+00
1.00040732e+00
1.00045149e+00
1.00049762e+00
1.00054549e+00
1.00059483e+00
1.00064537e+00
1.00069682e+00
1.00074887e+00
1.00080121e+00
1.00085354e+00
1.00090552e+00
1.00095687e+00
1.00100726e+00
1.00105643e+00
1.00110407e+00
1.00114993e+00
1.00119376e+00
1.00123532e+00
1.00127439e+00
1.00131076e+00
1.00134425e+00
1.00137468e+00
1.00140189e+00
1.00142573e+00
1.00144608e+00
1.00146280e+00
1.00147579e+00
1.00148494e+00
1.00149016e+00
1.00149134e+00
1.00148842e+00
1.00148135e+00
1.00147002e+00
1.00145381e+00
1.00143381e+00
1.00140980e+00
1.00137920e+00
1.00134431e+00
1.00129644e+00
9.98608507e-01
9.98569802e-01
9.98539359e-01
9.98516273e-01
9.98496409e-01
9.98479621e-01
9.98467014e-01
9.98458257e-01
9.98452899e-01
9.98451143e-01
9.98452903e-01
9.98458109e-01
9.98466696e-01
9.98478614e-01
9.98493798e-01
9.98512179e-01
9.98533685e-01
9.98558232e-01
9.98585730e-01
9.98616079e-01
9.98649169e-01
9.98684875e-01
9.98723061e-01
9.98763577e-01
9.98806257e-01
9.98850919e-01
9.98897366e-01
9.98945383e-01
9.98994742e-01
9.99045196e-01
9.99096488e-01
9.99148345e-01
9.99200486e-01
9.99252621e-01
9.99304458e-01
9.99355702e-01
9.99406062e-01
9.99455256e-01
9.99503014e-01
9.99549082e-01
9.99593229e-01
9.99635247e-01
9.99674962e-01
9.99712228e-01
9.99746936e-01
9.99779015e-01
9.99808428e-01
9.99835177e-01
9.99859298e-01
9.99880862e-01
9.99899968e-01
9.99916743e-01
9.99931332e-01
9.99943903e-01
9.99954632e-01
9.99963704e-01
9.99971311e-01
9.99977641e-01
9.99982884e-01
9.99987224e-01
9.99990839e-01
9.99993904e-01
9.99996587e-01
9.99999054e-01
1.00000147e+00
1.00000400e+00
1.00000681e+00
1.00001007e+00
1.00001397e+00
1.00001868e+00
1.00002442e+00
1.00003139e+00
1.00003979e+00
1.00004985e+00
1.00006178e+00
1.00007580e+00
1.00009212e+00
1.00011093e+00
1.00013242e+00
1.00015673e+00
1.00018398e+00
1.00021427e+00
1.00024764e+00
1.00028410e+00
1.00032362e+00
1.00036610e+00
1.00041143e+00
1.00045943e+00
1.00050990e+00
1.00056259e+00
1.00061722e+00
1.00067349e+00
1.00073108e+00
1.00078964e+00
1.00084883e+00
1.00090831e+00
1.00096772e+00
1.00102673e+00
1.00108500e+00
1.00114224e+00
1.00119813e+00
1.00125241e+00
1.00130482e+00
1.00135512e+00
1.00140311e+00
1.00144859e+00
1.00149139e+00
1.00153135e+00
1.00156835e+00
1.00160226e+00
1.00163298e+00
1.00166040e+00
1.00168445e+00
1.00170505e+00
1.00172214e+00
1.00173564e+00
1.00174549e+00
1.00175166e+00
1.00175406e+00
1.00175264e+00
1.00174727e+00
1.00173822e+00
1.00172492e+00
1.00170706e+00
1.00168576e+00
1.00166108e+00
1.00162776e+00
1.00158615e+00
9.98309207e-01
9.98277253e-01
9.98250246e-01
9.98230546e-01
9.98213213e-01
9.98199905e-01
9.98190021e-01
9.98183349e-01
9.98179945e-01
9.98179918e-01
9.98183072e-01
9.98189425e-01
9.98198938e-01
9.98211591e-01
9.98227347e-01
9.98246182e-01
9.98268064e-01
9.98292960e-01
9.98320829e-01
9.98351627e-01
9.98385300e-01
9.98421783e-01
9.98461002e-01
9.98502865e-01
9.98547266e-01
9.98594084e-01
9.98643173e-01
9.98694372e-01
9.98747495e-01
9.98802333e-01
9.98858656e-01
9.98916213e-01
9.98974727e-01
9.99033907e-01
9.99093441e-01
9.99153006e-01
9.99212267e-01
9.99270886e-01
9.99328524e-01
9.99384849e-01
9.99439540e-01
9.99492294e-01
9.99542834e-01
9.99590911e-01
9.99636312e-01
9.99678863e-01
9.99718432e-01
9.99754933e-01
9.99788324e-01
9.99818610e-01
9.99845840e-01
9.99870101e-01
9.99891520e-01
9.99910257e-01
9.99926496e-01
9.99940448e-01
9.99952336e-01
9.99962399e-01
9.99970881e-01
9.99978033e-01
9.99984106e-01
9.99989351e-01
9.99994019e-01
9.99998361e-01
1.00000263e+00
1.00000708e+00
1.00001197e+00
1.00001755e+00
1.00002410e+00
1.00003190e+00
1.00004121e+00
1.00005231e+00
1.00006549e+00
1.00008101e+00
1.00009914e+00
1.00012013e+00
1.00014419e+00
1.00017151e+00
1.00020225e+00
1.00023652e+00
1.00027438e+00
1.00031584e+00
1.00036086e+00
1.00040933e+00
1.00046111e+00
1.00051598e+00
1.00057368e+00
1.00063393e+00
1.00069637e+00
1.00076065e+00
1.00082637e+00
1.00089313e+00
1.00096053e+00
1.00102816e+00
1.00109562e+00
1.00116253e+00
1.00122852e+00
1.00129327e+00
1.00135645e+00
1.00141780e+00
1.00147705e+00
1.00153398e+00
1.00158841e+00
1.00164018e+00
1.00168914e+00
1.00173519e+00
1.00177823e+00
1.00181819e+00
1.00185502e+00
1.00188868e+00
1.00191912e+00
1.00194634e+00
1.00197030e+00
1.00199099e+00
1.00200841e+00
1.00202254e+00
1.00203335e+00
1.00204084e+00
1.00204498e+00
1.00204578e+00
1.00204304e+00
1.00203689e+00
1.00202736e+00
1.00201427e+00
1.00199681e+00
1.00197706e+00
1.00194889e+00
1.00191690e+00
9.97984353e-01
9.97960511e-01
9.97938373e-01
9.97922977e-01
9.97910165e-01
9.97900909e-01
9.97894215e-01
9.97890578e-01
9.97889859e-01
9.97892027e-01
9.97896993e-01
9.97904828e-01
9.97915485e-01
9.97928977e-01
9.97945303e-01
9.97964475e-01
9.97986503e-01
9.98011398e-01
9.98039173e-01
9.98069835e-01
9.98103389e-01
9.98139832e-01
9.98179152e-01
9.98221328e-01
9.98266320e-01
9.98314075e-01
9.98364520e-01
9.98417557e-01
9.98473066e-01
9.98530899e-01
9.98590878e-01
9.98652797e-01
9.98716418e-01
9.98781472e-01
9.98847662e-01
9.98914663e-01
9.98982124e-01
9.99049676e-01
9.99116932e-01
9.99183498e-01
9.99248976e-01
9.99312972e-01
9.99375107e-01
9.99435019e-01
9.99492378e-01
9.99546887e-01
9.99598293e-01
9.99646390e-01
9.99691026e-01
9.99732103e-01
9.99769579e-01
9.99803469e-01
9.99833844e-01
9.99860824e-01
9.99884577e-01
9.99905314e-01
9.99923281e-01
9.99938754e-01
9.99952035e-01
9.99963445e-01
9.99973321e-01
9.99982010e-01
9.99989871e-01
9.99997265e-01
1.00000456e+00
1.00001214e+00
1.00002036e+00
1.00002962e+00
1.00004029e+00
1.00005275e+00
1.00006736e+00
1.00008449e+00
1.00010447e+00
1.00012763e+00
1.00015426e+00
1.00018459e+00
1.00021883e+00
1.00025713e+00
1.00029957e+00
1.00034618e+00
1.00039690e+00
1.00045163e+00
1.00051017e+00
1.00057229e+00
1.00063766e+00
1.00070593e+00
1.00077669e+00
1.00084950e+00
1.00092389e+00
1.00099938e+00
1.00107549e+00
1.00115175e+00
1.00122768e+00
1.00130286e+00
1.00137687e+00
1.00144934e+00
1.00151994e+00
1.00158837e+00
1.00165438e+00
1.00171776e+00
1.00177833e+00
1.00183597e+00
1.00189056e+00
1.00194205e+00
1.00199039e+00
1.00203555e+00
1.00207754e+00
1.00211637e+00
1.00215207e+00
1.00218467e+00
1.00221421e+00
1.00224074e+00
1.00226429e+00
1.00228490e+00
1.00230261e+00
1.00231747e+00
1.00232947e+00
1.00233867e+00
1.00234500e+00
1.00234859e+00
1.00234931e+00
1.00234717e+00
1.00234198e+00
1.00233434e+00
1.00232309e+00
1.00230936e+00
1.00228821e+00
1.00226756e+00
9.97650198e-01
9.97635958e-01
9.97619911e-01
9.97609914e-01
9.97602475e-01
9.97597682e-01
9.97595108e-01
9.97595183e-01
9.97597544e-01
9.97602316e-01
9.97609459e-01
9.97619020e-01
9.97630971e-01
9.97645364e-01
9.97662221e-01
9.97681587e-01
9.97703506e-01
9.97728029e-01
9.97755212e-01
9.97785110e-01
9.97817779e-01
9.97853274e-01
9.97891645e-01
9.97932935e-01
9.97977176e-01
9.98024388e-01
9.98074572e-01
9.98127711e-01
9.98183763e-01
9.98242659e-01
9.98304297e-01
9.98368544e-01
9.98435227e-01
9.98504138e-01
9.98575027e-01
9.98647606e-01
9.98721545e-01
9.98796482e-01
9.98872019e-01
9.98947732e-01
9.99023174e-01
9.99097885e-01
9.99171399e-01
9.99243254e-01
9.99313001e-01
9.99380216e-01
9.99444509e-01
9.99505533e-01
9.99562994e-01
9.99616656e-01
9.99666349e-01
9.99711973e-01
9.99753498e-01
9.99790965e-01
9.99824485e-01
9.99854237e-01
9.99880460e-01
9.99903452e-01
9.99923557e-01
9.99941166e-01
9.99956707e-01
9.99970637e-01
9.99983437e-01
9.99995609e-01
1.00000767e+00
1.00002013e+00
1.00003353e+00
1.00004837e+00
1.00006517e+00
1.00008443e+00
1.00010660e+00
1.00013212e+00
1.00016139e+00
1.00019472e+00
1.00023242e+00
1.00027467e+00
1.00032162e+00
1.00037330e+00
1.00042968e+00
1.00049064e+00
1.00055597e+00
1.00062537e+00
1.00069849e+00
1.00077488e+00
1.00085407e+00
1.00093553e+00
1.00101871e+00
1.00110303e+00
1.00118792e+00
1.00127284e+00
1.00135723e+00
1.00144061e+00
1.00152249e+00
1.00160248e+00
1.00168020e+00
1.00175535e+00
1.00182767e+00
1.00189695e+00
1.00196304e+00
1.00202584e+00
1.00208528e+00
1.00214133e+00
1.00219401e+00
1.00224333e+00
1.00228936e+00
1.00233217e+00
1.00237184e+00
1.00240847e+00
1.00244215e+00
1.00247299e+00
1.00250107e+00
1.00252650e+00
1.00254937e+00
1.00256976e+00
1.00258774e+00
1.00260338e+00
1.00261673e+00
1.00262787e+00
1.00263677e+00
1.00264352e+00
1.00264807e+00
1.00265058e+00
1.00265067e+00
1.00264880e+00
1.00264459e+00
1.00263792e+00
1.00262515e+00
1.00261724e+00
9.97323443e-01
9.97319582e-01
9.97310594e-01
9.97306432e-01
9.97304713e-01
9.97304875e-01
9.97306851e-01
9.97310793e-01
9.97316477e-01
9.97324095e-01
9.97333557e-01
9.97344930e-01
9.97358223e-01
9.97373504e-01
9.97390812e-01
9.97410217e-01
9.97431788e-01
9.97455607e-01
9.97481759e-01
9.97510337e-01
9.97541437e-01
9.97575160e-01
9.97611607e-01
9.97650876e-01
9.97693063e-01
9.97738256e-01
9.97786530e-01
9.97837949e-01
9.97892554e-01
9.97950364e-01
9.98011370e-01
9.98075530e-01
9.98142763e-01
9.98212948e-01
9.98285921e-01
9.98361466e-01
9.98439320e-01
9.98519172e-01
9.98600659e-01
9.98683373e-01
9.98766864e-01
9.98850647e-01
9.98934206e-01
9.99017008e-01
9.99098512e-01
9.99178178e-01
9.99255486e-01
9.99329942e-01
9.99401097e-01
9.99468552e-01
9.99531979e-01
9.99591122e-01
9.99645808e-01
9.99695955e-01
9.99741572e-01
9.99782762e-01
9.99819720e-01
9.99852729e-01
9.99882156e-01
9.99908444e-01
9.99932104e-01
9.99953705e-01
9.99973861e-01
9.99993227e-01
1.00001248e+00
1.00003230e+00
1.00005338e+00
1.00007640e+00
1.00010199e+00
1.00013077e+00
1.00016328e+00
1.00020000e+00
1.00024134e+00
1.00028761e+00
1.00033903e+00
1.00039569e+00
1.00045760e+00
1.00052465e+00
1.00059660e+00
1.00067315e+00
1.00075386e+00
1.00083824e+00
1.00092573e+00
1.00101570e+00
1.00110751e+00
1.00120048e+00
1.00129395e+00
1.00138727e+00
1.00147981e+00
1.00157101e+00
1.00166034e+00
1.00174734e+00
1.00183162e+00
1.00191285e+00
1.00199076e+00
1.00206517e+00
1.00213595e+00
1.00220300e+00
1.00226632e+00
1.00232592e+00
1.00238185e+00
1.00243420e+00
1.00248308e+00
1.00252862e+00
1.00257097e+00
1.00261026e+00
1.00264665e+00
1.00268030e+00
1.00271135e+00
1.00273995e+00
1.00276622e+00
1.00279031e+00
1.00281233e+00
1.00283239e+00
1.00285059e+00
1.00286701e+00
1.00288173e+00
1.00289483e+00
1.00290634e+00
1.00291635e+00
1.00292479e+00
1.00293187e+00
1.00293741e+00
1.00294149e+00
1.00294432e+00
1.00294471e+00
1.00294101e+00
1.00294589e+00
9.97019660e-01
9.97025770e-01
9.97024156e-01
9.97025672e-01
9.97029587e-01
9.97034636e-01
9.97040992e-01
9.97048678e-01
9.97057635e-01
9.97067978e-01
9.97079643e-01
9.97092734e-01
9.97107265e-01
9.97123313e-01
9.97140933e-01
9.97160211e-01
9.97181228e-01
9.97204083e-01
9.97228880e-01
9.97255733e-01
9.97284764e-01
9.97316103e-01
9.97349884e-01
9.97386247e-01
9.97425335e-01
9.97467289e-01
9.97512248e-01
9.97560343e-01
9.97611694e-01
9.97666406e-01
9.97724562e-01
9.97786221e-01
9.97851405e-01
9.97920103e-01
9.97992257e-01
9.98067761e-01
9.98146455e-01
9.98228122e-01
9.98312483e-01
9.98399201e-01
9.98487876e-01
9.98578052e-01
9.98669222e-01
9.98760831e-01
9.98852291e-01
9.98942989e-01
9.99032302e-01
9.99119613e-01
9.99204324e-01
9.99285879e-01
9.99363774e-01
9.99437576e-01
9.99506943e-01
9.99571627e-01
9.99631494e-01
9.99686526e-01
9.99736829e-01
9.99782633e-01
9.99824287e-01
9.99862256e-01
9.99897110e-01
9.99929512e-01
9.99960201e-01
9.99989973e-01
1.00001966e+00
1.00005012e+00
1.00008220e+00
1.00011670e+00
1.00015439e+00
1.00019596e+00
1.00024201e+00
1.00029302e+00
1.00034936e+00
1.00041124e+00
1.00047876e+00
1.00055185e+00
1.00063032e+00
1.00071384e+00
1.00080195e+00
1.00089409e+00
1.00098962e+00
1.00108784e+00
1.00118798e+00
1.00128928e+00
1.00139096e+00
1.00149228e+00
1.00159252e+00
1.00169103e+00
1.00178724e+00
1.00188062e+00
1.00197076e+00
1.00205731e+00
1.00214000e+00
1.00221867e+00
1.00229320e+00
1.00236355e+00
1.00242974e+00
1.00249184e+00
1.00254996e+00
1.00260423e+00
1.00265483e+00
1.00270194e+00
1.00274576e+00
1.00278648e+00
1.00282431e+00
1.00285944e+00
1.00289207e+00
1.00292238e+00
1.00295054e+00
1.00297672e+00
1.00300107e+00
1.00302373e+00
1.00304482e+00
1.00306447e+00
1.00308278e+00
1.00309985e+00
1.00311575e+00
1.00313058e+00
1.00314438e+00
1.00315728e+00
1.00316922e+00
1.00318034e+00
1.00319068e+00
1.00320010e+00
1.00320923e+00
1.00321584e+00
1.00322082e+00
1.00323671e+00
9.96751322e-01
9.96765885e-01
9.96771170e-01
9.96777659e-01
9.96786516e-01
9.96795800e-01
9.96805948e-01
9.96816878e-01
9.96828628e-01
9.96841257e-01
9.96854769e-01
9.96869258e-01
9.96884747e-01
9.96901321e-01
9.96919042e-01
9.96938001e-01
9.96958282e-01
9.96979991e-01
9.97003234e-01
9.97028134e-01
9.97054821e-01
9.97083435e-01
9.97114128e-01
9.97147059e-01
9.97182396e-01
9.97220315e-01
9.97260994e-01
9.97304615e-01
9.97351358e-01
9.97401398e-01
9.97454898e-01
9.97512008e-01
9.97572853e-01
9.97637532e-01
9.97706107e-01
9.97778596e-01
9.97854969e-01
9.97935135e-01
9.98018945e-01
9.98106177e-01
9.98196538e-01
9.98289665e-01
9.98385118e-01
9.98482390e-01
9.98580912e-01
9.98680058e-01
9.98779163e-01
9.98877535e-01
9.98974473e-01
9.99069288e-01
9.99161324e-01
9.99249980e-01
9.99334732e-01
9.99415157e-01
9.99490948e-01
9.99561933e-01
9.99628089e-01
9.99689547e-01
9.99746593e-01
9.99799670e-01
9.99849362e-01
9.99896383e-01
9.99941555e-01
9.99985780e-01
1.00003001e+00
1.00007522e+00
1.00012237e+00
1.00017236e+00
1.00022603e+00
1.00028408e+00
1.00034709e+00
1.00041549e+00
1.00048952e+00
1.00056925e+00
1.00065458e+00
1.00074521e+00
1.00084072e+00
1.00094052e+00
1.00104392e+00
1.00115014e+00
1.00125833e+00
1.00136762e+00
1.00147714e+00
1.00158603e+00
1.00169349e+00
1.00179879e+00
1.00190129e+00
1.00200042e+00
1.00209572e+00
1.00218684e+00
1.00227353e+00
1.00235563e+00
1.00243305e+00
1.00250580e+00
1.00257394e+00
1.00263761e+00
1.00269696e+00
1.00275220e+00
1.00280355e+00
1.00285125e+00
1.00289554e+00
1.00293669e+00
1.00297492e+00
1.00301048e+00
1.00304360e+00
1.00307449e+00
1.00310335e+00
1.00313037e+00
1.00315572e+00
1.00317955e+00
1.00320202e+00
1.00322326e+00
1.00324339e+00
1.00326251e+00
1.00328073e+00
1.00329815e+00
1.00331484e+00
1.00333091e+00
1.00334639e+00
1.00336138e+00
1.00337595e+00
1.00339011e+00
1.00340405e+00
1.00341751e+00
1.00343141e+00
1.00344273e+00
1.00345487e+00
1.00347860e+00
9.96526560e-01
9.96547189e-01
9.96558160e-01
9.96568446e-01
9.96581009e-01
9.96593460e-01
9.96606436e-01
9.96619728e-01
9.96633482e-01
9.96647715e-01
9.96662482e-01
9.96677852e-01
9.96693867e-01
9.96710612e-01
9.96728148e-01
9.96746562e-01
9.96765937e-01
9.96786372e-01
9.96807968e-01
9.96830841e-01
9.96855115e-01
9.96880928e-01
9.96908425e-01
9.96937769e-01
9.96969132e-01
9.97002697e-01
9.97038661e-01
9.97077229e-01
9.97118615e-01
9.97163037e-01
9.97210717e-01
9.97261871e-01
9.97316709e-01
9.97375424e-01
9.97438189e-01
9.97505146e-01
9.97576398e-01
9.97652000e-01
9.97731950e-01
9.97816180e-01
9.97904549e-01
9.97996836e-01
9.98092736e-01
9.98191856e-01
9.98293722e-01
9.98397775e-01
9.98503387e-01
9.98609869e-01
9.98716489e-01
9.98822495e-01
9.98927132e-01
9.99029677e-01
9.99129459e-01
9.99225895e-01
9.99318512e-01
9.99406973e-01
9.99491103e-01
9.99570898e-01
9.99646536e-01
9.99718379e-01
9.99786962e-01
9.99852978e-01
9.99917254e-01
9.99980714e-01
1.00004434e+00
1.00010915e+00
1.00017610e+00
1.00024611e+00
1.00031996e+00
1.00039831e+00
1.00048161e+00
1.00057014e+00
1.00066394e+00
1.00076289e+00
1.00086662e+00
1.00097461e+00
1.00108617e+00
1.00120051e+00
1.00131672e+00
1.00143386e+00
1.00155098e+00
1.00166715e+00
1.00178146e+00
1.00189313e+00
1.00200143e+00
1.00210576e+00
1.00220565e+00
1.00230073e+00
1.00239075e+00
1.00247557e+00
1.00255517e+00
1.00262958e+00
1.00269893e+00
1.00276341e+00
1.00282325e+00
1.00287870e+00
1.00293006e+00
1.00297761e+00
1.00302165e+00
1.00306249e+00
1.00310040e+00
1.00313565e+00
1.00316850e+00
1.00319919e+00
1.00322793e+00
1.00325493e+00
1.00328037e+00
1.00330442e+00
1.00332723e+00
1.00334893e+00
1.00336965e+00
1.00338950e+00
1.00340859e+00
1.00342701e+00
1.00344485e+00
1.00346220e+00
1.00347912e+00
1.00349570e+00
1.00351201e+00
1.00352811e+00
1.00354410e+00
1.00355996e+00
1.00357599e+00
1.00359178e+00
1.00360841e+00
1.00362255e+00
1.00363954e+00
1.00366716e+00
9.96348520e-01
9.96372323e-01
9.96387230e-01
9.96399858e-01
9.96414569e-01
9.96428873e-01
9.96443457e-01
9.96458022e-01
9.96472819e-01
9.96487810e-01
9.96503091e-01
9.96518708e-01
9.96534723e-01
9.96551205e-01
9.96568216e-01
9.96585834e-01
9.96604131e-01
9.96623196e-01
9.96643117e-01
9.96663994e-01
9.96685938e-01
9.96709067e-01
9.96733513e-01
9.96759421e-01
9.96786950e-01
9.96816273e-01
9.96847578e-01
9.96881069e-01
9.96916966e-01
9.96955501e-01
9.96996920e-01
9.97041478e-01
9.97089433e-01
9.97141049e-01
9.97196579e-01
9.97256267e-01
9.97320334e-01
9.97388971e-01
9.97462325e-01
9.97540493e-01
9.97623506e-01
9.97711325e-01
9.97803823e-01
9.97900785e-01
9.98001899e-01
9.98106758e-01
9.98214859e-01
9.98325612e-01
9.98438354e-01
9.98552365e-01
9.98666889e-01
9.98781164e-01
9.98894454e-01
9.99006074e-01
9.99115433e-01
9.99222057e-01
9.99325622e-01
9.99425976e-01
9.99523148e-01
9.99617361e-01
9.99709018e-01
9.99798692e-01
9.99887096e-01
9.99975044e-01
1.00006341e+00
1.00015308e+00
1.00024490e+00
1.00033962e+00
1.00043785e+00
1.00054004e+00
1.00064643e+00
1.00075705e+00
1.00087170e+00
1.00098998e+00
1.00111131e+00
1.00123494e+00
1.00135999e+00
1.00148552e+00
1.00161055e+00
1.00173410e+00
1.00185524e+00
1.00197311e+00
1.00208698e+00
1.00219621e+00
1.00230030e+00
1.00239890e+00
1.00249179e+00
1.00257885e+00
1.00266010e+00
1.00273565e+00
1.00280568e+00
1.00287045e+00
1.00293025e+00
1.00298541e+00
1.00303628e+00
1.00308320e+00
1.00312654e+00
1.00316661e+00
1.00320375e+00
1.00323825e+00
1.00327039e+00
1.00330042e+00
1.00332858e+00
1.00335508e+00
1.00338009e+00
1.00340379e+00
1.00342633e+00
1.00344784e+00
1.00346844e+00
1.00348824e+00
1.00350733e+00
1.00352580e+00
1.00354374e+00
1.00356122e+00
1.00357831e+00
1.00359508e+00
1.00361159e+00
1.00362792e+00
1.00364413e+00
1.00366025e+00
1.00367644e+00
1.00369259e+00
1.00370908e+00
1.00372548e+00
1.00374269e+00
1.00375774e+00
1.00377694e+00
1.00380456e+00
9.96215445e-01
9.96239502e-01
9.96256356e-01
9.96269830e-01
9.96285073e-01
9.96299868e-01
9.96314798e-01
9.96329529e-01
9.96344377e-01
9.96359253e-01
9.96374288e-01
9.96389504e-01
9.96404971e-01
9.96420744e-01
9.96436880e-01
9.96453444e-01
9.96470499e-01
9.96488115e-01
9.96506366e-01
9.96525335e-01
9.96545109e-01
9.96565786e-01
9.96587473e-01
9.96610291e-01
9.96634372e-01
9.96659864e-01
9.96686931e-01
9.96715755e-01
9.96746537e-01
9.96779495e-01
9.96814869e-01
9.96852917e-01
9.96893913e-01
9.96938149e-01
9.96985923e-01
9.97037542e-01
9.97093311e-01
9.97153524e-01
9.97218457e-01
9.97288352e-01
9.97363413e-01
9.97443783e-01
9.97529540e-01
9.97620682e-01
9.97717115e-01
9.97818649e-01
9.97924993e-01
9.98035755e-01
9.98150449e-01
9.98268507e-01
9.98389295e-01
9.98512137e-01
9.98636344e-01
9.98761243e-01
9.98886211e-01
9.99010707e-01
9.99134304e-01
9.99256710e-01
9.99377789e-01
9.99497563e-01
9.99616217e-01
9.99734076e-01
9.99851586e-01
9.99969273e-01
1.00008771e+00
1.00020745e+00
1.00032900e+00
1.00045278e+00
1.00057903e+00
1.00070787e+00
1.00083919e+00
1.00097271e+00
1.00110794e+00
1.00124427e+00
1.00138089e+00
1.00151696e+00
1.00165153e+00
1.00178368e+00
1.00191249e+00
1.00203715e+00
1.00215692e+00
1.00227119e+00
1.00237950e+00
1.00248154e+00
1.00257711e+00
1.00266618e+00
1.00274883e+00
1.00282523e+00
1.00289565e+00
1.00296041e+00
1.00301989e+00
1.00307448e+00
1.00312460e+00
1.00317066e+00
1.00321305e+00
1.00325215e+00
1.00328832e+00
1.00332188e+00
1.00335312e+00
1.00338231e+00
1.00340970e+00
1.00343548e+00
1.00345985e+00
1.00348297e+00
1.00350498e+00
1.00352600e+00
1.00354616e+00
1.00356553e+00
1.00358422e+00
1.00360229e+00
1.00361982e+00
1.00363688e+00
1.00365352e+00
1.00366980e+00
1.00368577e+00
1.00370150e+00
1.00371702e+00
1.00373238e+00
1.00374767e+00
1.00376287e+00
1.00377816e+00
1.00379339e+00
1.00380895e+00
1.00382446e+00
1.00384044e+00
1.00385477e+00
1.00387373e+00
1.00389817e+00
9.96121501e-01
9.96143329e-01
9.96160228e-01
9.96173238e-01
9.96187597e-01
9.96201689e-01
9.96215859e-01
9.96229794e-01
9.96243825e-01
9.96257830e-01
9.96271959e-01
9.96286208e-01
9.96300650e-01
9.96315323e-01
9.96330280e-01
9.96345569e-01
9.96361241e-01
9.96377352e-01
9.96393958e-01
9.96411124e-01
9.96428915e-01
9.96447407e-01
9.96466682e-01
9.96486832e-01
9.96507960e-01
9.96530182e-01
9.96553629e-01
9.96578447e-01
9.96604804e-01
9.96632886e-01
9.96662902e-01
9.96695084e-01
9.96729690e-01
9.96767000e-01
9.96807319e-01
9.96850973e-01
9.96898302e-01
9.96949662e-01
9.97005409e-01
9.97065898e-01
9.97131467e-01
9.97202426e-01
9.97279045e-01
9.97361540e-01
9.97450062e-01
9.97544680e-01
9.97645379e-01
9.97752049e-01
9.97864486e-01
9.97982394e-01
9.98105395e-01
9.98233043e-01
9.98364843e-01
9.98500270e-01
9.98638801e-01
9.98779933e-01
9.98923212e-01
9.99068250e-01
9.99214742e-01
9.99362469e-01
9.99511301e-01
9.99661180e-01
9.99812109e-01
9.99964119e-01
1.00011724e+00
1.00027149e+00
1.00042678e+00
1.00058296e+00
1.00073977e+00
1.00089682e+00
1.00105357e+00
1.00120939e+00
1.00136355e+00
1.00151524e+00
1.00166362e+00
1.00180786e+00
1.00194716e+00
1.00208078e+00
1.00220812e+00
1.00232868e+00
1.00244210e+00
1.00254817e+00
1.00264682e+00
1.00273814e+00
1.00282229e+00
1.00289958e+00
1.00297037e+00
1.00303508e+00
1.00309418e+00
1.00314815e+00
1.00319747e+00
1.00324261e+00
1.00328402e+00
1.00332213e+00
1.00335732e+00
1.00338993e+00
1.00342028e+00
1.00344863e+00
1.00347525e+00
1.00350032e+00
1.00352403e+00
1.00354654e+00
1.00356798e+00
1.00358847e+00
1.00360811e+00
1.00362698e+00
1.00364515e+00
1.00366271e+00
1.00367969e+00
1.00369617e+00
1.00371217e+00
1.00372777e+00
1.00374298e+00
1.00375786e+00
1.00377243e+00
1.00378675e+00
1.00380084e+00
1.00381474e+00
1.00382851e+00
1.00384212e+00
1.00385575e+00
1.00386921e+00
1.00388287e+00
1.00389645e+00
1.00390996e+00
1.00392247e+00
1.00393931e+00
1.00395862e+00
9.96058167e-01
9.96076070e-01
9.96091481e-01
9.96103074e-01
9.96115530e-01
9.96128047e-01
9.96140656e-01
9.96153105e-01
9.96165694e-01
9.96178290e-01
9.96191041e-01
9.96203920e-01
9.96217002e-01
9.96230302e-01
9.96243869e-01
9.96257735e-01
9.96271941e-01
9.96286526e-01
9.96301534e-01
9.96317010e-01
9.96333004e-01
9.96349569e-01
9.96366766e-01
9.96384662e-01
9.96403331e-01
9.96422858e-01
9.96443341e-01
9.96464888e-01
9.96487628e-01
9.96511705e-01
9.96537285e-01
9.96564559e-01
9.96593741e-01
9.96625076e-01
9.96658838e-01
9.96695331e-01
9.96734889e-01
9.96777877e-01
9.96824683e-01
9.96875717e-01
9.96931404e-01
9.96992174e-01
9.97058454e-01
9.97130653e-01
9.97209154e-01
9.97294300e-01
9.97386380e-01
9.97485624e-01
9.97592187e-01
9.97706151e-01
9.97827515e-01
9.97956204e-01
9.98092062e-01
9.98234869e-01
9.98384340e-01
9.98540138e-01
9.98701878e-01
9.98869139e-01
9.99041463e-01
9.99218357e-01
9.99399293e-01
9.99583702e-01
9.99770967e-01
9.99960418e-01
1.00015133e+00