# vtk DataFile Version 2.0
LBM Flow Field - Timestep 2110
ASCII
DATASET STRUCTURED_POINTS
DIMENSIONS 128 128 1
ORIGIN 0.0 0.0 0.0
SPACING 1.0 1.0 1.0
POINT_DATA 16384
SCALARS density double 1
LOOKUP_TABLE default
1.00013879e+00
1.00014866e+00
1.00016113e+00
1.00017281e+00
1.00018759e+00
1.00020468e+00
1.00022417e+00
1.00024575e+00
1.00026904e+00
1.00029379e+00
1.00031997e+00
1.00034720e+00
1.00037515e+00
1.00040358e+00
1.00043224e+00
1.00046080e+00
1.00048901e+00
1.00051663e+00
1.00054343e+00
1.00056919e+00
1.00059373e+00
1.00061691e+00
1.00063860e+00
1.00065869e+00
1.00067713e+00
1.00069387e+00
1.00070888e+00
1.00072217e+00
1.00073377e+00
1.00074370e+00
1.00075203e+00
1.00075881e+00
1.00076410e+00
1.00076798e+00
1.00077052e+00
1.00077177e+00
1.00077181e+00
1.00077070e+00
1.00076849e+00
1.00076523e+00
1.00076097e+00
1.00075573e+00
1.00074956e+00
1.00074249e+00
1.00073454e+00
1.00072573e+00
1.00071610e+00
1.00070565e+00
1.00069440e+00
1.00068239e+00
1.00066961e+00
1.00065609e+00
1.00064185e+00
1.00062688e+00
1.00061121e+00
1.00059484e+00
1.00057778e+00
1.00056004e+00
1.00054162e+00
1.00052252e+00
1.00050276e+00
1.00048234e+00
1.00046129e+00
1.00043961e+00
1.00041735e+00
1.00039454e+00
1.00037123e+00
1.00034748e+00
1.00032336e+00
1.00029898e+00
1.00027442e+00
1.00024981e+00
1.00022527e+00
1.00020094e+00
1.00017699e+00
1.00015356e+00
1.00013082e+00
1.00010894e+00
1.00008810e+00
1.00006845e+00
1.00005016e+00
1.00003337e+00
1.00001824e+00
1.00000487e+00
9.99993388e-01
9.99983874e-01
9.99976396e-01
9.99971002e-01
9.99967713e-01
9.99966530e-01
9.99967430e-01
9.99970368e-01
9.99975279e-01
9.99982078e-01
9.99990663e-01
1.00000092e+00
1.00001271e+00
1.00002589e+00
1.00004032e+00
1.00005585e+00
1.00007231e+00
1.00008954e+00
1.00010739e+00
1.00012571e+00
1.00014433e+00
1.00016313e+00
1.00018196e+00
1.00020069e+00
1.00021921e+00
1.00023740e+00
1.00025517e+00
1.00027242e+00
1.00028907e+00
1.00030506e+00
1.00032032e+00
1.00033476e+00
1.00034837e+00
1.00036117e+00
1.00037306e+00
1.00038390e+00
1.00039394e+00
1.00040326e+00
1.00041142e+00
1.00041828e+00
1.00042492e+00
1.00043059e+00
1.00043488e+00
1.00043854e+00
1.00014829e+00
1.00015642e+00
1.00016840e+00
1.00017995e+00
1.00019513e+00
1.00021209e+00
1.00023142e+00
1.00025269e+00
1.00027585e+00
1.00030044e+00
1.00032636e+00
1.00035332e+00
1.00038102e+00
1.00040918e+00
1.00043754e+00
1.00046582e+00
1.00049376e+00
1.00052111e+00
1.00054764e+00
1.00057316e+00
1.00059748e+00
1.00062046e+00
1.00064197e+00
1.00066191e+00
1.00068022e+00
1.00069685e+00
1.00071179e+00
1.00072503e+00
1.00073659e+00
1.00074651e+00
1.00075484e+00
1.00076163e+00
1.00076695e+00
1.00077086e+00
1.00077343e+00
1.00077472e+00
1.00077480e+00
1.00077372e+00
1.00077153e+00
1.00076828e+00
1.00076401e+00
1.00075876e+00
1.00075256e+00
1.00074544e+00
1.00073742e+00
1.00072852e+00
1.00071878e+00
1.00070820e+00
1.00069681e+00
1.00068462e+00
1.00067165e+00
1.00065793e+00
1.00064345e+00
1.00062825e+00
1.00061233e+00
1.00059569e+00
1.00057836e+00
1.00056034e+00
1.00054165e+00
1.00052228e+00
1.00050225e+00
1.00048158e+00
1.00046028e+00
1.00043838e+00
1.00041590e+00
1.00039290e+00
1.00036943e+00
1.00034554e+00
1.00032131e+00
1.00029683e+00
1.00027220e+00
1.00024754e+00
1.00022297e+00
1.00019864e+00
1.00017469e+00
1.00015128e+00
1.00012857e+00
1.00010673e+00
1.00008592e+00
1.00006631e+00
1.00004805e+00
1.00003128e+00
1.00001616e+00
1.00000280e+00
9.99991298e-01
9.99981753e-01
9.99974228e-01
9.99968768e-01
9.99965397e-01
9.99964115e-01
9.99964900e-01
9.99967708e-01
9.99972477e-01
9.99979122e-01
9.99987543e-01
9.99997625e-01
1.00000924e+00
1.00002225e+00
1.00003650e+00
1.00005185e+00
1.00006813e+00
1.00008520e+00
1.00010289e+00
1.00012105e+00
1.00013954e+00
1.00015821e+00
1.00017692e+00
1.00019555e+00
1.00021398e+00
1.00023210e+00
1.00024981e+00
1.00026701e+00
1.00028363e+00
1.00029960e+00
1.00031485e+00
1.00032932e+00
1.00034299e+00
1.00035580e+00
1.00036772e+00
1.00037871e+00
1.00038889e+00
1.00039808e+00
1.00040632e+00
1.00041353e+00
1.00042041e+00
1.00042550e+00
1.00043060e+00
1.00043513e+00
1.00016230e+00
1.00017000e+00
1.00017995e+00
1.00019241e+00
1.00020712e+00
1.00022394e+00
1.00024313e+00
1.00026410e+00
1.00028695e+00
1.00031138e+00
1.00033702e+00
1.00036363e+00
1.00039104e+00
1.00041890e+00
1.00044693e+00
1.00047487e+00
1.00050249e+00
1.00052952e+00
1.00055575e+00
1.00058097e+00
1.00060502e+00
1.00062774e+00
1.00064901e+00
1.00066874e+00
1.00068686e+00
1.00070332e+00
1.00071811e+00
1.00073122e+00
1.00074267e+00
1.00075250e+00
1.00076075e+00
1.00076747e+00
1.00077273e+00
1.00077659e+00
1.00077910e+00
1.00078034e+00
1.00078035e+00
1.00077920e+00
1.00077693e+00
1.00077359e+00
1.00076922e+00
1.00076384e+00
1.00075750e+00
1.00075021e+00
1.00074201e+00
1.00073291e+00
1.00072294e+00
1.00071211e+00
1.00070044e+00
1.00068796e+00
1.00067468e+00
1.00066063e+00
1.00064581e+00
1.00063024e+00
1.00061395e+00
1.00059694e+00
1.00057923e+00
1.00056083e+00
1.00054175e+00
1.00052201e+00
1.00050162e+00
1.00048059e+00
1.00045896e+00
1.00043674e+00
1.00041398e+00
1.00039070e+00
1.00036698e+00
1.00034287e+00
1.00031844e+00
1.00029379e+00
1.00026901e+00
1.00024422e+00
1.00021955e+00
1.00019513e+00
1.00017110e+00
1.00014763e+00
1.00012486e+00
1.00010297e+00
1.00008211e+00
1.00006244e+00
1.00004412e+00
1.00002730e+00
1.00001210e+00
9.99998645e-01
9.99987043e-01
9.99977380e-01
9.99969721e-01
9.99964111e-01
9.99960574e-01
9.99959111e-01
9.99959700e-01
9.99962301e-01
9.99966851e-01
9.99973268e-01
9.99981455e-01
9.99991298e-01
1.00000267e+00
1.00001544e+00
1.00002946e+00
1.00004457e+00
1.00006063e+00
1.00007748e+00
1.00009496e+00
1.00011293e+00
1.00013124e+00
1.00014973e+00
1.00016829e+00
1.00018679e+00
1.00020510e+00
1.00022311e+00
1.00024073e+00
1.00025787e+00
1.00027444e+00
1.00029036e+00
1.00030558e+00
1.00032006e+00
1.00033374e+00
1.00034652e+00
1.00035847e+00
1.00036962e+00
1.00037977e+00
1.00038882e+00
1.00039730e+00
1.00040489e+00
1.00041102e+00
1.00041620e+00
1.00042263e+00
1.00042812e+00
1.00017946e+00
1.00018719e+00
1.00019720e+00
1.00020965e+00
1.00022369e+00
1.00024023e+00
1.00025914e+00
1.00027993e+00
1.00030244e+00
1.00032649e+00
1.00035180e+00
1.00037810e+00
1.00040513e+00
1.00043261e+00
1.00046027e+00
1.00048786e+00
1.00051510e+00
1.00054177e+00
1.00056766e+00
1.00059255e+00
1.00061628e+00
1.00063870e+00
1.00065970e+00
1.00067916e+00
1.00069704e+00
1.00071328e+00
1.00072786e+00
1.00074078e+00
1.00075206e+00
1.00076172e+00
1.00076981e+00
1.00077638e+00
1.00078149e+00
1.00078518e+00
1.00078753e+00
1.00078860e+00
1.00078843e+00
1.00078709e+00
1.00078461e+00
1.00078104e+00
1.00077642e+00
1.00077078e+00
1.00076415e+00
1.00075656e+00
1.00074804e+00
1.00073859e+00
1.00072826e+00
1.00071705e+00
1.00070499e+00
1.00069210e+00
1.00067840e+00
1.00066391e+00
1.00064865e+00
1.00063263e+00
1.00061589e+00
1.00059842e+00
1.00058025e+00
1.00056140e+00
1.00054188e+00
1.00052170e+00
1.00050088e+00
1.00047945e+00
1.00045742e+00
1.00043483e+00
1.00041171e+00
1.00038811e+00
1.00036408e+00
1.00033968e+00
1.00031499e+00
1.00029010e+00
1.00026510e+00
1.00024011e+00
1.00021525e+00
1.00019066e+00
1.00016648e+00
1.00014286e+00
1.00011995e+00
1.00009791e+00
1.00007691e+00
1.00005710e+00
1.00003863e+00
1.00002165e+00
1.00000628e+00
9.99992640e-01
9.99980841e-01
9.99970964e-01
9.99963076e-01
9.99957222e-01
9.99953424e-01
9.99951686e-01
9.99951988e-01
9.99954290e-01
9.99958531e-01
9.99964633e-01
9.99972500e-01
9.99982022e-01
9.99993074e-01
1.00000552e+00
1.00001923e+00
1.00003404e+00
1.00004981e+00
1.00006637e+00
1.00008359e+00
1.00010131e+00
1.00011938e+00
1.00013767e+00
1.00015603e+00
1.00017435e+00
1.00019250e+00
1.00021038e+00
1.00022789e+00
1.00024492e+00
1.00026141e+00
1.00027728e+00
1.00029246e+00
1.00030689e+00
1.00032054e+00
1.00033336e+00
1.00034531e+00
1.00035637e+00
1.00036654e+00
1.00037580e+00
1.00038412e+00
1.00039145e+00
1.00039782e+00
1.00040357e+00
1.00040908e+00
1.00041427e+00
1.00020253e+00
1.00020976e+00
1.00021917e+00
1.00023097e+00
1.00024499e+00
1.00026126e+00
1.00027963e+00
1.00030012e+00
1.00032228e+00
1.00034587e+00
1.00037078e+00
1.00039669e+00
1.00042327e+00
1.00045030e+00
1.00047754e+00
1.00050469e+00
1.00053151e+00
1.00055776e+00
1.00058324e+00
1.00060775e+00
1.00063110e+00
1.00065318e+00
1.00067384e+00
1.00069299e+00
1.00071058e+00
1.00072654e+00
1.00074086e+00
1.00075353e+00
1.00076456e+00
1.00077399e+00
1.00078184e+00
1.00078818e+00
1.00079304e+00
1.00079649e+00
1.00079859e+00
1.00079938e+00
1.00079892e+00
1.00079727e+00
1.00079447e+00
1.00079055e+00
1.00078556e+00
1.00077954e+00
1.00077250e+00
1.00076448e+00
1.00075551e+00
1.00074560e+00
1.00073478e+00
1.00072307e+00
1.00071050e+00
1.00069709e+00
1.00068286e+00
1.00066782e+00
1.00065202e+00
1.00063546e+00
1.00061816e+00
1.00060015e+00
1.00058145e+00
1.00056206e+00
1.00054202e+00
1.00052133e+00
1.00050002e+00
1.00047811e+00
1.00045563e+00
1.00043261e+00
1.00040907e+00
1.00038508e+00
1.00036068e+00
1.00033593e+00
1.00031092e+00
1.00028572e+00
1.00026044e+00
1.00023519e+00
1.00021008e+00
1.00018525e+00
1.00016085e+00
1.00013700e+00
1.00011388e+00
1.00009163e+00
1.00007042e+00
1.00005038e+00
1.00003168e+00
1.00001445e+00
9.99998829e-01
9.99984922e-01
9.99972836e-01
9.99962656e-01
9.99954446e-01
9.99948253e-01
9.99944100e-01
9.99941992e-01
9.99941910e-01
9.99943817e-01
9.99947655e-01
9.99953347e-01
9.99960801e-01
9.99969910e-01
9.99980552e-01
9.99992597e-01
1.00000591e+00
1.00002033e+00
1.00003573e+00
1.00005195e+00
1.00006883e+00
1.00008624e+00
1.00010402e+00
1.00012203e+00
1.00014015e+00
1.00015825e+00
1.00017621e+00
1.00019391e+00
1.00021127e+00
1.00022818e+00
1.00024455e+00
1.00026033e+00
1.00027545e+00
1.00028982e+00
1.00030340e+00
1.00031621e+00
1.00032815e+00
1.00033912e+00
1.00034926e+00
1.00035863e+00
1.00036682e+00
1.00037386e+00
1.00038044e+00
1.00038648e+00
1.00039109e+00
1.00039541e+00
1.00023013e+00
1.00023676e+00
1.00024585e+00
1.00025708e+00
1.00027074e+00
1.00028667e+00
1.00030464e+00
1.00032459e+00
1.00034630e+00
1.00036950e+00
1.00039390e+00
1.00041927e+00
1.00044537e+00
1.00047192e+00
1.00049865e+00
1.00052529e+00
1.00055162e+00
1.00057740e+00
1.00060241e+00
1.00062647e+00
1.00064940e+00
1.00067106e+00
1.00069133e+00
1.00071012e+00
1.00072735e+00
1.00074297e+00
1.00075697e+00
1.00076932e+00
1.00078005e+00
1.00078918e+00
1.00079673e+00
1.00080275e+00
1.00080730e+00
1.00081042e+00
1.00081216e+00
1.00081259e+00
1.00081175e+00
1.00080969e+00
1.00080646e+00
1.00080209e+00
1.00079663e+00
1.00079010e+00
1.00078254e+00
1.00077398e+00
1.00076444e+00
1.00075394e+00
1.00074253e+00
1.00073021e+00
1.00071701e+00
1.00070296e+00
1.00068809e+00
1.00067242e+00
1.00065596e+00
1.00063876e+00
1.00062082e+00
1.00060218e+00
1.00058285e+00
1.00056285e+00
1.00054221e+00
1.00052094e+00
1.00049906e+00
1.00047661e+00
1.00045360e+00
1.00043007e+00
1.00040606e+00
1.00038161e+00
1.00035677e+00
1.00033162e+00
1.00030622e+00
1.00028066e+00
1.00025503e+00
1.00022945e+00
1.00020403e+00
1.00017890e+00
1.00015420e+00
1.00013007e+00
1.00010666e+00
1.00008413e+00
1.00006262e+00
1.00004229e+00
1.00002328e+00
1.00000573e+00
9.99989765e-01
9.99975504e-01
9.99963046e-01
9.99952475e-01
9.99943855e-01
9.99937234e-01
9.99932636e-01
9.99930066e-01
9.99929509e-01
9.99930930e-01
9.99934272e-01
9.99939464e-01
9.99946416e-01
9.99955024e-01
9.99965171e-01
9.99976729e-01
9.99989563e-01
1.00000353e+00
1.00001849e+00
1.00003428e+00
1.00005077e+00
1.00006780e+00
1.00008523e+00
1.00010293e+00
1.00012075e+00
1.00013859e+00
1.00015631e+00
1.00017380e+00
1.00019097e+00
1.00020772e+00
1.00022397e+00
1.00023962e+00
1.00025463e+00
1.00026893e+00
1.00028246e+00
1.00029515e+00
1.00030703e+00
1.00031805e+00
1.00032811e+00
1.00033720e+00
1.00034542e+00
1.00035270e+00
1.00035889e+00
1.00036430e+00
1.00036903e+00
1.00037307e+00
1.00026205e+00
1.00026830e+00
1.00027703e+00
1.00028775e+00
1.00030082e+00
1.00031630e+00
1.00033387e+00
1.00035329e+00
1.00037446e+00
1.00039713e+00
1.00042097e+00
1.00044578e+00
1.00047133e+00
1.00049730e+00
1.00052345e+00
1.00054954e+00
1.00057532e+00
1.00060055e+00
1.00062504e+00
1.00064860e+00
1.00067104e+00
1.00069224e+00
1.00071207e+00
1.00073043e+00
1.00074725e+00
1.00076249e+00
1.00077610e+00
1.00078809e+00
1.00079845e+00
1.00080721e+00
1.00081439e+00
1.00082003e+00
1.00082419e+00
1.00082690e+00
1.00082822e+00
1.00082820e+00
1.00082688e+00
1.00082432e+00
1.00082056e+00
1.00081564e+00
1.00080959e+00
1.00080246e+00
1.00079427e+00
1.00078505e+00
1.00077483e+00
1.00076365e+00
1.00075152e+00
1.00073848e+00
1.00072455e+00
1.00070976e+00
1.00069415e+00
1.00067773e+00
1.00066053e+00
1.00064259e+00
1.00062392e+00
1.00060455e+00
1.00058451e+00
1.00056381e+00
1.00054249e+00
1.00052056e+00
1.00049804e+00
1.00047497e+00
1.00045136e+00
1.00042726e+00
1.00040270e+00
1.00037773e+00
1.00035239e+00
1.00032676e+00
1.00030091e+00
1.00027491e+00
1.00024887e+00
1.00022290e+00
1.00019709e+00
1.00017159e+00
1.00014653e+00
1.00012204e+00
1.00009828e+00
1.00007539e+00
1.00005351e+00
1.00003281e+00
1.00001341e+00
9.99995459e-01
9.99979079e-01
9.99964382e-01
9.99951468e-01
9.99940421e-01
9.99931306e-01
9.99924170e-01
9.99919039e-01
9.99915921e-01
9.99914801e-01
9.99915648e-01
9.99918410e-01
9.99923017e-01
9.99929383e-01
9.99937409e-01
9.99946980e-01
9.99957975e-01
9.99970260e-01
9.99983697e-01
9.99998142e-01
1.00001345e+00
1.00002948e+00
1.00004608e+00
1.00006311e+00
1.00008044e+00
1.00009793e+00
1.00011546e+00
1.00013291e+00
1.00015016e+00
1.00016711e+00
1.00018367e+00
1.00019976e+00
1.00021528e+00
1.00023015e+00
1.00024435e+00
1.00025780e+00
1.00027042e+00
1.00028218e+00
1.00029313e+00
1.00030315e+00
1.00031209e+00
1.00032016e+00
1.00032740e+00
1.00033339e+00
1.00033836e+00
1.00034301e+00
1.00034675e+00
1.00029830e+00
1.00030407e+00
1.00031217e+00
1.00032255e+00
1.00033520e+00
1.00035004e+00
1.00036705e+00
1.00038599e+00
1.00040657e+00
1.00042859e+00
1.00045184e+00
1.00047606e+00
1.00050095e+00
1.00052628e+00
1.00055182e+00
1.00057729e+00
1.00060245e+00
1.00062709e+00
1.00065101e+00
1.00067400e+00
1.00069591e+00
1.00071659e+00
1.00073593e+00
1.00075382e+00
1.00077018e+00
1.00078498e+00
1.00079816e+00
1.00080972e+00
1.00081966e+00
1.00082799e+00
1.00083474e+00
1.00083994e+00
1.00084364e+00
1.00084587e+00
1.00084669e+00
1.00084614e+00
1.00084427e+00
1.00084112e+00
1.00083674e+00
1.00083117e+00
1.00082444e+00
1.00081660e+00
1.00080767e+00
1.00079769e+00
1.00078670e+00
1.00077471e+00
1.00076177e+00
1.00074790e+00
1.00073313e+00
1.00071751e+00
1.00070105e+00
1.00068378e+00
1.00066575e+00
1.00064697e+00
1.00062748e+00
1.00060730e+00
1.00058646e+00
1.00056499e+00
1.00054291e+00
1.00052023e+00
1.00049700e+00
1.00047323e+00
1.00044896e+00
1.00042421e+00
1.00039903e+00
1.00037347e+00
1.00034757e+00
1.00032139e+00
1.00029502e+00
1.00026852e+00
1.00024200e+00
1.00021556e+00
1.00018930e+00
1.00016336e+00
1.00013786e+00
1.00011295e+00
1.00008875e+00
1.00006542e+00
1.00004311e+00
1.00002195e+00
1.00000209e+00
9.99983658e-01
9.99966779e-01
9.99951564e-01
9.99938112e-01
9.99926507e-01
9.99916812e-01
9.99909077e-01
9.99903329e-01
9.99899578e-01
9.99897812e-01
9.99898003e-01
9.99900102e-01
9.99904043e-01
9.99909745e-01
9.99917112e-01
9.99926035e-01
9.99936395e-01
9.99948063e-01
9.99960905e-01
9.99974780e-01
9.99989547e-01
1.00000506e+00
1.00002119e+00
1.00003777e+00
1.00005469e+00
1.00007181e+00
1.00008900e+00
1.00010614e+00
1.00012312e+00
1.00013984e+00
1.00015619e+00
1.00017208e+00
1.00018745e+00
1.00020220e+00
1.00021626e+00
1.00022957e+00
1.00024213e+00
1.00025382e+00
1.00026458e+00
1.00027447e+00
1.00028346e+00
1.00029135e+00
1.00029818e+00
1.00030412e+00
1.00030907e+00
1.00031314e+00
1.00031643e+00
1.00033844e+00
1.00034380e+00
1.00035138e+00
1.00036129e+00
1.00037342e+00
1.00038770e+00
1.00040412e+00
1.00042244e+00
1.00044238e+00
1.00046375e+00
1.00048634e+00
1.00050986e+00
1.00053406e+00
1.00055872e+00
1.00058357e+00
1.00060835e+00
1.00063286e+00
1.00065685e+00
1.00068014e+00
1.00070253e+00
1.00072385e+00
1.00074398e+00
1.00076277e+00
1.00078014e+00
1.00079600e+00
1.00081031e+00
1.00082301e+00
1.00083410e+00
1.00084357e+00
1.00085142e+00
1.00085769e+00
1.00086239e+00
1.00086556e+00
1.00086725e+00
1.00086749e+00
1.00086634e+00
1.00086383e+00
1.00086002e+00
1.00085494e+00
1.00084863e+00
1.00084113e+00
1.00083249e+00
1.00082273e+00
1.00081190e+00
1.00080002e+00
1.00078714e+00
1.00077328e+00
1.00075849e+00
1.00074279e+00
1.00072622e+00
1.00070882e+00
1.00069062e+00
1.00067165e+00
1.00065195e+00
1.00063155e+00
1.00061047e+00
1.00058876e+00
1.00056642e+00
1.00054350e+00
1.00052001e+00
1.00049598e+00
1.00047145e+00
1.00044643e+00
1.00042097e+00
1.00039510e+00
1.00036887e+00
1.00034233e+00
1.00031554e+00
1.00028858e+00
1.00026151e+00
1.00023444e+00
1.00020746e+00
1.00018068e+00
1.00015423e+00
1.00012823e+00
1.00010280e+00
1.00007810e+00
1.00005427e+00
1.00003143e+00
1.00000975e+00
9.99989343e-01
9.99970351e-01
9.99952894e-01
9.99937081e-01
9.99923011e-01
9.99910764e-01
9.99900409e-01
9.99891993e-01
9.99885547e-01
9.99881082e-01
9.99878590e-01
9.99878046e-01
9.99879404e-01
9.99882604e-01
9.99887569e-01
9.99894206e-01
9.99902411e-01
9.99912070e-01
9.99923059e-01
9.99935246e-01
9.99948496e-01
9.99962670e-01
9.99977627e-01
9.99993227e-01
1.00000933e+00
1.00002580e+00
1.00004251e+00
1.00005934e+00
1.00007615e+00
1.00009283e+00
1.00010929e+00
1.00012542e+00
1.00014112e+00
1.00015630e+00
1.00017090e+00
1.00018484e+00
1.00019802e+00
1.00021043e+00
1.00022203e+00
1.00023271e+00
1.00024243e+00
1.00025126e+00
1.00025905e+00
1.00026569e+00
1.00027137e+00
1.00027614e+00
1.00027989e+00
1.00028284e+00
1.00038228e+00
1.00038723e+00
1.00039445e+00
1.00040374e+00
1.00041526e+00
1.00042904e+00
1.00044483e+00
1.00046243e+00
1.00048170e+00
1.00050240e+00
1.00052424e+00
1.00054701e+00
1.00057049e+00
1.00059441e+00
1.00061851e+00
1.00064257e+00
1.00066636e+00
1.00068966e+00
1.00071227e+00
1.00073401e+00
1.00075470e+00
1.00077422e+00
1.00079243e+00
1.00080923e+00
1.00082455e+00
1.00083833e+00
1.00085051e+00
1.00086109e+00
1.00087004e+00
1.00087737e+00
1.00088310e+00
1.00088724e+00
1.00088984e+00
1.00089093e+00
1.00089054e+00
1.00088872e+00
1.00088551e+00
1.00088095e+00
1.00087509e+00
1.00086797e+00
1.00085962e+00
1.00085009e+00
1.00083942e+00
1.00082764e+00
1.00081480e+00
1.00080092e+00
1.00078606e+00
1.00077025e+00
1.00075352e+00
1.00073592e+00
1.00071749e+00
1.00069826e+00
1.00067827e+00
1.00065756e+00
1.00063616e+00
1.00061410e+00
1.00059143e+00
1.00056815e+00
1.00054431e+00
1.00051992e+00
1.00049503e+00
1.00046965e+00
1.00044382e+00
1.00041757e+00
1.00039094e+00
1.00036398e+00
1.00033673e+00
1.00030926e+00
1.00028163e+00
1.00025393e+00
1.00022623e+00
1.00019865e+00
1.00017128e+00
1.00014424e+00
1.00011765e+00
1.00009165e+00
1.00006637e+00
1.00004195e+00
1.00001852e+00
9.99996233e-01
9.99975209e-01
9.99955580e-01
9.99937466e-01
9.99920977e-01
9.99906208e-01
9.99893242e-01
9.99882147e-01
9.99872972e-01
9.99865750e-01
9.99860494e-01
9.99857200e-01
9.99855846e-01
9.99856392e-01
9.99858780e-01
9.99862937e-01
9.99868779e-01
9.99876204e-01
9.99885103e-01
9.99895355e-01
9.99906835e-01
9.99919410e-01
9.99932945e-01
9.99947301e-01
9.99962339e-01
9.99977925e-01
9.99993922e-01
1.00001020e+00
1.00002663e+00
1.00004309e+00
1.00005947e+00
1.00007565e+00
1.00009153e+00
1.00010702e+00
1.00012202e+00
1.00013645e+00
1.00015024e+00
1.00016333e+00
1.00017560e+00
1.00018703e+00
1.00019763e+00
1.00020725e+00
1.00021584e+00
1.00022346e+00
1.00023004e+00
1.00023544e+00
1.00023983e+00
1.00024341e+00
1.00024610e+00
1.00042977e+00
1.00043425e+00
1.00044094e+00
1.00044969e+00
1.00046065e+00
1.00047379e+00
1.00048889e+00
1.00050580e+00
1.00052435e+00
1.00054427e+00
1.00056534e+00
1.00058734e+00
1.00061003e+00
1.00063314e+00
1.00065645e+00
1.00067974e+00
1.00070277e+00
1.00072532e+00
1.00074721e+00
1.00076825e+00
1.00078827e+00
1.00080714e+00
1.00082473e+00
1.00084093e+00
1.00085567e+00
1.00086887e+00
1.00088050e+00
1.00089052e+00
1.00089891e+00
1.00090568e+00
1.00091083e+00
1.00091437e+00
1.00091635e+00
1.00091678e+00
1.00091571e+00
1.00091316e+00
1.00090919e+00
1.00090383e+00
1.00089713e+00
1.00088912e+00
1.00087985e+00
1.00086936e+00
1.00085769e+00
1.00084489e+00
1.00083099e+00
1.00081605e+00
1.00080009e+00
1.00078317e+00
1.00076533e+00
1.00074662e+00
1.00072707e+00
1.00070673e+00
1.00068563e+00
1.00066383e+00
1.00064135e+00
1.00061823e+00
1.00059451e+00
1.00057022e+00
1.00054538e+00
1.00052003e+00
1.00049419e+00
1.00046789e+00
1.00044118e+00
1.00041407e+00
1.00038660e+00
1.00035883e+00
1.00033081e+00
1.00030258e+00
1.00027422e+00
1.00024581e+00
1.00021742e+00
1.00018916e+00
1.00016112e+00
1.00013342e+00
1.00010619e+00
1.00007954e+00
1.00005361e+00
1.00002852e+00
1.00000443e+00
9.99981458e-01
9.99959738e-01
9.99939396e-01
9.99920550e-01
9.99903307e-01
9.99887764e-01
9.99874003e-01
9.99862092e-01
9.99852083e-01
9.99844011e-01
9.99837891e-01
9.99833724e-01
9.99831490e-01
9.99831154e-01
9.99832665e-01
9.99835953e-01
9.99840938e-01
9.99847525e-01
9.99855609e-01
9.99865075e-01
9.99875801e-01
9.99887657e-01
9.99900512e-01
9.99914230e-01
9.99928676e-01
9.99943713e-01
9.99959207e-01
9.99975029e-01
9.99991048e-01
1.00000714e+00
1.00002319e+00
1.00003909e+00
1.00005472e+00
1.00006999e+00
1.00008481e+00
1.00009907e+00
1.00011270e+00
1.00012564e+00
1.00013781e+00
1.00014912e+00
1.00015954e+00
1.00016905e+00
1.00017751e+00
1.00018492e+00
1.00019129e+00
1.00019651e+00
1.00020063e+00
1.00020390e+00
1.00020622e+00
1.00048059e+00
1.00048455e+00
1.00049064e+00
1.00049888e+00
1.00050926e+00
1.00052168e+00
1.00053609e+00
1.00055230e+00
1.00057005e+00
1.00058915e+00
1.00060942e+00
1.00063060e+00
1.00065243e+00
1.00067470e+00
1.00069719e+00
1.00071965e+00
1.00074186e+00
1.00076363e+00
1.00078476e+00
1.00080505e+00
1.00082436e+00
1.00084255e+00
1.00085947e+00
1.00087504e+00
1.00088916e+00
1.00090176e+00
1.00091279e+00
1.00092222e+00
1.00093002e+00
1.00093618e+00
1.00094072e+00
1.00094363e+00
1.00094494e+00
1.00094468e+00
1.00094287e+00
1.00093956e+00
1.00093477e+00
1.00092855e+00
1.00092095e+00
1.00091199e+00
1.00090174e+00
1.00089022e+00
1.00087749e+00
1.00086359e+00
1.00084857e+00
1.00083248e+00
1.00081536e+00
1.00079726e+00
1.00077823e+00
1.00075831e+00
1.00073757e+00
1.00071603e+00
1.00069376e+00
1.00067078e+00
1.00064715e+00
1.00062289e+00
1.00059805e+00
1.00057266e+00
1.00054675e+00
1.00052036e+00
1.00049350e+00
1.00046622e+00
1.00043854e+00
1.00041050e+00
1.00038214e+00
1.00035349e+00
1.00032461e+00
1.00029556e+00
1.00026640e+00
1.00023721e+00
1.00020806e+00
1.00017905e+00
1.00015027e+00
1.00012185e+00
1.00009389e+00
1.00006652e+00
1.00003986e+00
1.00001405e+00
9.99989210e-01
9.99965484e-01
9.99942994e-01
9.99921865e-01
9.99902212e-01
9.99884142e-01
9.99867751e-01
9.99853122e-01
9.99840324e-01
9.99829410e-01
9.99820417e-01
9.99813365e-01
9.99808258e-01
9.99805080e-01
9.99803801e-01
9.99804374e-01
9.99806735e-01
9.99810810e-01
9.99816508e-01
9.99823730e-01
9.99832364e-01
9.99842294e-01
9.99853394e-01
9.99865535e-01
9.99878586e-01
9.99892411e-01
9.99906877e-01
9.99921849e-01
9.99937197e-01
9.99952792e-01
9.99968508e-01
9.99984224e-01
9.99999829e-01
1.00001521e+00
1.00003025e+00
1.00004487e+00
1.00005898e+00
1.00007246e+00
1.00008524e+00
1.00009728e+00
1.00010849e+00
1.00011876e+00
1.00012809e+00
1.00013645e+00
1.00014369e+00
1.00014979e+00
1.00015481e+00
1.00015874e+00
1.00016162e+00
1.00016355e+00
1.00053438e+00
1.00053786e+00
1.00054341e+00
1.00055104e+00
1.00056077e+00
1.00057252e+00
1.00058621e+00
1.00060162e+00
1.00061855e+00
1.00063684e+00
1.00065624e+00
1.00067652e+00
1.00069747e+00
1.00071887e+00
1.00074047e+00
1.00076206e+00
1.00078343e+00
1.00080436e+00
1.00082468e+00
1.00084420e+00
1.00086276e+00
1.00088022e+00
1.00089645e+00
1.00091135e+00
1.00092481e+00
1.00093678e+00
1.00094719e+00
1.00095600e+00
1.00096317e+00
1.00096871e+00
1.00097260e+00
1.00097484e+00
1.00097545e+00
1.00097446e+00
1.00097188e+00
1.00096776e+00
1.00096211e+00
1.00095500e+00
1.00094644e+00
1.00093649e+00
1.00092520e+00
1.00091260e+00
1.00089875e+00
1.00088369e+00
1.00086748e+00
1.00085017e+00
1.00083182e+00
1.00081247e+00
1.00079218e+00
1.00077100e+00
1.00074898e+00
1.00072619e+00
1.00070265e+00
1.00067843e+00
1.00065357e+00
1.00062810e+00
1.00060207e+00
1.00057552e+00
1.00054847e+00
1.00052095e+00
1.00049301e+00
1.00046467e+00
1.00043596e+00
1.00040692e+00
1.00037759e+00
1.00034800e+00
1.00031820e+00
1.00028826e+00
1.00025823e+00
1.00022818e+00
1.00019820e+00
1.00016837e+00
1.00013879e+00
1.00010957e+00
1.00008082e+00
1.00005265e+00
1.00002520e+00
9.99998581e-01
9.99972934e-01
9.99948382e-01
9.99925051e-01
9.99903063e-01
9.99882533e-01
9.99863566e-01
9.99846257e-01
9.99830691e-01
9.99816938e-01
9.99805052e-01
9.99795074e-01
9.99787027e-01
9.99780918e-01
9.99776737e-01
9.99774458e-01
9.99774038e-01
9.99775422e-01
9.99778538e-01
9.99783302e-01
9.99789619e-01
9.99797383e-01
9.99806482e-01
9.99816794e-01
9.99828193e-01
9.99840551e-01
9.99853734e-01
9.99867610e-01
9.99882045e-01
9.99896906e-01
9.99912066e-01
9.99927398e-01
9.99942775e-01
9.99958080e-01
9.99973203e-01
9.99988031e-01
1.00000245e+00
1.00001638e+00
1.00002972e+00
1.00004238e+00
1.00005427e+00
1.00006535e+00
1.00007552e+00
1.00008470e+00
1.00009286e+00
1.00009995e+00
1.00010588e+00
1.00011065e+00
1.00011430e+00
1.00011688e+00
1.00011846e+00
1.00059091e+00
1.00059389e+00
1.00059888e+00
1.00060588e+00
1.00061495e+00
1.00062602e+00
1.00063893e+00
1.00065351e+00
1.00066962e+00
1.00068703e+00
1.00070551e+00
1.00072488e+00
1.00074491e+00
1.00076537e+00
1.00078605e+00
1.00080673e+00
1.00082721e+00
1.00084727e+00
1.00086675e+00
1.00088545e+00
1.00090323e+00
1.00091993e+00
1.00093544e+00
1.00094963e+00
1.00096242e+00
1.00097372e+00
1.00098348e+00
1.00099164e+00
1.00099817e+00
1.00100305e+00
1.00100627e+00
1.00100782e+00
1.00100771e+00
1.00100595e+00
1.00100258e+00
1.00099761e+00
1.00099108e+00
1.00098302e+00
1.00097348e+00
1.00096249e+00
1.00095011e+00
1.00093639e+00
1.00092136e+00
1.00090510e+00
1.00088765e+00
1.00086908e+00
1.00084943e+00
1.00082877e+00
1.00080715e+00
1.00078464e+00
1.00076130e+00
1.00073717e+00
1.00071232e+00
1.00068678e+00
1.00066062e+00
1.00063388e+00
1.00060659e+00
1.00057880e+00
1.00055054e+00
1.00052185e+00
1.00049276e+00
1.00046329e+00
1.00043349e+00
1.00040338e+00
1.00037300e+00
1.00034240e+00
1.00031163e+00
1.00028072e+00
1.00024976e+00
1.00021880e+00
1.00018792e+00
1.00015720e+00
1.00012675e+00
1.00009666e+00
1.00006705e+00
1.00003802e+00
1.00000970e+00
9.99982213e-01
9.99955685e-01
9.99930239e-01
9.99905999e-01
9.99883086e-01
9.99861610e-01
9.99841679e-01
9.99823388e-01
9.99806820e-01
9.99792048e-01
9.99779129e-01
9.99768106e-01
9.99759005e-01
9.99751839e-01
9.99746601e-01
9.99743271e-01
9.99741812e-01
9.99742173e-01
9.99744288e-01
9.99748079e-01
9.99753455e-01
9.99760318e-01
9.99768556e-01
9.99778055e-01
9.99788690e-01
9.99800336e-01
9.99812860e-01
9.99826133e-01
9.99840020e-01
9.99854389e-01
9.99869107e-01
9.99884049e-01
9.99899088e-01
9.99914097e-01
9.99928960e-01
9.99943568e-01
9.99957807e-01
9.99971565e-01
9.99984756e-01
9.99997292e-01
1.00000906e+00
1.00002000e+00
1.00003004e+00
1.00003910e+00
1.00004710e+00
1.00005400e+00
1.00005976e+00
1.00006430e+00
1.00006766e+00
1.00006994e+00
1.00007117e+00
1.00064990e+00
1.00065234e+00
1.00065674e+00
1.00066314e+00
1.00067154e+00
1.00068186e+00
1.00069397e+00
1.00070773e+00
1.00072296e+00
1.00073944e+00
1.00075699e+00
1.00077541e+00
1.00079447e+00
1.00081396e+00
1.00083368e+00
1.00085342e+00
1.00087296e+00
1.00089212e+00
1.00091071e+00
1.00092857e+00
1.00094552e+00
1.00096144e+00
1.00097619e+00
1.00098965e+00
1.00100174e+00
1.00101235e+00
1.00102144e+00
1.00102893e+00
1.00103480e+00
1.00103900e+00
1.00104152e+00
1.00104236e+00
1.00104150e+00
1.00103897e+00
1.00103477e+00
1.00102894e+00
1.00102149e+00
1.00101247e+00
1.00100191e+00
1.00098986e+00
1.00097636e+00
1.00096147e+00
1.00094524e+00
1.00092773e+00
1.00090900e+00
1.00088910e+00
1.00086812e+00
1.00084609e+00
1.00082311e+00
1.00079921e+00
1.00077448e+00
1.00074897e+00
1.00072273e+00
1.00069583e+00
1.00066831e+00
1.00064023e+00
1.00061162e+00
1.00058254e+00
1.00055301e+00
1.00052307e+00
1.00049276e+00
1.00046211e+00
1.00043115e+00
1.00039991e+00
1.00036844e+00
1.00033677e+00
1.00030494e+00
1.00027302e+00
1.00024105e+00
1.00020911e+00
1.00017727e+00
1.00014561e+00
1.00011422e+00
1.00008320e+00
1.00005266e+00
1.00002270e+00
9.99993456e-01
9.99965033e-01
9.99937559e-01
9.99911155e-01
9.99885942e-01
9.99862039e-01
9.99839556e-01
9.99818599e-01
9.99799263e-01
9.99781635e-01
9.99765786e-01
9.99751777e-01
9.99739654e-01
9.99729448e-01
9.99721174e-01
9.99714832e-01
9.99710407e-01
9.99707866e-01
9.99707165e-01
9.99708243e-01
9.99711027e-01
9.99715434e-01
9.99721368e-01
9.99728723e-01
9.99737387e-01
9.99747241e-01
9.99758160e-01
9.99770016e-01
9.99782676e-01
9.99796008e-01
9.99809879e-01
9.99824157e-01
9.99838708e-01
9.99853405e-01
9.99868123e-01
9.99882736e-01
9.99897123e-01
9.99911178e-01
9.99924785e-01
9.99937833e-01
9.99950234e-01
9.99961898e-01
9.99972721e-01
9.99982626e-01
9.99991556e-01
9.99999420e-01
1.00000614e+00
1.00001170e+00
1.00001603e+00
1.00001915e+00
1.00002110e+00
1.00002195e+00
1.00071100e+00
1.00071292e+00
1.00071672e+00
1.00072249e+00
1.00073020e+00
1.00073976e+00
1.00075107e+00
1.00076397e+00
1.00077827e+00
1.00079381e+00
1.00081040e+00
1.00082782e+00
1.00084588e+00
1.00086437e+00
1.00088310e+00
1.00090184e+00
1.00092041e+00
1.00093863e+00
1.00095631e+00
1.00097328e+00
1.00098939e+00
1.00100449e+00
1.00101846e+00
1.00103117e+00
1.00104252e+00
1.00105243e+00
1.00106082e+00
1.00106763e+00
1.00107281e+00
1.00107632e+00
1.00107814e+00
1.00107824e+00
1.00107663e+00
1.00107330e+00
1.00106827e+00
1.00106155e+00
1.00105317e+00
1.00104317e+00
1.00103157e+00
1.00101843e+00
1.00100380e+00
1.00098772e+00
1.00097025e+00
1.00095146e+00
1.00093141e+00
1.00091017e+00
1.00088780e+00
1.00086438e+00
1.00083997e+00
1.00081465e+00
1.00078849e+00
1.00076154e+00
1.00073387e+00
1.00070555e+00
1.00067662e+00
1.00064715e+00
1.00061717e+00
1.00058674e+00
1.00055588e+00
1.00052465e+00
1.00049306e+00
1.00046117e+00
1.00042899e+00
1.00039657e+00
1.00036393e+00