# vtk DataFile Version 2.0
LBM Flow Field - Timestep 1830
ASCII
DATASET STRUCTURED_POINTS
DIMENSIONS 128 128 1
ORIGIN 0.0 0.0 0.0
SPACING 1.0 1.0 1.0
POINT_DATA 16384
SCALARS density double 1
LOOKUP_TABLE default
9.98850713e-01
9.98836451e-01
9.98823837e-01
9.98838260e-01
9.98856707e-01
9.98875158e-01
9.98899821e-01
9.98930631e-01
9.98964593e-01
9.99002108e-01
9.99043898e-01
9.99089323e-01
9.99137785e-01
9.99189229e-01
9.99243399e-01
9.99299835e-01
9.99358155e-01
9.99418019e-01
9.99479018e-01
9.99540721e-01
9.99602718e-01
9.99664599e-01
9.99725947e-01
9.99786362e-01
9.99845460e-01
9.99902880e-01
9.99958286e-01
1.00001138e+00
1.00006188e+00
1.00010958e+00
1.00015428e+00
1.00019584e+00
1.00023417e+00
1.00026920e+00
1.00030093e+00
1.00032938e+00
1.00035462e+00
1.00037675e+00
1.00039589e+00
1.00041221e+00
1.00042587e+00
1.00043706e+00
1.00044598e+00
1.00045282e+00
1.00045780e+00
1.00046110e+00
1.00046293e+00
1.00046345e+00
1.00046285e+00
1.00046125e+00
1.00045881e+00
1.00045564e+00
1.00045184e+00
1.00044750e+00
1.00044267e+00
1.00043742e+00
1.00043177e+00
1.00042577e+00
1.00041943e+00
1.00041277e+00
1.00040580e+00
1.00039852e+00
1.00039097e+00
1.00038315e+00
1.00037509e+00
1.00036682e+00
1.00035840e+00
1.00034988e+00
1.00034132e+00
1.00033280e+00
1.00032441e+00
1.00031624e+00
1.00030839e+00
1.00030097e+00
1.00029409e+00
1.00028785e+00
1.00028235e+00
1.00027770e+00
1.00027398e+00
1.00027129e+00
1.00026970e+00
1.00026929e+00
1.00027012e+00
1.00027225e+00
1.00027575e+00
1.00028066e+00
1.00028706e+00
1.00029500e+00
1.00030455e+00
1.00031579e+00
1.00032881e+00
1.00034370e+00
1.00036056e+00
1.00037950e+00
1.00040065e+00
1.00042411e+00
1.00045001e+00
1.00047845e+00
1.00050953e+00
1.00054332e+00
1.00057987e+00
1.00061919e+00
1.00066128e+00
1.00070607e+00
1.00075344e+00
1.00080324e+00
1.00085525e+00
1.00090922e+00
1.00096482e+00
1.00102171e+00
1.00107947e+00
1.00113765e+00
1.00119578e+00
1.00125340e+00
1.00131000e+00
1.00136495e+00
1.00141781e+00
1.00146833e+00
1.00151571e+00
1.00155913e+00
1.00159907e+00
1.00163567e+00
1.00166605e+00
1.00168998e+00
1.00171278e+00
1.00173053e+00
1.00172446e+00
1.00171554e+00
9.98835057e-01
9.98834681e-01
9.98830727e-01
9.98842158e-01
9.98858369e-01
9.98878518e-01
9.98903272e-01
9.98933150e-01
9.98967014e-01
9.99004755e-01
9.99046273e-01
9.99091379e-01
9.99139688e-01
9.99190932e-01
9.99244794e-01
9.99300933e-01
9.99358968e-01
9.99418519e-01
9.99479188e-01
9.99540568e-01
9.99602245e-01
9.99663807e-01
9.99724847e-01
9.99784968e-01
9.99843790e-01
9.99900955e-01
9.99956130e-01
1.00000902e+00
1.00005934e+00
1.00010689e+00
1.00015147e+00
1.00019294e+00
1.00023119e+00
1.00026618e+00
1.00029789e+00
1.00032634e+00
1.00035159e+00
1.00037375e+00
1.00039294e+00
1.00040931e+00
1.00042303e+00
1.00043427e+00
1.00044325e+00
1.00045016e+00
1.00045520e+00
1.00045857e+00
1.00046045e+00
1.00046103e+00
1.00046048e+00
1.00045895e+00
1.00045657e+00
1.00045347e+00
1.00044974e+00
1.00044547e+00
1.00044073e+00
1.00043557e+00
1.00043003e+00
1.00042415e+00
1.00041795e+00
1.00041144e+00
1.00040463e+00
1.00039754e+00
1.00039018e+00
1.00038258e+00
1.00037474e+00
1.00036672e+00
1.00035854e+00
1.00035027e+00
1.00034197e+00
1.00033372e+00
1.00032558e+00
1.00031767e+00
1.00031007e+00
1.00030288e+00
1.00029622e+00
1.00029017e+00
1.00028485e+00
1.00028036e+00
1.00027678e+00
1.00027420e+00
1.00027270e+00
1.00027236e+00
1.00027324e+00
1.00027541e+00
1.00027893e+00
1.00028385e+00
1.00029024e+00
1.00029817e+00
1.00030771e+00
1.00031894e+00
1.00033194e+00
1.00034680e+00
1.00036365e+00
1.00038257e+00
1.00040370e+00
1.00042715e+00
1.00045302e+00
1.00048143e+00
1.00051246e+00
1.00054619e+00
1.00058266e+00
1.00062188e+00
1.00066384e+00
1.00070847e+00
1.00075564e+00
1.00080521e+00
1.00085696e+00
1.00091062e+00
1.00096589e+00
1.00102241e+00
1.00107977e+00
1.00113754e+00
1.00119524e+00
1.00125241e+00
1.00130852e+00
1.00136307e+00
1.00141557e+00
1.00146555e+00
1.00151245e+00
1.00155585e+00
1.00159551e+00
1.00163105e+00
1.00166133e+00
1.00168655e+00
1.00170738e+00
1.00172250e+00
1.00172376e+00
1.00172617e+00
9.98818460e-01
9.98826636e-01
9.98841275e-01
9.98847416e-01
9.98859659e-01
9.98882440e-01
9.98908308e-01
9.98936827e-01
9.98970405e-01
9.99008493e-01
9.99049822e-01
9.99094530e-01
9.99142659e-01
9.99193707e-01
9.99247258e-01
9.99303080e-01
9.99360818e-01
9.99420046e-01
9.99480374e-01
9.99541417e-01
9.99602759e-01
9.99663986e-01
9.99724698e-01
9.99784504e-01
9.99843025e-01
9.99899905e-01
9.99954815e-01
1.00000746e+00
1.00005756e+00
1.00010491e+00
1.00014932e+00
1.00019063e+00
1.00022876e+00
1.00026364e+00
1.00029526e+00
1.00032365e+00
1.00034885e+00
1.00037097e+00
1.00039014e+00
1.00040649e+00
1.00042020e+00
1.00043145e+00
1.00044043e+00
1.00044735e+00
1.00045240e+00
1.00045579e+00
1.00045770e+00
1.00045832e+00
1.00045780e+00
1.00045631e+00
1.00045399e+00
1.00045094e+00
1.00044729e+00
1.00044310e+00
1.00043846e+00
1.00043341e+00
1.00042800e+00
1.00042227e+00
1.00041622e+00
1.00040989e+00
1.00040327e+00
1.00039639e+00
1.00038926e+00
1.00038189e+00
1.00037430e+00
1.00036654e+00
1.00035864e+00
1.00035064e+00
1.00034262e+00
1.00033464e+00
1.00032678e+00
1.00031914e+00
1.00031179e+00
1.00030485e+00
1.00029842e+00
1.00029259e+00
1.00028746e+00
1.00028314e+00
1.00027971e+00
1.00027725e+00
1.00027586e+00
1.00027560e+00
1.00027654e+00
1.00027874e+00
1.00028228e+00
1.00028721e+00
1.00029359e+00
1.00030150e+00
1.00031101e+00
1.00032219e+00
1.00033514e+00
1.00034996e+00
1.00036675e+00
1.00038561e+00
1.00040667e+00
1.00043004e+00
1.00045583e+00
1.00048414e+00
1.00051506e+00
1.00054866e+00
1.00058498e+00
1.00062404e+00
1.00066580e+00
1.00071019e+00
1.00075711e+00
1.00080639e+00
1.00085782e+00
1.00091113e+00
1.00096601e+00
1.00102211e+00
1.00107903e+00
1.00113634e+00
1.00119359e+00
1.00125025e+00
1.00130584e+00
1.00135997e+00
1.00141205e+00
1.00146140e+00
1.00150786e+00
1.00155135e+00
1.00159048e+00
1.00162455e+00
1.00165560e+00
1.00168296e+00
1.00170011e+00
1.00171080e+00
1.00172734e+00
1.00173693e+00
9.98825614e-01
9.98830857e-01
9.98840582e-01
9.98850754e-01
9.98867427e-01
9.98888108e-01
9.98912741e-01
9.98942225e-01
9.98976003e-01
9.99013418e-01
9.99054536e-01
9.99099220e-01
9.99147056e-01
9.99197739e-01
9.99251015e-01
9.99306530e-01
9.99363899e-01
9.99422756e-01
9.99482718e-01
9.99543377e-01
9.99604328e-01
9.99665169e-01
9.99725500e-01
9.99784930e-01
9.99843087e-01
9.99899619e-01
9.99954197e-01
1.00000653e+00
1.00005635e+00
1.00010343e+00
1.00014759e+00
1.00018869e+00
1.00022663e+00
1.00026134e+00
1.00029282e+00
1.00032108e+00
1.00034619e+00
1.00036823e+00
1.00038734e+00
1.00040364e+00
1.00041733e+00
1.00042856e+00
1.00043755e+00
1.00044448e+00
1.00044955e+00
1.00045297e+00
1.00045492e+00
1.00045558e+00
1.00045513e+00
1.00045370e+00
1.00045145e+00
1.00044849e+00
1.00044492e+00
1.00044084e+00
1.00043630e+00
1.00043138e+00
1.00042610e+00
1.00042051e+00
1.00041462e+00
1.00040844e+00
1.00040201e+00
1.00039531e+00
1.00038838e+00
1.00038122e+00
1.00037386e+00
1.00036632e+00
1.00035865e+00
1.00035090e+00
1.00034313e+00
1.00033540e+00
1.00032779e+00
1.00032039e+00
1.00031328e+00
1.00030657e+00
1.00030035e+00
1.00029473e+00
1.00028979e+00
1.00028564e+00
1.00028236e+00
1.00028005e+00
1.00027877e+00
1.00027860e+00
1.00027961e+00
1.00028187e+00
1.00028545e+00
1.00029040e+00
1.00029679e+00
1.00030469e+00
1.00031418e+00
1.00032534e+00
1.00033825e+00
1.00035302e+00
1.00036975e+00
1.00038854e+00
1.00040952e+00
1.00043279e+00
1.00045847e+00
1.00048666e+00
1.00051743e+00
1.00055086e+00
1.00058698e+00
1.00062581e+00
1.00066731e+00
1.00071142e+00
1.00075801e+00
1.00080692e+00
1.00085795e+00
1.00091083e+00
1.00096525e+00
1.00102086e+00
1.00107726e+00
1.00113403e+00
1.00119071e+00
1.00124684e+00
1.00130191e+00
1.00135541e+00
1.00140692e+00
1.00145596e+00
1.00150193e+00
1.00154449e+00
1.00158350e+00
1.00161820e+00
1.00164793e+00
1.00167321e+00
1.00169385e+00
1.00170797e+00
1.00172043e+00
1.00172747e+00
9.98834609e-01
9.98837822e-01
9.98843467e-01
9.98858037e-01
9.98875796e-01
9.98894537e-01
9.98919439e-01
9.98949672e-01
9.98983010e-01
9.99019926e-01
9.99060994e-01
9.99105498e-01
9.99152943e-01
9.99203276e-01
9.99256229e-01
9.99311355e-01
9.99368301e-01
9.99426735e-01
9.99486261e-01
9.99546467e-01
9.99606959e-01
9.99667342e-01
9.99727216e-01
9.99786196e-01
9.99843914e-01
9.99900020e-01
9.99954192e-01
1.00000614e+00
1.00005559e+00
1.00010234e+00
1.00014620e+00
1.00018702e+00
1.00022470e+00
1.00025920e+00
1.00029049e+00
1.00031859e+00
1.00034356e+00
1.00036550e+00
1.00038452e+00
1.00040077e+00
1.00041441e+00
1.00042563e+00
1.00043461e+00
1.00044156e+00
1.00044666e+00
1.00045012e+00
1.00045212e+00
1.00045285e+00
1.00045246e+00
1.00045112e+00
1.00044896e+00
1.00044609e+00
1.00044263e+00
1.00043865e+00
1.00043423e+00
1.00042943e+00
1.00042428e+00
1.00041882e+00
1.00041308e+00
1.00040706e+00
1.00040078e+00
1.00039426e+00
1.00038750e+00
1.00038053e+00
1.00037336e+00
1.00036603e+00
1.00035858e+00
1.00035105e+00
1.00034349e+00
1.00033599e+00
1.00032861e+00
1.00032143e+00
1.00031455e+00
1.00030806e+00
1.00030205e+00
1.00029662e+00
1.00029187e+00
1.00028789e+00
1.00028477e+00
1.00028259e+00
1.00028143e+00
1.00028137e+00
1.00028247e+00
1.00028479e+00
1.00028842e+00
1.00029340e+00
1.00029982e+00
1.00030772e+00
1.00031721e+00
1.00032834e+00
1.00034123e+00
1.00035595e+00
1.00037262e+00
1.00039134e+00
1.00041224e+00
1.00043541e+00
1.00046096e+00
1.00048899e+00
1.00051959e+00
1.00055282e+00
1.00058870e+00
1.00062726e+00
1.00066845e+00
1.00071220e+00
1.00075840e+00
1.00080688e+00
1.00085744e+00
1.00090980e+00
1.00096367e+00
1.00101869e+00
1.00107448e+00
1.00113062e+00
1.00118663e+00
1.00124210e+00
1.00129655e+00
1.00134939e+00
1.00140019e+00
1.00144871e+00
1.00149427e+00
1.00153603e+00
1.00157433e+00
1.00160938e+00
1.00163898e+00
1.00166234e+00
1.00168383e+00
1.00170140e+00
1.00171005e+00
1.00171531e+00
9.98841543e-01
9.98846330e-01
9.98854424e-01
9.98866947e-01
9.98882764e-01
9.98903784e-01
9.98929382e-01
9.98958229e-01
9.98991243e-01
9.99028535e-01
9.99069279e-01
9.99113210e-01
9.99160368e-01
9.99210410e-01
9.99262899e-01
9.99317549e-01
9.99374050e-01
9.99432001e-01
9.99491008e-01
9.99550693e-01
9.99610663e-01
9.99670515e-01
9.99729859e-01
9.99788317e-01
9.99845523e-01
9.99901133e-01
9.99954827e-01
1.00000632e+00
1.00005534e+00
1.00010169e+00
1.00014518e+00
1.00018566e+00
1.00022304e+00
1.00025727e+00
1.00028832e+00
1.00031622e+00
1.00034102e+00
1.00036282e+00
1.00038174e+00
1.00039790e+00
1.00041149e+00
1.00042268e+00
1.00043165e+00
1.00043861e+00
1.00044374e+00
1.00044724e+00
1.00044930e+00
1.00045009e+00
1.00044979e+00
1.00044853e+00
1.00044647e+00
1.00044370e+00
1.00044035e+00
1.00043649e+00
1.00043219e+00
1.00042751e+00
1.00042249e+00
1.00041716e+00
1.00041155e+00
1.00040568e+00
1.00039955e+00
1.00039318e+00
1.00038659e+00
1.00037979e+00
1.00037280e+00
1.00036566e+00
1.00035839e+00
1.00035106e+00
1.00034371e+00
1.00033642e+00
1.00032925e+00
1.00032228e+00
1.00031561e+00
1.00030933e+00
1.00030352e+00
1.00029829e+00
1.00029372e+00
1.00028991e+00
1.00028694e+00
1.00028490e+00
1.00028387e+00
1.00028391e+00
1.00028510e+00
1.00028750e+00
1.00029119e+00
1.00029622e+00
1.00030266e+00
1.00031058e+00
1.00032006e+00
1.00033118e+00
1.00034404e+00
1.00035872e+00
1.00037533e+00
1.00039398e+00
1.00041477e+00
1.00043783e+00
1.00046324e+00
1.00049110e+00
1.00052149e+00
1.00055448e+00
1.00059009e+00
1.00062832e+00
1.00066915e+00
1.00071249e+00
1.00075823e+00
1.00080621e+00
1.00085621e+00
1.00090797e+00
1.00096120e+00
1.00101555e+00
1.00107063e+00
1.00112604e+00
1.00118133e+00
1.00123602e+00
1.00128966e+00
1.00134185e+00
1.00139198e+00
1.00143956e+00
1.00148442e+00
1.00152613e+00
1.00156376e+00
1.00159720e+00
1.00162707e+00
1.00165213e+00
1.00167168e+00
1.00168722e+00
1.00169782e+00
1.00170423e+00
9.98852474e-01
9.98857133e-01
9.98866236e-01
9.98877486e-01
9.98893502e-01
9.98915217e-01
9.98940011e-01
9.98968546e-01
9.99001794e-01
9.99038768e-01
9.99078954e-01
9.99122588e-01
9.99169439e-01
9.99218991e-01
9.99270973e-01
9.99325148e-01
9.99381127e-01
9.99438512e-01
9.99496947e-01
9.99556053e-01
9.99615428e-01
9.99674680e-01
9.99733427e-01
9.99791295e-01
9.99847920e-01
9.99902965e-01
9.99956115e-01
1.00000708e+00
1.00005562e+00
1.00010151e+00
1.00014456e+00
1.00018466e+00
1.00022168e+00
1.00025559e+00
1.00028637e+00
1.00031403e+00
1.00033863e+00
1.00036026e+00
1.00037903e+00
1.00039510e+00
1.00040862e+00
1.00041976e+00
1.00042871e+00
1.00043567e+00
1.00044083e+00
1.00044437e+00
1.00044649e+00
1.00044736e+00
1.00044714e+00
1.00044598e+00
1.00044401e+00
1.00044135e+00
1.00043811e+00
1.00043436e+00
1.00043018e+00
1.00042562e+00
1.00042073e+00
1.00041553e+00
1.00041005e+00
1.00040431e+00
1.00039831e+00
1.00039209e+00
1.00038564e+00
1.00037899e+00
1.00037216e+00
1.00036518e+00
1.00035809e+00
1.00035094e+00
1.00034378e+00
1.00033667e+00
1.00032969e+00
1.00032292e+00
1.00031645e+00
1.00031036e+00
1.00030474e+00
1.00029969e+00
1.00029530e+00
1.00029165e+00
1.00028883e+00
1.00028693e+00
1.00028602e+00
1.00028618e+00
1.00028746e+00
1.00028994e+00
1.00029369e+00
1.00029877e+00
1.00030524e+00
1.00031318e+00
1.00032267e+00
1.00033378e+00
1.00034661e+00
1.00036124e+00
1.00037780e+00
1.00039636e+00
1.00041706e+00
1.00043998e+00
1.00046523e+00
1.00049290e+00
1.00052306e+00
1.00055577e+00
1.00059107e+00
1.00062894e+00
1.00066935e+00
1.00071222e+00
1.00075745e+00
1.00080485e+00
1.00085422e+00
1.00090531e+00
1.00095782e+00
1.00101142e+00
1.00106570e+00
1.00112028e+00
1.00117474e+00
1.00122860e+00
1.00128136e+00
1.00133266e+00
1.00138207e+00
1.00142892e+00
1.00147282e+00
1.00151380e+00
1.00155119e+00
1.00158394e+00
1.00161278e+00
1.00163810e+00
1.00165746e+00
1.00167163e+00
1.00168290e+00
1.00168903e+00
9.98867222e-01
9.98870791e-01
9.98878448e-01
9.98890561e-01
9.98907280e-01
9.98927605e-01
9.98952074e-01
9.98981253e-01
9.99014066e-01
9.99050280e-01
9.99090275e-01
9.99133678e-01
9.99179952e-01
9.99228950e-01
9.99280473e-01
9.99334104e-01
9.99389463e-01
9.99446236e-01
9.99504054e-01
9.99562512e-01
9.99621225e-01
9.99679818e-01
9.99737907e-01
9.99795119e-01
9.99851102e-01
9.99905521e-01
9.99958066e-01
1.00000846e+00
1.00005644e+00
1.00010181e+00
1.00014439e+00
1.00018404e+00
1.00022067e+00
1.00025423e+00
1.00028468e+00
1.00031207e+00
1.00033643e+00
1.00035787e+00
1.00037649e+00
1.00039244e+00
1.00040587e+00
1.00041696e+00
1.00042589e+00
1.00043284e+00
1.00043802e+00
1.00044161e+00
1.00044379e+00
1.00044473e+00
1.00044459e+00
1.00044352e+00
1.00044166e+00
1.00043911e+00
1.00043598e+00
1.00043234e+00
1.00042827e+00
1.00042383e+00
1.00041905e+00
1.00041396e+00
1.00040860e+00
1.00040297e+00
1.00039710e+00
1.00039099e+00
1.00038467e+00
1.00037814e+00
1.00037145e+00
1.00036461e+00
1.00035766e+00
1.00035066e+00
1.00034366e+00
1.00033672e+00
1.00032991e+00
1.00032332e+00
1.00031701e+00
1.00031110e+00
1.00030565e+00
1.00030077e+00
1.00029653e+00
1.00029304e+00
1.00029037e+00
1.00028860e+00
1.00028781e+00
1.00028807e+00
1.00028944e+00
1.00029201e+00
1.00029582e+00
1.00030094e+00
1.00030745e+00
1.00031542e+00
1.00032491e+00
1.00033602e+00
1.00034882e+00
1.00036342e+00
1.00037991e+00
1.00039840e+00
1.00041898e+00
1.00044176e+00
1.00046684e+00
1.00049430e+00
1.00052421e+00
1.00055663e+00
1.00059158e+00
1.00062905e+00
1.00066900e+00
1.00071136e+00
1.00075601e+00
1.00080278e+00
1.00085146e+00
1.00090181e+00
1.00095352e+00
1.00100627e+00
1.00105969e+00
1.00111337e+00
1.00116687e+00
1.00121981e+00
1.00127170e+00
1.00132201e+00
1.00137040e+00
1.00141654e+00
1.00145977e+00
1.00149957e+00
1.00153611e+00
1.00156900e+00
1.00159713e+00
1.00162083e+00
1.00164050e+00
1.00165519e+00
1.00166491e+00
1.00166989e+00
9.98882849e-01
9.98886216e-01
9.98893472e-01
9.98905709e-01
9.98921959e-01
9.98941927e-01
9.98966613e-01
9.98995359e-01
9.99027556e-01
9.99063608e-01
9.99103311e-01
9.99146102e-01
9.99191839e-01
9.99240381e-01
9.99291327e-01
9.99344303e-01
9.99399028e-01
9.99455152e-01
9.99512275e-01
9.99570022e-01
9.99628026e-01
9.99685902e-01
9.99743270e-01
9.99799770e-01
9.99855055e-01
9.99908792e-01
9.99960679e-01
1.00001044e+00
1.00005783e+00
1.00010264e+00
1.00014469e+00
1.00018387e+00
1.00022006e+00
1.00025322e+00
1.00028333e+00
1.00031041e+00
1.00033452e+00
1.00035575e+00
1.00037420e+00
1.00039001e+00
1.00040335e+00
1.00041437e+00
1.00042327e+00
1.00043022e+00
1.00043542e+00
1.00043905e+00
1.00044128e+00
1.00044229e+00
1.00044224e+00
1.00044127e+00
1.00043950e+00
1.00043705e+00
1.00043402e+00
1.00043049e+00
1.00042653e+00
1.00042218e+00
1.00041750e+00
1.00041251e+00
1.00040724e+00
1.00040171e+00
1.00039593e+00
1.00038991e+00
1.00038368e+00
1.00037726e+00
1.00037067e+00
1.00036394e+00
1.00035711e+00
1.00035023e+00
1.00034335e+00
1.00033655e+00
1.00032988e+00
1.00032343e+00
1.00031727e+00
1.00031150e+00
1.00030620e+00
1.00030146e+00
1.00029737e+00
1.00029401e+00
1.00029147e+00
1.00028981e+00
1.00028913e+00
1.00028949e+00
1.00029095e+00
1.00029358e+00
1.00029746e+00
1.00030263e+00
1.00030918e+00
1.00031717e+00
1.00032667e+00
1.00033778e+00
1.00035056e+00
1.00036513e+00
1.00038156e+00
1.00039996e+00
1.00042043e+00
1.00044308e+00
1.00046798e+00
1.00049522e+00
1.00052487e+00
1.00055697e+00
1.00059154e+00
1.00062858e+00
1.00066805e+00
1.00070985e+00
1.00075388e+00
1.00079997e+00
1.00084791e+00
1.00089745e+00
1.00094831e+00
1.00100014e+00
1.00105260e+00
1.00110531e+00
1.00115781e+00
1.00120969e+00
1.00126057e+00
1.00130995e+00
1.00135731e+00
1.00140237e+00
1.00144480e+00
1.00148393e+00
1.00151941e+00
1.00155144e+00
1.00157931e+00
1.00160230e+00
1.00162122e+00
1.00163572e+00
1.00164483e+00
1.00164946e+00
9.98899822e-01
9.98903328e-01
9.98910848e-01
9.98922368e-01
9.98938081e-01
9.98958393e-01
9.98982757e-01
9.99010741e-01
9.99042775e-01
9.99078612e-01
9.99117663e-01
9.99159889e-01
9.99205199e-01
9.99253154e-01
9.99303409e-01
9.99355735e-01
9.99409796e-01
9.99465189e-01
9.99521561e-01
9.99578559e-01
9.99635799e-01
9.99692900e-01
9.99749498e-01
9.99805237e-01
9.99859773e-01
9.99912781e-01
9.99963963e-01
1.00001305e+00
1.00005980e+00
1.00010401e+00
1.00014551e+00
1.00018417e+00
1.00021990e+00
1.00025264e+00
1.00028238e+00
1.00030914e+00
1.00033298e+00
1.00035398e+00
1.00037224e+00
1.00038792e+00
1.00040115e+00
1.00041210e+00
1.00042096e+00
1.00042791e+00
1.00043312e+00
1.00043679e+00
1.00043908e+00
1.00044016e+00
1.00044018e+00
1.00043929e+00
1.00043762e+00
1.00043526e+00
1.00043232e+00
1.00042888e+00
1.00042501e+00
1.00042075e+00
1.00041614e+00
1.00041123e+00
1.00040602e+00
1.00040056e+00
1.00039484e+00
1.00038889e+00
1.00038272e+00
1.00037636e+00
1.00036984e+00
1.00036318e+00
1.00035643e+00
1.00034963e+00
1.00034285e+00
1.00033614e+00
1.00032957e+00
1.00032323e+00
1.00031718e+00
1.00031153e+00
1.00030634e+00
1.00030172e+00
1.00029774e+00
1.00029449e+00
1.00029204e+00
1.00029049e+00
1.00028989e+00
1.00029033e+00
1.00029186e+00
1.00029456e+00
1.00029849e+00
1.00030371e+00
1.00031029e+00
1.00031831e+00
1.00032783e+00
1.00033893e+00
1.00035170e+00
1.00036623e+00
1.00038261e+00
1.00040094e+00
1.00042131e+00
1.00044381e+00
1.00046853e+00
1.00049555e+00
1.00052493e+00
1.00055670e+00
1.00059089e+00
1.00062748e+00
1.00066643e+00
1.00070765e+00
1.00075102e+00
1.00079638e+00
1.00084353e+00
1.00089221e+00
1.00094215e+00
1.00099302e+00
1.00104446e+00
1.00109610e+00
1.00114756e+00
1.00119836e+00
1.00124808e+00
1.00129638e+00
1.00134279e+00
1.00138676e+00
1.00142803e+00
1.00146641e+00
1.00150121e+00
1.00153204e+00
1.00155916e+00
1.00158206e+00
1.00160013e+00
1.00161366e+00
1.00162279e+00
1.00162738e+00
9.98918949e-01
9.98922134e-01
9.98929425e-01
9.98940697e-01
9.98956325e-01
9.98976305e-01
9.99000109e-01
9.99027900e-01
9.99059647e-01
9.99094838e-01
9.99133365e-01
9.99175173e-01
9.99219867e-01
9.99267119e-01
9.99316729e-01
9.99368379e-01
9.99421678e-01
9.99476293e-01
9.99531890e-01
9.99588087e-01
9.99644506e-01
9.99700789e-01
9.99756575e-01
9.99811508e-01
9.99865252e-01
9.99917491e-01
9.99967933e-01
1.00001631e+00
1.00006239e+00
1.00010597e+00
1.00014688e+00
1.00018501e+00
1.00022025e+00
1.00025255e+00
1.00028191e+00
1.00030834e+00
1.00033190e+00
1.00035266e+00
1.00037073e+00
1.00038626e+00
1.00039938e+00
1.00041027e+00
1.00041909e+00
1.00042602e+00
1.00043125e+00
1.00043494e+00
1.00043728e+00
1.00043842e+00
1.00043852e+00
1.00043771e+00
1.00043611e+00
1.00043383e+00
1.00043097e+00
1.00042760e+00
1.00042379e+00
1.00041959e+00
1.00041503e+00
1.00041016e+00
1.00040500e+00
1.00039956e+00
1.00039387e+00
1.00038794e+00
1.00038180e+00
1.00037547e+00
1.00036897e+00
1.00036234e+00
1.00035562e+00
1.00034887e+00
1.00034213e+00
1.00033547e+00
1.00032896e+00
1.00032269e+00
1.00031671e+00
1.00031113e+00
1.00030602e+00
1.00030148e+00
1.00029757e+00
1.00029440e+00
1.00029203e+00
1.00029054e+00
1.00029001e+00
1.00029050e+00
1.00029209e+00
1.00029484e+00
1.00029881e+00
1.00030406e+00
1.00031068e+00
1.00031871e+00
1.00032824e+00
1.00033935e+00
1.00035211e+00
1.00036662e+00
1.00038295e+00
1.00040121e+00
1.00042148e+00
1.00044384e+00
1.00046839e+00
1.00049519e+00
1.00052430e+00
1.00055574e+00
1.00058953e+00
1.00062566e+00
1.00066407e+00
1.00070469e+00
1.00074737e+00
1.00079198e+00
1.00083829e+00
1.00088607e+00
1.00093504e+00
1.00098490e+00
1.00103528e+00
1.00108580e+00
1.00113610e+00
1.00118577e+00
1.00123436e+00
1.00128144e+00
1.00132670e+00
1.00136969e+00
1.00140989e+00
1.00144710e+00
1.00148108e+00
1.00151122e+00
1.00153735e+00
1.00155951e+00
1.00157713e+00
1.00159012e+00
1.00159879e+00
1.00160291e+00
9.98939721e-01
9.98942581e-01
9.98949455e-01
9.98960678e-01
9.98976118e-01
9.98995528e-01
9.99019038e-01
9.99046609e-01
9.99077760e-01
9.99112396e-01
9.99150513e-01
9.99191723e-01
9.99235707e-01
9.99282315e-01
9.99331248e-01
9.99382120e-01
9.99434624e-01
9.99488448e-01
9.99543217e-01
9.99598560e-01
9.99654125e-01
9.99709555e-01
9.99764487e-01
9.99818576e-01
9.99871496e-01
9.99922935e-01
9.99972605e-01
1.00002025e+00
1.00006563e+00
1.00010856e+00
1.00014887e+00
1.00018644e+00
1.00022119e+00
1.00025305e+00
1.00028201e+00
1.00030810e+00
1.00033137e+00
1.00035189e+00
1.00036977e+00
1.00038515e+00
1.00039816e+00
1.00040897e+00
1.00041775e+00
1.00042467e+00
1.00042991e+00
1.00043363e+00
1.00043601e+00
1.00043720e+00
1.00043736e+00
1.00043661e+00
1.00043507e+00
1.00043285e+00
1.00043004e+00
1.00042672e+00
1.00042294e+00
1.00041877e+00
1.00041423e+00
1.00040937e+00
1.00040421e+00
1.00039876e+00
1.00039306e+00
1.00038712e+00
1.00038095e+00
1.00037460e+00
1.00036808e+00
1.00036143e+00
1.00035470e+00
1.00034793e+00
1.00034119e+00
1.00033454e+00
1.00032804e+00
1.00032178e+00
1.00031583e+00
1.00031027e+00
1.00030519e+00
1.00030068e+00
1.00029681e+00
1.00029367e+00
1.00029133e+00
1.00028988e+00
1.00028938e+00
1.00028990e+00
1.00029152e+00
1.00029429e+00
1.00029829e+00
1.00030357e+00
1.00031020e+00
1.00031825e+00
1.00032779e+00
1.00033890e+00
1.00035166e+00
1.00036614e+00
1.00038244e+00
1.00040063e+00
1.00042081e+00
1.00044306e+00
1.00046744e+00
1.00049403e+00
1.00052287e+00
1.00055398e+00
1.00058738e+00
1.00062304e+00
1.00066091e+00
1.00070090e+00
1.00074289e+00
1.00078671e+00
1.00083216e+00
1.00087901e+00
1.00092698e+00
1.00097576e+00
1.00102503e+00
1.00107441e+00
1.00112350e+00
1.00117195e+00
1.00121936e+00
1.00126526e+00
1.00130926e+00
1.00135108e+00
1.00139030e+00
1.00142640e+00
1.00145926e+00
1.00148865e+00
1.00151402e+00
1.00153521e+00
1.00155227e+00
1.00156491e+00
1.00157293e+00
1.00157657e+00
9.98961700e-01
9.98964428e-01
9.98971126e-01
9.98982057e-01
9.98997117e-01
9.99016251e-01
9.99039474e-01
9.99066494e-01
9.99097131e-01
9.99131362e-01
9.99168883e-01
9.99209393e-01
9.99252752e-01
9.99298687e-01
9.99346833e-01
9.99396907e-01
9.99448616e-01
9.99501596e-01
9.99555487e-01
9.99609952e-01
9.99664635e-01
9.99719174e-01
9.99773220e-01
9.99826441e-01
9.99878511e-01
9.99929126e-01
9.99978005e-01
1.00002489e+00
1.00006957e+00
1.00011183e+00
1.00015153e+00
1.00018855e+00
1.00022278e+00
1.00025420e+00
1.00028277e+00
1.00030852e+00
1.00033150e+00
1.00035178e+00
1.00036948e+00
1.00038471e+00
1.00039761e+00
1.00040835e+00
1.00041709e+00
1.00042399e+00
1.00042923e+00
1.00043297e+00
1.00043538e+00
1.00043661e+00
1.00043681e+00
1.00043610e+00
1.00043460e+00
1.00043242e+00
1.00042963e+00
1.00042632e+00
1.00042255e+00
1.00041837e+00
1.00041381e+00
1.00040892e+00
1.00040371e+00
1.00039821e+00
1.00039245e+00
1.00038644e+00
1.00038020e+00
1.00037377e+00
1.00036718e+00
1.00036046e+00
1.00035366e+00
1.00034683e+00
1.00034003e+00
1.00033332e+00
1.00032678e+00
1.00032048e+00
1.00031449e+00
1.00030891e+00
1.00030381e+00
1.00029927e+00
1.00029539e+00
1.00029223e+00
1.00028988e+00
1.00028842e+00
1.00028791e+00
1.00028843e+00
1.00029005e+00
1.00029282e+00
1.00029681e+00
1.00030210e+00
1.00030873e+00
1.00031679e+00
1.00032634e+00
1.00033745e+00
1.00035020e+00
1.00036467e+00
1.00038094e+00
1.00039908e+00
1.00041919e+00
1.00044132e+00
1.00046555e+00
1.00049194e+00
1.00052052e+00
1.00055132e+00
1.00058433e+00
1.00061953e+00
1.00065685e+00
1.00069622e+00
1.00073749e+00
1.00078052e+00
1.00082510e+00
1.00087099e+00
1.00091794e+00
1.00096563e+00
1.00101374e+00
1.00106192e+00
1.00110981e+00
1.00115699e+00
1.00120310e+00
1.00124779e+00
1.00129060e+00
1.00133115e+00
1.00136918e+00
1.00140430e+00
1.00143610e+00
1.00146444e+00
1.00148903e+00
1.00150952e+00
1.00152584e+00
1.00153788e+00
1.00154548e+00
1.00154883e+00
9.98984998e-01
9.98987575e-01
9.98994104e-01
9.99004694e-01
9.99019429e-01
9.99038304e-01
9.99061076e-01
9.99087581e-01
9.99117801e-01
9.99151483e-01
9.99188332e-01
9.99228224e-01
9.99270923e-01
9.99316083e-01
9.99363437e-01
9.99412719e-01
9.99463580e-01
9.99515672e-01
9.99568673e-01
9.99622237e-01
9.99676004e-01
9.99729627e-01
9.99782772e-01
9.99835104e-01
9.99886306e-01
9.99936083e-01
9.99984160e-01
1.00003029e+00
1.00007425e+00
1.00011585e+00
1.00015493e+00
1.00019139e+00
1.00022513e+00
1.00025610e+00
1.00028428e+00
1.00030970e+00
1.00033240e+00
1.00035246e+00
1.00036997e+00
1.00038505e+00
1.00039785e+00
1.00040852e+00
1.00041721e+00
1.00042409e+00
1.00042933e+00
1.00043308e+00
1.00043551e+00
1.00043677e+00
1.00043698e+00
1.00043629e+00
1.00043481e+00
1.00043262e+00
1.00042983e+00
1.00042650e+00
1.00042269e+00
1.00041845e+00
1.00041383e+00
1.00040886e+00
1.00040356e+00
1.00039795e+00
1.00039207e+00
1.00038594e+00
1.00037958e+00
1.00037301e+00
1.00036629e+00
1.00035944e+00
1.00035251e+00
1.00034555e+00
1.00033863e+00
1.00033181e+00
1.00032516e+00
1.00031875e+00
1.00031267e+00
1.00030700e+00
1.00030181e+00
1.00029720e+00
1.00029324e+00
1.00029002e+00
1.00028761e+00
1.00028609e+00
1.00028553e+00
1.00028600e+00
1.00028757e+00
1.00029031e+00
1.00029428e+00
1.00029954e+00
1.00030617e+00
1.00031422e+00
1.00032376e+00
1.00033487e+00
1.00034762e+00
1.00036208e+00
1.00037832e+00
1.00039643e+00
1.00041647e+00
1.00043851e+00
1.00046261e+00
1.00048881e+00
1.00051715e+00
1.00054764e+00
1.00058028e+00
1.00061502e+00
1.00065182e+00
1.00069056e+00
1.00073113e+00
1.00077336e+00
1.00081706e+00
1.00086199e+00
1.00090789e+00
1.00095448e+00
1.00100142e+00
1.00104837e+00
1.00109500e+00
1.00114092e+00
1.00118574e+00
1.00122911e+00
1.00127068e+00
1.00131003e+00
1.00134681e+00
1.00138081e+00
1.00141163e+00
1.00143893e+00
1.00146259e+00
1.00148239e+00
1.00149801e+00
1.00150941e+00
1.00151660e+00
1.00151962e+00
9.99009548e-01
9.99011889e-01
9.99018161e-01
9.99028519e-01
9.99042977e-01
9.99061439e-01
9.99083760e-01
9.99109862e-01
9.99139563e-01
9.99172610e-01
9.99208863e-01
9.99248120e-01
9.99290064e-01
9.99334448e-01
9.99381027e-01
9.99429468e-01
9.99479442e-01
9.99530644e-01
9.99582739e-01
9.99635373e-01
9.99688206e-01
9.99740905e-01
9.99793133e-01
9.99844565e-01
9.99894893e-01
9.99943828e-01
9.99991101e-01
1.00003647e+00
1.00007971e+00
1.00012065e+00
1.00015914e+00
1.00019505e+00
1.00022830e+00
1.00025883e+00
1.00028665e+00
1.00031175e+00
1.00033418e+00
1.00035402e+00
1.00037135e+00
1.00038631e+00
1.00039901e+00
1.00040961e+00
1.00041826e+00
1.00042511e+00
1.00043034e+00
1.00043409e+00
1.00043652e+00
1.00043778e+00
1.00043799e+00
1.00043729e+00
1.00043578e+00
1.00043357e+00
1.00043072e+00
1.00042732e+00
1.00042343e+00
1.00041910e+00
1.00041436e+00
1.00040925e+00
1.00040379e+00
1.00039803e+00
1.00039197e+00
1.00038565e+00
1.00037910e+00
1.00037234e+00
1.00036542e+00
1.00035837e+00
1.00035124e+00
1.00034409e+00
1.00033698e+00
1.00032998e+00
1.00032315e+00
1.00031658e+00
1.00031034e+00
1.00030451e+00
1.00029917e+00
1.00029442e+00
1.00029032e+00
1.00028697e+00
1.00028444e+00
1.00028281e+00
1.00028214e+00
1.00028252e+00
1.00028401e+00
1.00028667e+00
1.00029058e+00
1.00029580e+00
1.00030238e+00
1.00031041e+00
1.00031994e+00
1.00033104e+00
1.00034378e+00
1.00035823e+00
1.00037446e+00
1.00039254e+00
1.00041253e+00
1.00043449e+00
1.00045847e+00
1.00048451e+00
1.00051263e+00
1.00054284e+00
1.00057513e+00
1.00060944e+00
1.00064572e+00
1.00068386e+00
1.00072373e+00
1.00076518e+00
1.00080800e+00
1.00085197e+00
1.00089683e+00
1.00094230e+00
1.00098807e+00
1.00103379e+00
1.00107914e+00
1.00112377e+00
1.00116730e+00
1.00120936e+00
1.00124961e+00
1.00128774e+00
1.00132334e+00
1.00135613e+00
1.00138588e+00
1.00141225e+00
1.00143498e+00
1.00145393e+00
1.00146891e+00
1.00147977e+00
1.00148646e+00
1.00148908e+00
9.99035092e-01
9.99037233e-01
9.99043260e-01
9.99053375e-01
9.99067512e-01
9.99085571e-01
9.99107492e-01
9.99133129e-01
9.99162253e-01
9.99194725e-01
9.99230372e-01
9.99268914e-01
9.99310111e-01
9.99353741e-01
9.99399498e-01
9.99447068e-01
9.99496164e-01
9.99546466e-01
9.99597630e-01
9.99649325e-01
9.99701224e-01
9.99752992e-01
9.99804298e-01
9.99854830e-01
9.99904288e-01
9.99952385e-01
9.99998861e-01
1.00004348e+00
1.00008603e+00
1.00012632e+00
1.00016422e+00
1.00019960e+00
1.00023238e+00
1.00026250e+00
1.00028996e+00
1.00031476e+00
1.00033695e+00
1.00035658e+00
1.00037376e+00
1.00038859e+00
1.00040120e+00
1.00041174e+00
1.00042034e+00
1.00042717e+00
1.00043237e+00
1.00043611e+00
1.00043852e+00
1.00043976e+00
1.00043994e+00
1.00043920e+00
1.00043763e+00
1.00043534e+00
1.00043240e+00
1.00042888e+00
1.00042485e+00
1.00042036e+00
1.00041544e+00
1.00041014e+00
1.00040447e+00
1.00039848e+00
1.00039218e+00
1.00038561e+00
1.00037880e+00
1.00037177e+00
1.00036458e+00