# vtk DataFile Version 2.0
LBM Flow Field - Timestep 1600
ASCII
DATASET STRUCTURED_POINTS
DIMENSIONS 128 128 1
ORIGIN 0.0 0.0 0.0
SPACING 1.0 1.0 1.0
POINT_DATA 16384
SCALARS density double 1
LOOKUP_TABLE default
9.99576249e-01
9.99594214e-01
9.99610175e-01
9.99588414e-01
9.99561864e-01
9.99536328e-01
9.99503180e-01
9.99462757e-01
9.99419488e-01
9.99373061e-01
9.99322875e-01
9.99270050e-01
9.99215595e-01
9.99159805e-01
9.99103186e-01
9.99046410e-01
9.98990007e-01
9.98934400e-01
9.98880031e-01
9.98827304e-01
9.98776556e-01
9.98728081e-01
9.98682142e-01
9.98638964e-01
9.98598740e-01
9.98561636e-01
9.98527801e-01
9.98497370e-01
9.98470468e-01
9.98447217e-01
9.98427738e-01
9.98412155e-01
9.98400596e-01
9.98393195e-01
9.98390092e-01
9.98391430e-01
9.98397356e-01
9.98408015e-01
9.98423550e-01
9.98444097e-01
9.98469780e-01
9.98500708e-01
9.98536970e-01
9.98578635e-01
9.98625741e-01
9.98678298e-01
9.98736283e-01
9.98799638e-01
9.98868269e-01
9.98942042e-01
9.99020787e-01
9.99104297e-01
9.99192327e-01
9.99284597e-01
9.99380794e-01
9.99480574e-01
9.99583566e-01
9.99689374e-01
9.99797582e-01
9.99907755e-01
1.00001945e+00
1.00013221e+00
1.00024557e+00
1.00035908e+00
1.00047229e+00
1.00058475e+00
1.00069602e+00
1.00080571e+00
1.00091341e+00
1.00101875e+00
1.00112139e+00
1.00122103e+00
1.00131736e+00
1.00141014e+00
1.00149913e+00
1.00158415e+00
1.00166502e+00
1.00174159e+00
1.00181374e+00
1.00188137e+00
1.00194439e+00
1.00200271e+00
1.00205628e+00
1.00210504e+00
1.00214893e+00
1.00218789e+00
1.00222188e+00
1.00225085e+00
1.00227474e+00
1.00229349e+00
1.00230706e+00
1.00231540e+00
1.00231847e+00
1.00231622e+00
1.00230864e+00
1.00229572e+00
1.00227747e+00
1.00225394e+00
1.00222519e+00
1.00219133e+00
1.00215249e+00
1.00210886e+00
1.00206066e+00
1.00200815e+00
1.00195166e+00
1.00189155e+00
1.00182822e+00
1.00176212e+00
1.00169375e+00
1.00162362e+00
1.00155228e+00
1.00148033e+00
1.00140838e+00
1.00133699e+00
1.00126677e+00
1.00119849e+00
1.00113266e+00
1.00106955e+00
1.00101017e+00
1.00095561e+00
1.00090508e+00
1.00085823e+00
1.00081940e+00
1.00078881e+00
1.00075791e+00
1.00073292e+00
1.00074363e+00
1.00075679e+00
9.99594855e-01
9.99593657e-01
9.99598412e-01
9.99581547e-01
9.99558577e-01
9.99530900e-01
9.99497922e-01
9.99459059e-01
9.99416230e-01
9.99369754e-01
9.99320152e-01
9.99267916e-01
9.99213795e-01
9.99158326e-01
9.99102101e-01
9.99045646e-01
9.98989496e-01
9.98934119e-01
9.98879955e-01
9.98827390e-01
9.98776773e-01
9.98728409e-01
9.98682563e-01
9.98639462e-01
9.98599306e-01
9.98562267e-01
9.98528497e-01
9.98498135e-01
9.98471308e-01
9.98448140e-01
9.98428752e-01
9.98413269e-01
9.98401818e-01
9.98394532e-01
9.98391549e-01
9.98393010e-01
9.98399059e-01
9.98409838e-01
9.98425488e-01
9.98446142e-01
9.98471922e-01
9.98502934e-01
9.98539267e-01
9.98580986e-01
9.98628129e-01
9.98680707e-01
9.98738694e-01
9.98802034e-01
9.98870632e-01
9.98944357e-01
9.99023038e-01
9.99106470e-01
9.99194409e-01
9.99286576e-01
9.99382659e-01
9.99482316e-01
9.99585176e-01
9.99690844e-01
9.99798904e-01
9.99908922e-01
1.00002045e+00
1.00013304e+00
1.00024623e+00
1.00035956e+00
1.00047258e+00
1.00058484e+00
1.00069592e+00
1.00080540e+00
1.00091290e+00
1.00101803e+00
1.00112046e+00
1.00121989e+00
1.00131601e+00
1.00140858e+00
1.00149738e+00
1.00158221e+00
1.00166289e+00
1.00173928e+00
1.00181127e+00
1.00187874e+00
1.00194160e+00
1.00199979e+00
1.00205324e+00
1.00210188e+00
1.00214566e+00
1.00218454e+00
1.00221845e+00
1.00224735e+00
1.00227118e+00
1.00228990e+00
1.00230344e+00
1.00231177e+00
1.00231484e+00
1.00231261e+00
1.00230507e+00
1.00229221e+00
1.00227406e+00
1.00225064e+00
1.00222203e+00
1.00218834e+00
1.00214970e+00
1.00210631e+00
1.00205838e+00
1.00200619e+00
1.00195005e+00
1.00189033e+00
1.00182743e+00
1.00176181e+00
1.00169394e+00
1.00162435e+00
1.00155360e+00
1.00148225e+00
1.00141091e+00
1.00134017e+00
1.00127067e+00
1.00120299e+00
1.00113774e+00
1.00107545e+00
1.00101685e+00
1.00096239e+00
1.00091243e+00
1.00086729e+00
1.00082875e+00
1.00079623e+00
1.00076875e+00
1.00074858e+00
1.00074870e+00
1.00074415e+00
9.99611925e-01
9.99599299e-01
9.99578425e-01
9.99569545e-01
9.99552406e-01
9.99521270e-01
9.99486975e-01
9.99450200e-01
9.99407941e-01
9.99361240e-01
9.99312060e-01
9.99260456e-01
9.99206655e-01
9.99151496e-01
9.99095650e-01
9.99039535e-01
9.98983662e-01
9.98928553e-01
9.98874639e-01
9.98822297e-01
9.98771884e-01
9.98723714e-01
9.98678051e-01
9.98635130e-01
9.98595153e-01
9.98558296e-01
9.98524714e-01
9.98494547e-01
9.98467925e-01
9.98444971e-01
9.98425807e-01
9.98410555e-01
9.98399344e-01
9.98392302e-01
9.98389566e-01
9.98391273e-01
9.98397566e-01
9.98408585e-01
9.98424467e-01
9.98445343e-01
9.98471332e-01
9.98502541e-01
9.98539055e-01
9.98580939e-01
9.98628232e-01
9.98680943e-01
9.98739047e-01
9.98802489e-01
9.98871174e-01
9.98944973e-01
9.99023715e-01
9.99107196e-01
9.99195174e-01
9.99287370e-01
9.99383473e-01
9.99483142e-01
9.99586004e-01
9.99691666e-01
9.99799711e-01
9.99909705e-01
1.00002120e+00
1.00013374e+00
1.00024688e+00
1.00036014e+00
1.00047307e+00
1.00058524e+00
1.00069621e+00
1.00080557e+00
1.00091293e+00
1.00101792e+00
1.00112021e+00
1.00121947e+00
1.00131543e+00
1.00140785e+00
1.00149648e+00
1.00158115e+00
1.00166168e+00
1.00173793e+00
1.00180978e+00
1.00187713e+00
1.00193990e+00
1.00199800e+00
1.00205138e+00
1.00209997e+00
1.00214373e+00
1.00218261e+00
1.00221655e+00
1.00224550e+00
1.00226941e+00
1.00228823e+00
1.00230190e+00
1.00231039e+00
1.00231365e+00
1.00231164e+00
1.00230435e+00
1.00229177e+00
1.00227392e+00
1.00225084e+00
1.00222261e+00
1.00218932e+00
1.00215113e+00
1.00210821e+00
1.00206079e+00
1.00200915e+00
1.00195360e+00
1.00189449e+00
1.00183224e+00
1.00176730e+00
1.00170014e+00
1.00163130e+00
1.00156131e+00
1.00149075e+00
1.00142018e+00
1.00135027e+00
1.00128161e+00
1.00121466e+00
1.00115013e+00
1.00108887e+00
1.00103103e+00
1.00097659e+00
1.00092751e+00
1.00088474e+00
1.00084507e+00
1.00080934e+00
1.00078795e+00
1.00077521e+00
1.00075147e+00
1.00073592e+00
9.99592672e-01
9.99584426e-01
9.99570838e-01
9.99556654e-01
9.99533502e-01
9.99505504e-01
9.99473122e-01
9.99435238e-01
9.99392862e-01
9.99347232e-01
9.99298491e-01
9.99247060e-01
9.99193726e-01
9.99139087e-01
9.99083616e-01
9.99027875e-01
9.98972407e-01
9.98917673e-01
9.98864102e-01
9.98812100e-01
9.98762020e-01
9.98714171e-01
9.98668826e-01
9.98626224e-01
9.98586568e-01
9.98550038e-01
9.98516792e-01
9.98486969e-01
9.98460701e-01
9.98438112e-01
9.98419322e-01
9.98404453e-01
9.98393631e-01
9.98386982e-01
9.98384640e-01
9.98386742e-01
9.98393424e-01
9.98404826e-01
9.98421081e-01
9.98442317e-01
9.98468653e-01
9.98500192e-01
9.98537019e-01
9.98579198e-01
9.98626765e-01
9.98679731e-01
9.98738071e-01
9.98801728e-01
9.98870611e-01
9.98944587e-01
9.99023491e-01
9.99107117e-01
9.99195224e-01
9.99287534e-01
9.99383736e-01
9.99483489e-01
9.99586421e-01
9.99692139e-01
9.99800224e-01
9.99910243e-01
1.00002175e+00
1.00013429e+00
1.00024740e+00
1.00036062e+00
1.00047350e+00
1.00058560e+00
1.00069648e+00
1.00080575e+00
1.00091300e+00
1.00101787e+00
1.00112003e+00
1.00121916e+00
1.00131500e+00
1.00140728e+00
1.00149579e+00
1.00158034e+00
1.00166076e+00
1.00173691e+00
1.00180869e+00
1.00187598e+00
1.00193871e+00
1.00199680e+00
1.00205019e+00
1.00209883e+00
1.00214266e+00
1.00218164e+00
1.00221572e+00
1.00224485e+00
1.00226897e+00
1.00228804e+00
1.00230201e+00
1.00231083e+00
1.00231446e+00
1.00231287e+00
1.00230604e+00
1.00229396e+00
1.00227666e+00
1.00225417e+00
1.00222656e+00
1.00219395e+00
1.00215647e+00
1.00211430e+00
1.00206767e+00
1.00201685e+00
1.00196215e+00
1.00190394e+00
1.00184261e+00
1.00177861e+00
1.00171243e+00
1.00164457e+00
1.00157557e+00
1.00150602e+00
1.00143649e+00
1.00136755e+00
1.00129984e+00
1.00123397e+00
1.00117042e+00
1.00110979e+00
1.00105282e+00
1.00099988e+00
1.00095106e+00
1.00090747e+00
1.00087000e+00
1.00083766e+00
1.00081083e+00
1.00079295e+00
1.00077618e+00
1.00076493e+00
9.99568310e-01
9.99562894e-01
9.99554935e-01
9.99534638e-01
9.99510292e-01
9.99485234e-01
9.99452569e-01
9.99413831e-01
9.99372285e-01
9.99327487e-01
9.99278961e-01
9.99227927e-01
9.99175219e-01
9.99121105e-01
9.99066100e-01
9.99010869e-01
9.98955910e-01
9.98901655e-01
9.98848555e-01
9.98797022e-01
9.98747404e-01
9.98700012e-01
9.98655125e-01
9.98612985e-01
9.98573798e-01
9.98537745e-01
9.98504986e-01
9.98475662e-01
9.98449906e-01
9.98427839e-01
9.98409582e-01
9.98395255e-01
9.98384981e-01
9.98378884e-01
9.98377094e-01
9.98379744e-01
9.98386969e-01
9.98398904e-01
9.98415678e-01
9.98437419e-01
9.98464240e-01
9.98496244e-01
9.98533513e-01
9.98576109e-01
9.98624070e-01
9.98677403e-01
9.98736085e-01
9.98800059e-01
9.98869232e-01
9.98943477e-01
9.99022624e-01
9.99106471e-01
9.99194776e-01
9.99287263e-01
9.99383621e-01
9.99483509e-01
9.99586557e-01
9.99692369e-01
9.99800529e-01
9.99910602e-01
1.00002214e+00
1.00013469e+00
1.00024779e+00
1.00036099e+00
1.00047382e+00
1.00058586e+00
1.00069667e+00
1.00080583e+00
1.00091298e+00
1.00101774e+00
1.00111977e+00
1.00121878e+00
1.00131449e+00
1.00140665e+00
1.00149505e+00
1.00157951e+00
1.00165985e+00
1.00173594e+00
1.00180768e+00
1.00187496e+00
1.00193770e+00
1.00199584e+00
1.00204932e+00
1.00209808e+00
1.00214208e+00
1.00218127e+00
1.00221560e+00
1.00224503e+00
1.00226950e+00
1.00228897e+00
1.00230340e+00
1.00231272e+00
1.00231692e+00
1.00231594e+00
1.00230978e+00
1.00229843e+00
1.00228190e+00
1.00226024e+00
1.00223352e+00
1.00220184e+00
1.00216533e+00
1.00212419e+00
1.00207863e+00
1.00202891e+00
1.00197536e+00
1.00191832e+00
1.00185819e+00
1.00179542e+00
1.00173048e+00
1.00166388e+00
1.00159614e+00
1.00152785e+00
1.00145959e+00
1.00139189e+00
1.00132534e+00
1.00126066e+00
1.00119837e+00
1.00113870e+00
1.00108248e+00
1.00103090e+00
1.00098333e+00
1.00093928e+00
1.00090200e+00
1.00087283e+00
1.00084493e+00
1.00082151e+00
1.00081056e+00
1.00080223e+00
9.99544272e-01
9.99536337e-01
9.99524806e-01
9.99507338e-01
9.99485822e-01
9.99457761e-01
9.99424293e-01
9.99387609e-01
9.99346689e-01
9.99301573e-01
9.99253642e-01
9.99203502e-01
9.99151307e-01
9.99097681e-01
9.99043338e-01
9.98988750e-01
9.98934372e-01
9.98880713e-01
9.98828224e-01
9.98777289e-01
9.98728262e-01
9.98681468e-01
9.98637185e-01
9.98595653e-01
9.98557083e-01
9.98521660e-01
9.98489542e-01
9.98460873e-01
9.98435784e-01
9.98414397e-01
9.98396830e-01
9.98383201e-01
9.98373629e-01
9.98368237e-01
9.98367151e-01
9.98370498e-01
9.98378411e-01
9.98391020e-01
9.98408453e-01
9.98430832e-01
9.98458268e-01
9.98490860e-01
9.98528690e-01
9.98571818e-01
9.98620280e-01
9.98674083e-01
9.98733204e-01
9.98797586e-01
9.98867136e-01
9.98941726e-01
9.99021190e-01
9.99105325e-01
9.99193889e-01
9.99286608e-01
9.99383172e-01
9.99483239e-01
9.99586440e-01
9.99692379e-01
9.99800640e-01
9.99910789e-01
1.00002238e+00
1.00013495e+00
1.00024806e+00
1.00036123e+00
1.00047402e+00
1.00058599e+00
1.00069671e+00
1.00080578e+00
1.00091281e+00
1.00101745e+00
1.00111936e+00
1.00121824e+00
1.00131383e+00
1.00140588e+00
1.00149418e+00
1.00157854e+00
1.00165882e+00
1.00173487e+00
1.00180660e+00
1.00187391e+00
1.00193671e+00
1.00199496e+00
1.00204858e+00
1.00209754e+00
1.00214179e+00
1.00218128e+00
1.00221598e+00
1.00224582e+00
1.00227078e+00
1.00229080e+00
1.00230583e+00
1.00231583e+00
1.00232077e+00
1.00232061e+00
1.00231533e+00
1.00230492e+00
1.00228940e+00
1.00226881e+00
1.00224322e+00
1.00221272e+00
1.00217746e+00
1.00213761e+00
1.00209339e+00
1.00204506e+00
1.00199292e+00
1.00193733e+00
1.00187869e+00
1.00181741e+00
1.00175398e+00
1.00168890e+00
1.00162270e+00
1.00155591e+00
1.00148911e+00
1.00142292e+00
1.00135786e+00
1.00129444e+00
1.00123339e+00
1.00117533e+00
1.00112035e+00
1.00106899e+00
1.00102259e+00
1.00098110e+00
1.00094348e+00
1.00091170e+00
1.00088688e+00
1.00086660e+00
1.00085234e+00
1.00084181e+00
9.99512128e-01
9.99504104e-01
9.99490878e-01
9.99475079e-01
9.99453224e-01
9.99424291e-01
9.99392150e-01
9.99356039e-01
9.99314919e-01
9.99270417e-01
9.99223420e-01
9.99173822e-01
9.99122165e-01
9.99069298e-01
9.99015700e-01
9.98961787e-01
9.98908115e-01
9.98855189e-01
9.98803420e-01
9.98753200e-01
9.98704900e-01
9.98658840e-01
9.98615295e-01
9.98574512e-01
9.98536704e-01
9.98502056e-01
9.98470727e-01
9.98442862e-01
9.98418590e-01
9.98398032e-01
9.98381304e-01
9.98368522e-01
9.98359801e-01
9.98355259e-01
9.98355019e-01
9.98359205e-01
9.98367943e-01
9.98381360e-01
9.98399581e-01
9.98422722e-01
9.98450893e-01
9.98484190e-01
9.98522691e-01
9.98566456e-01
9.98615519e-01
9.98669886e-01
9.98729533e-01
9.98794404e-01
9.98864407e-01
9.98939413e-01
9.99019258e-01
9.99103738e-01
9.99192614e-01
9.99285611e-01
9.99382420e-01
9.99482701e-01
9.99586083e-01
9.99692173e-01
9.99800553e-01
9.99910790e-01
1.00002244e+00
1.00013504e+00
1.00024815e+00
1.00036129e+00
1.00047403e+00
1.00058593e+00
1.00069656e+00
1.00080552e+00
1.00091242e+00
1.00101693e+00
1.00111870e+00
1.00121745e+00
1.00131291e+00
1.00140484e+00
1.00149304e+00
1.00157733e+00
1.00165755e+00
1.00173359e+00
1.00180533e+00
1.00187270e+00
1.00193561e+00
1.00199401e+00
1.00204785e+00
1.00209707e+00
1.00214165e+00
1.00218154e+00
1.00221669e+00
1.00224707e+00
1.00227264e+00
1.00229334e+00
1.00230913e+00
1.00231998e+00
1.00232584e+00
1.00232667e+00
1.00232246e+00
1.00231321e+00
1.00229892e+00
1.00227963e+00
1.00225540e+00
1.00222634e+00
1.00219257e+00
1.00215427e+00
1.00211164e+00
1.00206496e+00
1.00201450e+00
1.00196063e+00
1.00190372e+00
1.00184421e+00
1.00178255e+00
1.00171923e+00
1.00165479e+00
1.00158977e+00
1.00152468e+00
1.00146014e+00
1.00139677e+00
1.00133500e+00
1.00127532e+00
1.00121859e+00
1.00116528e+00
1.00111521e+00
1.00106924e+00
1.00102890e+00
1.00099303e+00
1.00096085e+00
1.00093617e+00
1.00091787e+00
1.00090220e+00
1.00089182e+00
9.99472271e-01
9.99465409e-01
9.99453868e-01
9.99436796e-01
9.99413940e-01
9.99386940e-01
9.99355340e-01
9.99318509e-01
9.99278146e-01
9.99234822e-01
9.99188248e-01
9.99139131e-01
9.99088378e-01
9.99036358e-01
9.98983472e-01
9.98930351e-01
9.98877533e-01
9.98825434e-01
9.98774485e-01
9.98725110e-01
9.98677665e-01
9.98632463e-01
9.98589789e-01
9.98549891e-01
9.98512983e-01
9.98479248e-01
9.98448850e-01
9.98421930e-01
9.98398617e-01
9.98379030e-01
9.98363284e-01
9.98351488e-01
9.98343756e-01
9.98340202e-01
9.98340942e-01
9.98346097e-01
9.98355788e-01
9.98370138e-01
9.98389266e-01
9.98413286e-01
9.98442303e-01
9.98476411e-01
9.98515685e-01
9.98560182e-01
9.98609935e-01
9.98664950e-01
9.98725202e-01
9.98790635e-01
9.98861156e-01
9.98936638e-01
9.99016917e-01
9.99101790e-01
9.99191018e-01
9.99284329e-01
9.99381412e-01
9.99481929e-01
9.99585510e-01
9.99691761e-01
9.99800267e-01
9.99910594e-01
1.00002230e+00
1.00013492e+00
1.00024802e+00
1.00036112e+00
1.00047380e+00
1.00058560e+00
1.00069611e+00
1.00080494e+00
1.00091171e+00
1.00101606e+00
1.00111769e+00
1.00121629e+00
1.00131161e+00
1.00140341e+00
1.00149151e+00
1.00157572e+00
1.00165590e+00
1.00173194e+00
1.00180372e+00
1.00187118e+00
1.00193423e+00
1.00199283e+00
1.00204693e+00
1.00209650e+00
1.00214148e+00
1.00218185e+00
1.00221756e+00
1.00224859e+00
1.00227488e+00
1.00229640e+00
1.00231310e+00
1.00232495e+00
1.00233189e+00
1.00233390e+00
1.00233096e+00
1.00232306e+00
1.00231020e+00
1.00229243e+00
1.00226979e+00
1.00224239e+00
1.00221035e+00
1.00217384e+00
1.00213306e+00
1.00208826e+00
1.00203973e+00
1.00198782e+00
1.00193290e+00
1.00187539e+00
1.00181574e+00
1.00175443e+00
1.00169197e+00
1.00162891e+00
1.00156581e+00
1.00150314e+00
1.00144151e+00
1.00138159e+00
1.00132377e+00
1.00126838e+00
1.00121630e+00
1.00116819e+00
1.00112367e+00
1.00108321e+00
1.00104845e+00
1.00101873e+00
1.00099348e+00
1.00097422e+00
1.00096060e+00
1.00095171e+00
9.99428953e-01
9.99422096e-01
9.99410783e-01
9.99393365e-01
9.99371138e-01
9.99344674e-01
9.99312818e-01
9.99276708e-01
9.99237358e-01
9.99194409e-01
9.99148386e-01
9.99100254e-01
9.99050373e-01
9.98999095e-01
9.98947087e-01
9.98894920e-01
9.98843011e-01
9.98791823e-01
9.98741826e-01
9.98693414e-01
9.98646935e-01
9.98602713e-01
9.98561039e-01
9.98522155e-01
9.98486276e-01
9.98453588e-01
9.98424253e-01
9.98398412e-01
9.98376193e-01
9.98357712e-01
9.98343078e-01
9.98332402e-01
9.98325788e-01
9.98323349e-01
9.98325194e-01
9.98331441e-01
9.98342204e-01
9.98357601e-01
9.98377747e-01
9.98402752e-01
9.98432716e-01
9.98467730e-01
9.98507867e-01
9.98553181e-01
9.98603704e-01
9.98659439e-01
9.98720363e-01
9.98786417e-01
9.98857511e-01
9.98933517e-01
9.99014270e-01
9.99099571e-01
9.99189180e-01
9.99282826e-01
9.99380199e-01
9.99480962e-01
9.99584745e-01
9.99691157e-01
9.99799781e-01
9.99910188e-01
1.00002193e+00
1.00013456e+00
1.00024762e+00
1.00036066e+00
1.00047324e+00
1.00058492e+00
1.00069529e+00
1.00080396e+00
1.00091056e+00
1.00101474e+00
1.00111618e+00
1.00121461e+00
1.00130978e+00
1.00140145e+00
1.00148943e+00
1.00157356e+00
1.00165371e+00
1.00172975e+00
1.00180159e+00
1.00186916e+00
1.00193239e+00
1.00199124e+00
1.00204566e+00
1.00209562e+00
1.00214108e+00
1.00218202e+00
1.00221839e+00
1.00225016e+00
1.00227730e+00
1.00229977e+00
1.00231751e+00
1.00233050e+00
1.00233869e+00
1.00234204e+00
1.00234054e+00
1.00233418e+00
1.00232295e+00
1.00230689e+00
1.00228606e+00
1.00226054e+00
1.00223045e+00
1.00219595e+00
1.00215724e+00
1.00211455e+00
1.00206819e+00
1.00201847e+00
1.00196577e+00
1.00191048e+00
1.00185305e+00
1.00179398e+00
1.00173373e+00
1.00167283e+00
1.00161184e+00
1.00155132e+00
1.00149170e+00
1.00143360e+00
1.00137768e+00
1.00132424e+00
1.00127361e+00
1.00122670e+00
1.00118394e+00
1.00114489e+00
1.00111051e+00
1.00108187e+00
1.00105770e+00
1.00103851e+00
1.00102551e+00
1.00101691e+00
9.99381726e-01
9.99374430e-01
9.99362556e-01
9.99345937e-01
9.99324370e-01
9.99297483e-01
9.99266149e-01
9.99231172e-01
9.99192180e-01
9.99149701e-01
9.99104726e-01
9.99057510e-01
9.99008366e-01
9.98958022e-01
9.98907057e-01
9.98855864e-01
9.98804937e-01
9.98754795e-01
9.98705859e-01
9.98658506e-01
9.98613107e-01
9.98569989e-01
9.98529433e-01
9.98491683e-01
9.98456958e-01
9.98425443e-01
9.98397298e-01
9.98372663e-01
9.98351663e-01
9.98334412e-01
9.98321017e-01
9.98311581e-01
9.98306207e-01
9.98305000e-01
9.98308066e-01
9.98315515e-01
9.98327458e-01
9.98344007e-01
9.98365271e-01
9.98391355e-01
9.98422357e-01
9.98458362e-01
9.98499441e-01
9.98545645e-01
9.98597005e-01
9.98653522e-01
9.98715172e-01
9.98781897e-01
9.98853604e-01
9.98930169e-01
9.99011426e-01
9.99097175e-01
9.99187181e-01
9.99281169e-01
9.99378835e-01
9.99479839e-01
9.99583816e-01
9.99690373e-01
9.99799096e-01
9.99909556e-01
1.00002131e+00
1.00013391e+00
1.00024690e+00
1.00035984e+00
1.00047228e+00
1.00058381e+00
1.00069400e+00
1.00080247e+00
1.00090885e+00
1.00101282e+00
1.00111406e+00
1.00121229e+00
1.00130727e+00
1.00139878e+00
1.00148664e+00
1.00157068e+00
1.00165079e+00
1.00172684e+00
1.00179876e+00
1.00186646e+00
1.00192990e+00
1.00198904e+00
1.00204383e+00
1.00209424e+00
1.00214025e+00
1.00218183e+00
1.00221895e+00
1.00225157e+00
1.00227967e+00
1.00230320e+00
1.00232212e+00
1.00233639e+00
1.00234597e+00
1.00235083e+00
1.00235094e+00
1.00234628e+00
1.00233687e+00
1.00232272e+00
1.00230388e+00
1.00228043e+00
1.00225250e+00
1.00222021e+00
1.00218378e+00
1.00214343e+00
1.00209944e+00
1.00205212e+00
1.00200184e+00
1.00194899e+00
1.00189400e+00
1.00183734e+00
1.00177950e+00
1.00172098e+00
1.00166228e+00
1.00160399e+00
1.00154665e+00
1.00149064e+00
1.00143655e+00
1.00138507e+00
1.00133647e+00
1.00129090e+00
1.00124931e+00
1.00121216e+00
1.00117897e+00
1.00115045e+00
1.00112748e+00
1.00110955e+00
1.00109631e+00
1.00108758e+00
9.99329915e-01
9.99322840e-01
9.99311024e-01
9.99294602e-01
9.99273098e-01
9.99246672e-01
9.99216182e-01
9.99181585e-01
9.99143114e-01
9.99101670e-01
9.99057577e-01
9.99011100e-01
9.98962946e-01
9.98913700e-01
9.98863744e-01
9.98813589e-01
9.98763790e-01
9.98714789e-01
9.98666989e-01
9.98620803e-01
9.98576600e-01
9.98534694e-01
9.98495365e-01
9.98458867e-01
9.98425413e-01
9.98395187e-01
9.98368349e-01
9.98345038e-01
9.98325375e-01
9.98309470e-01
9.98297428e-01
9.98289345e-01
9.98285321e-01
9.98285455e-01
9.98289846e-01
9.98298599e-01
9.98311819e-01
9.98329612e-01
9.98352083e-01
9.98379330e-01
9.98411448e-01
9.98448517e-01
9.98490606e-01
9.98537762e-01
9.98590014e-01
9.98647363e-01
9.98709781e-01
9.98777211e-01
9.98849562e-01
9.98926707e-01
9.99008482e-01
9.99094689e-01
9.99185092e-01
9.99279419e-01
9.99377366e-01
9.99478595e-01
9.99582741e-01
9.99689415e-01
9.99798203e-01
9.99908679e-01
1.00002040e+00
1.00013293e+00
1.00024581e+00
1.00035859e+00
1.00047085e+00
1.00058216e+00
1.00069212e+00
1.00080035e+00
1.00090648e+00
1.00101019e+00
1.00111117e+00
1.00120917e+00
1.00130394e+00
1.00139527e+00
1.00148298e+00
1.00156693e+00
1.00164698e+00
1.00172305e+00
1.00179505e+00
1.00186291e+00
1.00192658e+00
1.00198604e+00
1.00204124e+00
1.00209217e+00
1.00213879e+00
1.00218109e+00
1.00221904e+00
1.00225261e+00
1.00228176e+00
1.00230647e+00
1.00232668e+00
1.00234237e+00
1.00235348e+00
1.00235999e+00
1.00236187e+00
1.00235908e+00
1.00235165e+00
1.00233958e+00
1.00232291e+00
1.00230172e+00
1.00227612e+00
1.00224625e+00
1.00221229e+00
1.00217446e+00
1.00213303e+00
1.00208831e+00
1.00204064e+00
1.00199042e+00
1.00193805e+00
1.00188399e+00
1.00182872e+00
1.00177275e+00
1.00171656e+00
1.00166064e+00
1.00160559e+00
1.00155193e+00
1.00149999e+00
1.00145035e+00
1.00140365e+00
1.00136008e+00
1.00131988e+00
1.00128388e+00
1.00125224e+00
1.00122482e+00
1.00120243e+00
1.00118515e+00
1.00117236e+00
1.00116421e+00
9.99274527e-01
9.99267692e-01
9.99256189e-01
9.99239732e-01
9.99218460e-01
9.99192805e-01
9.99162781e-01
9.99128610e-01
9.99091089e-01
9.99050547e-01
9.99007186e-01
9.98961700e-01
9.98914673e-01
9.98866460e-01
9.98817577e-01
9.98768612e-01
9.98720015e-01
9.98672210e-01
9.98625649e-01
9.98580740e-01
9.98537827e-01
9.98497229e-01
9.98459237e-01
9.98424097e-01
9.98392020e-01
9.98363192e-01
9.98337770e-01
9.98315890e-01
9.98297671e-01
9.98283219e-01
9.98272633e-01
9.98266006e-01
9.98263432e-01
9.98265002e-01
9.98270812e-01
9.98280959e-01
9.98295543e-01
9.98314662e-01
9.98338416e-01
9.98366899e-01
9.98400200e-01
9.98438395e-01
9.98481549e-01
9.98529708e-01
9.98582895e-01
9.98641111e-01
9.98704329e-01
9.98772488e-01
9.98845499e-01
9.98923233e-01
9.99005530e-01
9.99092190e-01
9.99182979e-01
9.99277627e-01
9.99375830e-01
9.99477253e-01
9.99581533e-01
9.99688282e-01
9.99797090e-01
9.99907533e-01
1.00001917e+00
1.00013157e+00
1.00024427e+00
1.00035685e+00
1.00046886e+00
1.00057991e+00
1.00068957e+00
1.00079750e+00
1.00090332e+00
1.00100672e+00
1.00110741e+00
1.00120513e+00
1.00129965e+00
1.00139077e+00
1.00147831e+00
1.00156214e+00
1.00164214e+00
1.00171822e+00
1.00179030e+00
1.00185834e+00
1.00192227e+00
1.00198208e+00
1.00203774e+00
1.00208923e+00
1.00213653e+00
1.00217962e+00
1.00221848e+00
1.00225308e+00
1.00228339e+00
1.00230938e+00
1.00233100e+00
1.00234822e+00
1.00236100e+00
1.00236929e+00
1.00237307e+00
1.00237231e+00
1.00236700e+00
1.00235716e+00
1.00234283e+00
1.00232407e+00
1.00230097e+00
1.00227368e+00
1.00224235e+00
1.00220722e+00
1.00216852e+00
1.00212657e+00
1.00208168e+00
1.00203424e+00
1.00198466e+00
1.00193338e+00
1.00188083e+00
1.00182753e+00
1.00177399e+00
1.00172066e+00
1.00166803e+00
1.00161669e+00
1.00156711e+00
1.00151961e+00
1.00147471e+00
1.00143304e+00
1.00139471e+00
1.00135995e+00
1.00132951e+00
1.00130353e+00
1.00128192e+00
1.00126505e+00
1.00125301e+00
1.00124546e+00
9.99216485e-01
9.99209683e-01
9.99198222e-01
9.99182032e-01
9.99161238e-01
9.99135999e-01
9.99106440e-01
9.99073117e-01
9.99036439e-01
9.98996617e-01
9.98954237e-01
9.98909874e-01
9.98863879e-01
9.98816758e-01
9.98769105e-01
9.98721379e-01
9.98674018e-01
9.98627508e-01
9.98582287e-01
9.98538730e-01
9.98497192e-01
9.98458002e-01
9.98421442e-01
9.98387754e-01
9.98357153e-01
9.98329821e-01
9.98305913e-01
9.98285561e-01
9.98268882e-01
9.98255977e-01
9.98246941e-01
9.98241861e-01
9.98240824e-01
9.98243917e-01
9.98251228e-01
9.98262848e-01
9.98278869e-01
9.98299385e-01
9.98324488e-01
9.98354268e-01
9.98388807e-01
9.98428179e-01
9.98472442e-01
9.98521640e-01
9.98575795e-01
9.98634904e-01
9.98698939e-01
9.98767839e-01
9.98841514e-01
9.98919836e-01
9.99002644e-01
9.99089741e-01
9.99180893e-01
9.99275831e-01
9.99374255e-01
9.99475830e-01
9.99580197e-01
9.99686968e-01
9.99795739e-01
9.99906087e-01
1.00001758e+00
1.00012978e+00
1.00024224e+00
1.00035454e+00
1.00046624e+00
1.00057695e+00
1.00068626e+00
1.00079382e+00
1.00089927e+00
1.00100231e+00
1.00110266e+00
1.00120006e+00
1.00129428e+00
1.00138515e+00
1.00147250e+00
1.00155620e+00
1.00163613e+00
1.00171222e+00
1.00178439e+00
1.00185261e+00
1.00191683e+00
1.00197703e+00
1.00203318e+00
1.00208528e+00
1.00213331e+00
1.00217726e+00
1.00221710e+00
1.00225282e+00
1.00228438e+00
1.00231174e+00
1.00233488e+00
1.00235375e+00
1.00236831e+00
1.00237851e+00
1.00238431e+00
1.00238570e+00
1.00238266e+00
1.00237520e+00
1.00236334e+00
1.00234714e+00
1.00232669e+00
1.00230212e+00
1.00227359e+00
1.00224129e+00
1.00220548e+00
1.00216643e+00
1.00212448e+00
1.00207997e+00
1.00203331e+00
1.00198493e+00
1.00193527e+00
1.00188478e+00
1.00183396e+00
1.00178333e+00
1.00173333e+00
1.00168440e+00
1.00163712e+00
1.00159195e+00
1.00154914e+00
1.00150921e+00
1.00147267e+00
1.00143962e+00
1.00141040e+00
1.00138550e+00
1.00136496e+00
1.00134884e+00
1.00133724e+00
1.00133006e+00
9.99156016e-01
9.99149285e-01
9.99137896e-01
9.99122055e-01
9.99101671e-01
9.99076834e-01
9.99047966e-01
9.99015448e-01
9.98979485e-01
9.98940578e-01
9.98899284e-01
9.98855948e-01
9.98811041e-01
9.98765158e-01
9.98718761e-01
9.98672294e-01
9.98626263e-01
9.98581137e-01
9.98537312e-01
9.98495179e-01
9.98455105e-01
9.98417407e-01
9.98382359e-01
9.98350210e-01
9.98321172e-01
9.98295422e-01
9.98273113e-01
9.98254376e-01
9.98239322e-01
9.98228048e-01
9.98220642e-01
9.98217188e-01
9.98217766e-01
9.98222455e-01
9.98231337e-01
9.98244496e-01
9.98262018e-01
9.98283989e-01
9.98310496e-01
9.98341622e-01
9.98377444e-01
9.98418030e-01
9.98463436e-01
9.98513701e-01
9.98568844e-01
9.98628860e-01
9.98693719e-01
9.98763361e-01
9.98837693e-01
9.98916589e-01
9.98999888e-01
9.99087393e-01
9.99178874e-01
9.99274062e-01
9.99372659e-01
9.99474333e-01
9.99578728e-01
9.99685459e-01
9.99794125e-01
9.99904309e-01
1.00001558e+00
1.00012751e+00
1.00023966e+00
1.00035160e+00
1.00046292e+00
1.00057321e+00
1.00068210e+00
1.00078922e+00
1.00089425e+00
1.00099687e+00
1.00109681e+00
1.00119384e+00
1.00128774e+00
1.00137832e+00
1.00146545e+00
1.00154899e+00
1.00162884e+00
1.00170493e+00
1.00177721e+00
1.00184562e+00
1.00191014e+00
1.00197076e+00
1.00202745e+00
1.00208021e+00
1.00212903e+00
1.00217389e+00
1.00221479e+00
1.00225170e+00
1.00228459e+00
1.00231343e+00
1.00233817e+00
1.00235879e+00
1.00237523e+00
1.00238744e+00
1.00239539e+00
1.00239905e+00
1.00239839e+00
1.00239342e+00
1.00238415e+00
1.00237064e+00
1.00235297e+00
1.00233124e+00
1.00230562e+00
1.00227629e+00
1.00224348e+00
1.00220747e+00
1.00216856e+00
1.00212711e+00
1.00208349e+00
1.00203812e+00
1.00199143e+00
1.00194388e+00
1.00189592e+00
1.00184803e+00
1.00180071e+00
1.00175440e+00
1.00170951e+00
1.00166658e+00
1.00162601e+00
1.00158805e+00
1.00155318e+00
1.00152183e+00
1.00149408e+00
1.00147025e+00
1.00145070e+00
1.00143544e+00
1.00142431e+00
1.00141754e+00
9.99093584e-01
9.99087047e-01
9.99075840e-01
9.99060241e-01
9.99040231e-01
9.99015984e-01
9.98987811e-01
9.98955972e-01
9.98920860e-01
9.98882978e-01
9.98842681e-01
9.98800407e-01
9.98756720e-01
9.98712087e-01
9.98666950e-01
9.98621826e-01
9.98577202e-01
9.98533495e-01
9.98491125e-01
9.98450496e-01
9.98411955e-01
9.98375813e-01
9.98342352e-01
9.98311818e-01
9.98284416e-01
9.98260323e-01
9.98239689e-01
9.98222640e-01
9.98209283e-01
9.98199711e-01
9.98194006e-01
9.98192245e-01
9.98194502e-01
9.98200849e-01
9.98211361e-01
9.98226115e-01
9.98245189e-01
9.98268663e-01
9.98296617e-01
9.98329127e-01
9.98366265e-01
9.98408093e-01
9.98454664e-01
9.98506011e-01
9.98562152e-01
9.98623078e-01
9.98688759e-01
9.98759132e-01
9.98834104e-01
9.98913549e-01
9.98997308e-01
9.99085185e-01
9.99176950e-01
9.99272337e-01
9.99371050e-01
9.99472762e-01
9.99577117e-01
9.99683737e-01
9.99792224e-01
9.99902164e-01
1.00001314e+00
1.00012471e+00
1.00023646e+00
1.00034797e+00
1.00045882e+00
1.00056863e+00
1.00067702e+00
1.00078364e+00
1.00088816e+00
1.00099030e+00
1.00108979e+00
1.00118640e+00
1.00127992e+00
1.00137020e+00
1.00145707e+00
1.00154043e+00
1.00162020e+00
1.00169629e+00
1.00176867e+00
1.00183729e+00
1.00190214e+00
1.00196319e+00
1.00202046e+00
1.00207392e+00
1.00212358e+00
1.00216943e+00
1.00221145e+00
1.00224962e+00
1.00228392e+00
1.00231431e+00
1.00234075e+00
1.00236321e+00
1.00238162e+00
1.00239594e+00
1.00240613e+00
1.00241215e+00
1.00241398e+00
1.00241160e+00
1.00240503e+00
1.00239430e+00
1.00237950e+00
1.00236073e+00
1.00233811e+00
1.00231184e+00
1.00228214e+00
1.00224926e+00
1.00221349e+00
1.00217519e+00
1.00213471e+00
1.00209244e+00
1.00204881e+00
1.00200426e+00
1.00195925e+00
1.00191421e+00
1.00186960e+00
1.00182594e+00
1.00178359e+00
1.00174296e+00
1.00170455e+00
1.00166869e+00
1.00163566e+00
1.00160586e+00
1.00157960e+00
1.00155706e+00
1.00153847e+00
1.00152392e+00
1.00151339e+00
1.00150716e+00
9.99029825e-01
9.99023460e-01
9.99012450e-01
9.98997123e-01
9.98977553e-01
9.98953900e-01
9.98926365e-01
9.98895287e-01
9.98861106e-01
9.98824181e-01
9.98784903e-01
9.98743799e-01
9.98701335e-01
9.98657944e-01
9.98614140e-01
9.98570420e-01
9.98527220e-01
9.98484980e-01
9.98444134e-01
9.98405060e-01
9.98368102e-01
9.98333578e-01
9.98301767e-01
9.98272907e-01
9.98247202e-01
9.98224828e-01
9.98205931e-01
9.98190631e-01
9.98179032e-01
9.98171221e-01
9.98167274e-01
9.98167262e-01
9.98171251e-01
9.98179307e-01
9.98191496e-01
9.98207889e-01
9.98228556e-01
9.98253570e-01
9.98283002e-01
9.98316924e-01
9.98355401e-01
9.98398489e-01
9.98446236e-01
9.98498672e-01
9.98555811e-01
9.98617641e-01
9.98684130e-01
9.98755214e-01
9.98830800e-01
9.98910763e-01
9.98994941e-01
9.99083143e-01
9.99175138e-01
9.99270665e-01
9.99369430e-01
9.99471109e-01
9.99575350e-01
9.99681780e-01
9.99790005e-01
9.99899618e-01
1.00001020e+00
1.00012134e+00
1.00023261e+00
1.00034359e+00
1.00045390e+00