# vtk DataFile Version 2.0
LBM Flow Field - Timestep 2740
ASCII
DATASET STRUCTURED_POINTS
DIMENSIONS 128 128 1
ORIGIN 0.0 0.0 0.0
SPACING 1.0 1.0 1.0
POINT_DATA 16384
SCALARS density double 1
LOOKUP_TABLE default
1.00106502e+00
1.00105636e+00
1.00104591e+00
1.00104148e+00
1.00103520e+00
1.00102643e+00
1.00101702e+00
1.00100704e+00
1.00099588e+00
1.00098381e+00
1.00097116e+00
1.00095798e+00
1.00094431e+00
1.00093035e+00
1.00091624e+00
1.00090208e+00
1.00088799e+00
1.00087411e+00
1.00086055e+00
1.00084741e+00
1.00083478e+00
1.00082276e+00
1.00081142e+00
1.00080081e+00
1.00079098e+00
1.00078198e+00
1.00077380e+00
1.00076645e+00
1.00075993e+00
1.00075419e+00
1.00074921e+00
1.00074492e+00
1.00074127e+00
1.00073818e+00
1.00073556e+00
1.00073333e+00
1.00073140e+00
1.00072968e+00
1.00072806e+00
1.00072646e+00
1.00072480e+00
1.00072297e+00
1.00072091e+00
1.00071854e+00
1.00071581e+00
1.00071265e+00
1.00070903e+00
1.00070490e+00
1.00070025e+00
1.00069505e+00
1.00068931e+00
1.00068301e+00
1.00067617e+00
1.00066881e+00
1.00066093e+00
1.00065256e+00
1.00064374e+00
1.00063448e+00
1.00062482e+00
1.00061478e+00
1.00060441e+00
1.00059372e+00
1.00058274e+00
1.00057150e+00
1.00056003e+00
1.00054834e+00
1.00053645e+00
1.00052439e+00
1.00051218e+00
1.00049983e+00
1.00048736e+00
1.00047478e+00
1.00046212e+00
1.00044938e+00
1.00043659e+00
1.00042376e+00
1.00041091e+00
1.00039805e+00
1.00038521e+00
1.00037240e+00
1.00035962e+00
1.00034689e+00
1.00033422e+00
1.00032162e+00
1.00030907e+00
1.00029659e+00
1.00028415e+00
1.00027174e+00
1.00025935e+00
1.00024695e+00
1.00023450e+00
1.00022197e+00
1.00020933e+00
1.00019653e+00
1.00018353e+00
1.00017028e+00
1.00015674e+00
1.00014286e+00
1.00012862e+00
1.00011398e+00
1.00009891e+00
1.00008341e+00
1.00006745e+00
1.00005104e+00
1.00003420e+00
1.00001695e+00
9.99999340e-01
9.99981406e-01
9.99963214e-01
9.99944839e-01
9.99926366e-01
9.99907884e-01
9.99889492e-01
9.99871313e-01
9.99853456e-01
9.99836010e-01
9.99819114e-01
9.99802962e-01
9.99787586e-01
9.99772982e-01
9.99759558e-01
9.99747653e-01
9.99736367e-01
9.99725771e-01
9.99718474e-01
9.99713504e-01
9.99699777e-01
9.99688195e-01
1.00105566e+00
1.00105172e+00
1.00104396e+00
1.00103863e+00
1.00103183e+00
1.00102371e+00
1.00101450e+00
1.00100445e+00
1.00099346e+00
1.00098163e+00
1.00096913e+00
1.00095607e+00
1.00094257e+00
1.00092876e+00
1.00091478e+00
1.00090074e+00
1.00088677e+00
1.00087300e+00
1.00085953e+00
1.00084647e+00
1.00083392e+00
1.00082195e+00
1.00081065e+00
1.00080007e+00
1.00079027e+00
1.00078126e+00
1.00077308e+00
1.00076571e+00
1.00075915e+00
1.00075338e+00
1.00074834e+00
1.00074400e+00
1.00074028e+00
1.00073712e+00
1.00073443e+00
1.00073213e+00
1.00073013e+00
1.00072834e+00
1.00072666e+00
1.00072501e+00
1.00072330e+00
1.00072143e+00
1.00071934e+00
1.00071696e+00
1.00071422e+00
1.00071107e+00
1.00070746e+00
1.00070336e+00
1.00069874e+00
1.00069360e+00
1.00068790e+00
1.00068167e+00
1.00067490e+00
1.00066761e+00
1.00065980e+00
1.00065152e+00
1.00064278e+00
1.00063360e+00
1.00062402e+00
1.00061407e+00
1.00060377e+00
1.00059315e+00
1.00058224e+00
1.00057107e+00
1.00055966e+00
1.00054802e+00
1.00053619e+00
1.00052419e+00
1.00051202e+00
1.00049971e+00
1.00048728e+00
1.00047474e+00
1.00046212e+00
1.00044942e+00
1.00043666e+00
1.00042387e+00
1.00041105e+00
1.00039824e+00
1.00038543e+00
1.00037265e+00
1.00035991e+00
1.00034722e+00
1.00033459e+00
1.00032202e+00
1.00030951e+00
1.00029707e+00
1.00028466e+00
1.00027230e+00
1.00025994e+00
1.00024757e+00
1.00023516e+00
1.00022267e+00
1.00021006e+00
1.00019730e+00
1.00018433e+00
1.00017112e+00
1.00015762e+00
1.00014379e+00
1.00012959e+00
1.00011500e+00
1.00009999e+00
1.00008454e+00
1.00006865e+00
1.00005232e+00
1.00003557e+00
1.00001841e+00
1.00000089e+00
9.99983068e-01
9.99964994e-01
9.99946745e-01
9.99928405e-01
9.99910067e-01
9.99891832e-01
9.99873810e-01
9.99856110e-01
9.99838852e-01
9.99822158e-01
9.99806156e-01
9.99790940e-01
9.99776648e-01
9.99763409e-01
9.99751380e-01
9.99740334e-01
9.99730620e-01
9.99722483e-01
9.99716145e-01
9.99706065e-01
9.99700974e-01
1.00104460e+00
1.00104350e+00
1.00104194e+00
1.00103502e+00
1.00102729e+00
1.00102003e+00
1.00101125e+00
1.00100106e+00
1.00099018e+00
1.00097863e+00
1.00096627e+00
1.00095333e+00
1.00093999e+00
1.00092634e+00
1.00091248e+00
1.00089857e+00
1.00088473e+00
1.00087106e+00
1.00085768e+00
1.00084471e+00
1.00083223e+00
1.00082032e+00
1.00080907e+00
1.00079852e+00
1.00078874e+00
1.00077974e+00
1.00077155e+00
1.00076416e+00
1.00075758e+00
1.00075177e+00
1.00074669e+00
1.00074229e+00
1.00073852e+00
1.00073530e+00
1.00073255e+00
1.00073020e+00
1.00072814e+00
1.00072630e+00
1.00072457e+00
1.00072288e+00
1.00072114e+00
1.00071925e+00
1.00071715e+00
1.00071477e+00
1.00071204e+00
1.00070891e+00
1.00070534e+00
1.00070129e+00
1.00069673e+00
1.00069165e+00
1.00068603e+00
1.00067988e+00
1.00067320e+00
1.00066601e+00
1.00065831e+00
1.00065013e+00
1.00064149e+00
1.00063242e+00
1.00062294e+00
1.00061309e+00
1.00060289e+00
1.00059238e+00
1.00058156e+00
1.00057048e+00
1.00055916e+00
1.00054761e+00
1.00053585e+00
1.00052392e+00
1.00051183e+00
1.00049959e+00
1.00048722e+00
1.00047474e+00
1.00046218e+00
1.00044953e+00
1.00043684e+00
1.00042410e+00
1.00041134e+00
1.00039858e+00
1.00038583e+00
1.00037311e+00
1.00036043e+00
1.00034780e+00
1.00033523e+00
1.00032272e+00
1.00031028e+00
1.00029789e+00
1.00028556e+00
1.00027325e+00
1.00026096e+00
1.00024866e+00
1.00023632e+00
1.00022389e+00
1.00021136e+00
1.00019866e+00
1.00018576e+00
1.00017262e+00
1.00015920e+00
1.00014544e+00
1.00013133e+00
1.00011682e+00
1.00010190e+00
1.00008655e+00
1.00007075e+00
1.00005453e+00
1.00003788e+00
1.00002084e+00
1.00000345e+00
9.99985755e-01
9.99967819e-01
9.99949715e-01
9.99931525e-01
9.99913346e-01
9.99895281e-01
9.99877425e-01
9.99859894e-01
9.99842835e-01
9.99826343e-01
9.99810479e-01
9.99795450e-01
9.99781497e-01
9.99768403e-01
9.99756129e-01
9.99745660e-01
9.99737125e-01
9.99727648e-01
9.99718978e-01
9.99717402e-01
9.99716144e-01
1.00104011e+00
1.00103839e+00
1.00103523e+00
1.00102948e+00
1.00102325e+00
1.00101559e+00
1.00100663e+00
1.00099686e+00
1.00098622e+00
1.00097471e+00
1.00096252e+00
1.00094978e+00
1.00093660e+00
1.00092308e+00
1.00090938e+00
1.00089561e+00
1.00088189e+00
1.00086835e+00
1.00085508e+00
1.00084220e+00
1.00082981e+00
1.00081797e+00
1.00080678e+00
1.00079628e+00
1.00078652e+00
1.00077754e+00
1.00076936e+00
1.00076197e+00
1.00075536e+00
1.00074952e+00
1.00074441e+00
1.00073997e+00
1.00073615e+00
1.00073288e+00
1.00073008e+00
1.00072768e+00
1.00072558e+00
1.00072369e+00
1.00072193e+00
1.00072021e+00
1.00071844e+00
1.00071655e+00
1.00071445e+00
1.00071208e+00
1.00070938e+00
1.00070629e+00
1.00070276e+00
1.00069877e+00
1.00069429e+00
1.00068929e+00
1.00068377e+00
1.00067772e+00
1.00067115e+00
1.00066406e+00
1.00065648e+00
1.00064842e+00
1.00063991e+00
1.00063096e+00
1.00062162e+00
1.00061189e+00
1.00060181e+00
1.00059141e+00
1.00058072e+00
1.00056975e+00
1.00055853e+00
1.00054709e+00
1.00053544e+00
1.00052360e+00
1.00051160e+00
1.00049945e+00
1.00048717e+00
1.00047478e+00
1.00046230e+00
1.00044974e+00
1.00043712e+00
1.00042447e+00
1.00041179e+00
1.00039911e+00
1.00038644e+00
1.00037380e+00
1.00036120e+00
1.00034865e+00
1.00033616e+00
1.00032373e+00
1.00031137e+00
1.00029907e+00
1.00028681e+00
1.00027459e+00
1.00026238e+00
1.00025017e+00
1.00023790e+00
1.00022557e+00
1.00021311e+00
1.00020050e+00
1.00018770e+00
1.00017465e+00
1.00016132e+00
1.00014766e+00
1.00013365e+00
1.00011925e+00
1.00010444e+00
1.00008920e+00
1.00007354e+00
1.00005744e+00
1.00004093e+00
1.00002404e+00
1.00000680e+00
9.99989269e-01
9.99971502e-01
9.99953574e-01
9.99935570e-01
9.99917578e-01
9.99899703e-01
9.99882054e-01
9.99864737e-01
9.99847863e-01
9.99831572e-01
9.99815979e-01
9.99801153e-01
9.99787244e-01
9.99774470e-01
9.99762755e-01
9.99752011e-01
9.99742869e-01
9.99735443e-01
9.99728361e-01
9.99724527e-01
9.99722346e-01
1.00103465e+00
1.00103226e+00
1.00102815e+00
1.00102391e+00
1.00101801e+00
1.00100993e+00
1.00100127e+00
1.00099187e+00
1.00098132e+00
1.00096992e+00
1.00095795e+00
1.00094541e+00
1.00093238e+00
1.00091904e+00
1.00090551e+00
1.00089190e+00
1.00087833e+00
1.00086493e+00
1.00085180e+00
1.00083903e+00
1.00082674e+00
1.00081500e+00
1.00080388e+00
1.00079344e+00
1.00078372e+00
1.00077477e+00
1.00076660e+00
1.00075921e+00
1.00075260e+00
1.00074674e+00
1.00074160e+00
1.00073712e+00
1.00073326e+00
1.00072994e+00
1.00072709e+00
1.00072464e+00
1.00072249e+00
1.00072057e+00
1.00071877e+00
1.00071703e+00
1.00071525e+00
1.00071335e+00
1.00071126e+00
1.00070891e+00
1.00070624e+00
1.00070320e+00
1.00069974e+00
1.00069582e+00
1.00069142e+00
1.00068652e+00
1.00068110e+00
1.00067517e+00
1.00066873e+00
1.00066178e+00
1.00065433e+00
1.00064642e+00
1.00063805e+00
1.00062925e+00
1.00062004e+00
1.00061046e+00
1.00060053e+00
1.00059027e+00
1.00057971e+00
1.00056888e+00
1.00055779e+00
1.00054647e+00
1.00053494e+00
1.00052323e+00
1.00051134e+00
1.00049930e+00
1.00048713e+00
1.00047485e+00
1.00046247e+00
1.00045002e+00
1.00043750e+00
1.00042495e+00
1.00041237e+00
1.00039979e+00
1.00038722e+00
1.00037468e+00
1.00036218e+00
1.00034973e+00
1.00033734e+00
1.00032501e+00
1.00031275e+00
1.00030054e+00
1.00028839e+00
1.00027626e+00
1.00026416e+00
1.00025203e+00
1.00023987e+00
1.00022763e+00
1.00021528e+00
1.00020277e+00
1.00019007e+00
1.00017713e+00
1.00016391e+00
1.00015037e+00
1.00013648e+00
1.00012221e+00
1.00010753e+00
1.00009244e+00
1.00007692e+00
1.00006099e+00
1.00004465e+00
1.00002793e+00
1.00001088e+00
9.99993537e-01
9.99975970e-01
9.99958252e-01
9.99940465e-01
9.99922698e-01
9.99905047e-01
9.99887630e-01
9.99870559e-01
9.99853919e-01
9.99837838e-01
9.99822506e-01
9.99807976e-01
9.99794200e-01
9.99781528e-01
9.99770329e-01
9.99759986e-01
9.99750232e-01
9.99743238e-01
9.99738239e-01
9.99733042e-01
9.99729945e-01
1.00102747e+00
1.00102549e+00
1.00102204e+00
1.00101733e+00
1.00101099e+00
1.00100369e+00
1.00099541e+00
1.00098586e+00
1.00097546e+00
1.00096439e+00
1.00095260e+00
1.00094020e+00
1.00092737e+00
1.00091424e+00
1.00090089e+00
1.00088746e+00
1.00087407e+00
1.00086083e+00
1.00084784e+00
1.00083522e+00
1.00082305e+00
1.00081141e+00
1.00080038e+00
1.00079001e+00
1.00078036e+00
1.00077145e+00
1.00076330e+00
1.00075593e+00
1.00074931e+00
1.00074343e+00
1.00073826e+00
1.00073375e+00
1.00072985e+00
1.00072649e+00
1.00072360e+00
1.00072110e+00
1.00071891e+00
1.00071694e+00
1.00071512e+00
1.00071336e+00
1.00071156e+00
1.00070967e+00
1.00070759e+00
1.00070527e+00
1.00070264e+00
1.00069966e+00
1.00069627e+00
1.00069243e+00
1.00068813e+00
1.00068334e+00
1.00067805e+00
1.00067225e+00
1.00066595e+00
1.00065915e+00
1.00065186e+00
1.00064410e+00
1.00063589e+00
1.00062726e+00
1.00061822e+00
1.00060881e+00
1.00059904e+00
1.00058894e+00
1.00057854e+00
1.00056786e+00
1.00055692e+00
1.00054575e+00
1.00053437e+00
1.00052279e+00
1.00051104e+00
1.00049913e+00
1.00048709e+00
1.00047494e+00
1.00046268e+00
1.00045035e+00
1.00043796e+00
1.00042552e+00
1.00041306e+00
1.00040060e+00
1.00038815e+00
1.00037573e+00
1.00036334e+00
1.00035101e+00
1.00033874e+00
1.00032653e+00
1.00031438e+00
1.00030229e+00
1.00029025e+00
1.00027824e+00
1.00026625e+00
1.00025424e+00
1.00024219e+00
1.00023007e+00
1.00021784e+00
1.00020545e+00
1.00019287e+00
1.00018006e+00
1.00016697e+00
1.00015357e+00
1.00013982e+00
1.00012570e+00
1.00011118e+00
1.00009626e+00
1.00008092e+00
1.00006517e+00
1.00004902e+00
1.00003251e+00
1.00001567e+00
9.99998558e-01
9.99981227e-01
9.99963751e-01
9.99946210e-01
9.99928700e-01
9.99911316e-01
9.99894153e-01
9.99877334e-01
9.99860986e-01
9.99845188e-01
9.99830036e-01
9.99815744e-01
9.99802414e-01
9.99789930e-01
9.99778507e-01
9.99768675e-01
9.99759989e-01
9.99752374e-01
9.99746732e-01
9.99742479e-01
9.99740006e-01
1.00102008e+00
1.00101800e+00
1.00101480e+00
1.00100982e+00
1.00100370e+00
1.00099676e+00
1.00098842e+00
1.00097902e+00
1.00096893e+00
1.00095804e+00
1.00094639e+00
1.00093421e+00
1.00092162e+00
1.00090869e+00
1.00089554e+00
1.00088231e+00
1.00086911e+00
1.00085605e+00
1.00084323e+00
1.00083076e+00
1.00081873e+00
1.00080721e+00
1.00079629e+00
1.00078601e+00
1.00077642e+00
1.00076757e+00
1.00075946e+00
1.00075210e+00
1.00074549e+00
1.00073960e+00
1.00073441e+00
1.00072987e+00
1.00072593e+00
1.00072253e+00
1.00071960e+00
1.00071705e+00
1.00071483e+00
1.00071283e+00
1.00071098e+00
1.00070920e+00
1.00070740e+00
1.00070551e+00
1.00070345e+00
1.00070116e+00
1.00069859e+00
1.00069567e+00
1.00069236e+00
1.00068862e+00
1.00068443e+00
1.00067977e+00
1.00067461e+00
1.00066896e+00
1.00066281e+00
1.00065618e+00
1.00064906e+00
1.00064148e+00
1.00063345e+00
1.00062500e+00
1.00061615e+00
1.00060692e+00
1.00059733e+00
1.00058741e+00
1.00057719e+00
1.00056668e+00
1.00055592e+00
1.00054491e+00
1.00053369e+00
1.00052227e+00
1.00051067e+00
1.00049892e+00
1.00048703e+00
1.00047502e+00
1.00046291e+00
1.00045072e+00
1.00043847e+00
1.00042617e+00
1.00041385e+00
1.00040153e+00
1.00038921e+00
1.00037692e+00
1.00036468e+00
1.00035248e+00
1.00034034e+00
1.00032826e+00
1.00031625e+00
1.00030429e+00
1.00029238e+00
1.00028050e+00
1.00026864e+00
1.00025677e+00
1.00024485e+00
1.00023286e+00
1.00022076e+00
1.00020852e+00
1.00019608e+00
1.00018341e+00
1.00017048e+00
1.00015724e+00
1.00014366e+00
1.00012971e+00
1.00011538e+00
1.00010064e+00
1.00008551e+00
1.00006997e+00
1.00005405e+00
1.00003778e+00
1.00002119e+00
1.00000433e+00
9.99987260e-01
9.99970058e-01
9.99952798e-01
9.99935571e-01
9.99918479e-01
9.99901617e-01
9.99885081e-01
9.99869009e-01
9.99853529e-01
9.99838681e-01
9.99824580e-01
9.99811492e-01
9.99799438e-01
9.99788207e-01
9.99778286e-01
9.99770093e-01
9.99762796e-01
9.99756790e-01
9.99752957e-01
9.99750396e-01
1.00101240e+00
1.00101000e+00
1.00100644e+00
1.00100173e+00
1.00099590e+00
1.00098876e+00
1.00098054e+00
1.00097154e+00
1.00096160e+00
1.00095080e+00
1.00093941e+00
1.00092749e+00
1.00091510e+00
1.00090237e+00
1.00088946e+00
1.00087644e+00
1.00086345e+00
1.00085058e+00
1.00083795e+00
1.00082565e+00
1.00081378e+00
1.00080240e+00
1.00079160e+00
1.00078142e+00
1.00077192e+00
1.00076312e+00
1.00075506e+00
1.00074773e+00
1.00074113e+00
1.00073524e+00
1.00073004e+00
1.00072548e+00
1.00072151e+00
1.00071807e+00
1.00071510e+00
1.00071252e+00
1.00071025e+00
1.00070823e+00
1.00070636e+00
1.00070456e+00
1.00070276e+00
1.00070088e+00
1.00069885e+00
1.00069661e+00
1.00069409e+00
1.00069124e+00
1.00068802e+00
1.00068439e+00
1.00068033e+00
1.00067580e+00
1.00067079e+00
1.00066530e+00
1.00065933e+00
1.00065287e+00
1.00064594e+00
1.00063856e+00
1.00063073e+00
1.00062248e+00
1.00061382e+00
1.00060479e+00
1.00059540e+00
1.00058569e+00
1.00057566e+00
1.00056534e+00
1.00055476e+00
1.00054394e+00
1.00053290e+00
1.00052166e+00
1.00051024e+00
1.00049866e+00
1.00048693e+00
1.00047509e+00
1.00046314e+00
1.00045111e+00
1.00043902e+00
1.00042688e+00
1.00041472e+00
1.00040255e+00
1.00039039e+00
1.00037826e+00
1.00036616e+00
1.00035412e+00
1.00034213e+00
1.00033020e+00
1.00031834e+00
1.00030653e+00
1.00029477e+00
1.00028304e+00
1.00027133e+00
1.00025961e+00
1.00024784e+00
1.00023601e+00
1.00022406e+00
1.00021197e+00
1.00019970e+00
1.00018720e+00
1.00017444e+00
1.00016138e+00
1.00014799e+00
1.00013424e+00
1.00012011e+00
1.00010560e+00
1.00009069e+00
1.00007540e+00
1.00005974e+00
1.00004373e+00
1.00002741e+00
1.00001084e+00
9.99994073e-01
9.99977176e-01
9.99960232e-01
9.99943322e-01
9.99926542e-01
9.99910007e-01
9.99893811e-01
9.99878039e-01
9.99862830e-01
9.99848341e-01
9.99834591e-01
9.99821635e-01
9.99809778e-01
9.99799092e-01
9.99789338e-01
9.99780888e-01
9.99774018e-01
9.99768411e-01
9.99764126e-01
9.99761199e-01
1.00100365e+00
1.00100114e+00
1.00099751e+00
1.00099290e+00
1.00098706e+00
1.00098000e+00
1.00097206e+00
1.00096318e+00
1.00095336e+00
1.00094283e+00
1.00093169e+00
1.00091996e+00
1.00090779e+00
1.00089532e+00
1.00088264e+00
1.00086986e+00
1.00085709e+00
1.00084444e+00
1.00083201e+00
1.00081990e+00
1.00080819e+00
1.00079697e+00
1.00078630e+00
1.00077624e+00
1.00076683e+00
1.00075812e+00
1.00075011e+00
1.00074282e+00
1.00073624e+00
1.00073036e+00
1.00072516e+00
1.00072058e+00
1.00071658e+00
1.00071312e+00
1.00071011e+00
1.00070750e+00
1.00070520e+00
1.00070315e+00
1.00070126e+00
1.00069946e+00
1.00069766e+00
1.00069580e+00
1.00069381e+00
1.00069161e+00
1.00068916e+00
1.00068640e+00
1.00068328e+00
1.00067976e+00
1.00067583e+00
1.00067145e+00
1.00066660e+00
1.00066129e+00
1.00065550e+00
1.00064924e+00
1.00064251e+00
1.00063533e+00
1.00062772e+00
1.00061968e+00
1.00061125e+00
1.00060244e+00
1.00059327e+00
1.00058376e+00
1.00057395e+00
1.00056384e+00
1.00055347e+00
1.00054285e+00
1.00053201e+00
1.00052096e+00
1.00050973e+00
1.00049834e+00
1.00048680e+00
1.00047514e+00
1.00046337e+00
1.00045152e+00
1.00043960e+00
1.00042764e+00
1.00041565e+00
1.00040366e+00
1.00039167e+00
1.00037971e+00
1.00036779e+00
1.00035591e+00
1.00034410e+00
1.00033234e+00
1.00032064e+00
1.00030900e+00
1.00029741e+00
1.00028585e+00
1.00027430e+00
1.00026274e+00
1.00025115e+00
1.00023948e+00
1.00022771e+00
1.00021580e+00
1.00020370e+00
1.00019139e+00
1.00017883e+00
1.00016597e+00
1.00015279e+00
1.00013927e+00
1.00012538e+00
1.00011111e+00
1.00009646e+00
1.00008144e+00
1.00006606e+00
1.00005035e+00
1.00003434e+00
1.00001809e+00
1.00000165e+00
9.99985087e-01
9.99968485e-01
9.99951929e-01
9.99935503e-01
9.99919306e-01
9.99903461e-01
9.99888058e-01
9.99873174e-01
9.99858959e-01
9.99845561e-01
9.99832971e-01
9.99821276e-01
9.99810778e-01
9.99801416e-01
9.99793082e-01
9.99786221e-01
9.99780809e-01
9.99776483e-01
9.99773473e-01
1.00099395e+00
1.00099145e+00
1.00098789e+00
1.00098319e+00
1.00097735e+00
1.00097055e+00
1.00096274e+00
1.00095393e+00
1.00094436e+00
1.00093409e+00
1.00092314e+00
1.00091164e+00
1.00089975e+00
1.00088753e+00
1.00087509e+00
1.00086255e+00
1.00085003e+00
1.00083761e+00
1.00082540e+00
1.00081349e+00
1.00080198e+00
1.00079093e+00
1.00078041e+00
1.00077048e+00
1.00076118e+00
1.00075255e+00
1.00074461e+00
1.00073738e+00
1.00073083e+00
1.00072497e+00
1.00071977e+00
1.00071518e+00
1.00071117e+00
1.00070768e+00
1.00070465e+00
1.00070201e+00
1.00069969e+00
1.00069762e+00
1.00069572e+00
1.00069391e+00
1.00069213e+00
1.00069029e+00
1.00068834e+00
1.00068620e+00
1.00068382e+00
1.00068115e+00
1.00067814e+00
1.00067475e+00
1.00067096e+00
1.00066674e+00
1.00066206e+00
1.00065694e+00
1.00065134e+00
1.00064529e+00
1.00063878e+00
1.00063183e+00
1.00062444e+00
1.00061663e+00
1.00060843e+00
1.00059985e+00
1.00059092e+00
1.00058164e+00
1.00057206e+00
1.00056218e+00
1.00055203e+00
1.00054163e+00
1.00053100e+00
1.00052017e+00
1.00050915e+00
1.00049796e+00
1.00048662e+00
1.00047516e+00
1.00046359e+00
1.00045194e+00
1.00044021e+00
1.00042845e+00
1.00041665e+00
1.00040484e+00
1.00039305e+00
1.00038128e+00
1.00036954e+00
1.00035786e+00
1.00034622e+00
1.00033465e+00
1.00032314e+00
1.00031169e+00
1.00030028e+00
1.00028890e+00
1.00027754e+00
1.00026616e+00
1.00025475e+00
1.00024328e+00
1.00023170e+00
1.00021998e+00
1.00020809e+00
1.00019599e+00
1.00018364e+00
1.00017101e+00
1.00015807e+00
1.00014480e+00
1.00013117e+00
1.00011717e+00
1.00010281e+00
1.00008809e+00
1.00007302e+00
1.00005763e+00
1.00004197e+00
1.00002606e+00
1.00000998e+00
9.99993794e-01
9.99977565e-01
9.99961385e-01
9.99945349e-01
9.99929537e-01
9.99914050e-01
9.99899018e-01
9.99884532e-01
9.99870646e-01
9.99857512e-01
9.99845293e-01
9.99833955e-01
9.99823566e-01
9.99814406e-01
9.99806445e-01
9.99799615e-01
9.99794116e-01
9.99789945e-01
9.99787010e-01
1.00098349e+00
1.00098091e+00
1.00097734e+00
1.00097267e+00
1.00096694e+00
1.00096024e+00
1.00095252e+00
1.00094394e+00
1.00093460e+00
1.00092451e+00
1.00091379e+00
1.00090258e+00
1.00089094e+00
1.00087897e+00
1.00086680e+00
1.00085454e+00
1.00084226e+00
1.00083009e+00
1.00081812e+00
1.00080644e+00
1.00079513e+00
1.00078426e+00
1.00077391e+00
1.00076413e+00
1.00075496e+00
1.00074644e+00
1.00073858e+00
1.00073141e+00
1.00072491e+00
1.00071908e+00
1.00071389e+00
1.00070930e+00
1.00070528e+00
1.00070178e+00
1.00069873e+00
1.00069607e+00
1.00069373e+00
1.00069165e+00
1.00068974e+00
1.00068794e+00
1.00068618e+00
1.00068437e+00
1.00068246e+00
1.00068039e+00
1.00067809e+00
1.00067552e+00
1.00067263e+00
1.00066938e+00
1.00066574e+00
1.00066168e+00
1.00065720e+00
1.00065226e+00
1.00064688e+00
1.00064105e+00
1.00063477e+00
1.00062805e+00
1.00062090e+00
1.00061334e+00
1.00060539e+00
1.00059706e+00
1.00058837e+00
1.00057934e+00
1.00057000e+00
1.00056036e+00
1.00055045e+00
1.00054028e+00
1.00052989e+00
1.00051928e+00
1.00050848e+00
1.00049752e+00
1.00048640e+00
1.00047515e+00
1.00046380e+00
1.00045235e+00
1.00044084e+00
1.00042928e+00
1.00041770e+00
1.00040610e+00
1.00039451e+00
1.00038294e+00
1.00037141e+00
1.00035993e+00
1.00034850e+00
1.00033713e+00
1.00032583e+00
1.00031457e+00
1.00030336e+00
1.00029218e+00
1.00028102e+00
1.00026985e+00
1.00025865e+00
1.00024738e+00
1.00023601e+00
1.00022451e+00
1.00021284e+00
1.00020097e+00
1.00018886e+00
1.00017648e+00
1.00016380e+00
1.00015080e+00
1.00013745e+00
1.00012376e+00
1.00010971e+00
1.00009531e+00
1.00008059e+00
1.00006556e+00
1.00005026e+00
1.00003474e+00
1.00001905e+00
1.00000326e+00
9.99987441e-01
9.99971670e-01
9.99956040e-01
9.99940648e-01
9.99925574e-01
9.99910918e-01
9.99896810e-01
9.99883334e-01
9.99870544e-01
9.99858587e-01
9.99847590e-01
9.99837524e-01
9.99828510e-01
9.99820723e-01
9.99814089e-01
9.99808668e-01
9.99804536e-01
9.99801545e-01
1.00097221e+00
1.00096955e+00
1.00096594e+00
1.00096134e+00
1.00095572e+00
1.00094908e+00
1.00094153e+00
1.00093317e+00
1.00092400e+00
1.00091413e+00
1.00090369e+00
1.00089274e+00
1.00088136e+00
1.00086968e+00
1.00085780e+00
1.00084580e+00
1.00083380e+00
1.00082190e+00
1.00081019e+00
1.00079874e+00
1.00078765e+00
1.00077699e+00
1.00076683e+00
1.00075721e+00
1.00074818e+00
1.00073977e+00
1.00073202e+00
1.00072492e+00
1.00071848e+00
1.00071269e+00
1.00070753e+00
1.00070296e+00
1.00069894e+00
1.00069543e+00
1.00069237e+00
1.00068970e+00
1.00068736e+00
1.00068527e+00
1.00068337e+00
1.00068158e+00
1.00067984e+00
1.00067807e+00
1.00067622e+00
1.00067421e+00
1.00067200e+00
1.00066954e+00
1.00066677e+00
1.00066367e+00
1.00066019e+00
1.00065631e+00
1.00065202e+00
1.00064729e+00
1.00064213e+00
1.00063653e+00
1.00063049e+00
1.00062402e+00
1.00061712e+00
1.00060982e+00
1.00060212e+00
1.00059405e+00
1.00058562e+00
1.00057686e+00
1.00056777e+00
1.00055839e+00
1.00054873e+00
1.00053881e+00
1.00052866e+00
1.00051830e+00
1.00050774e+00
1.00049701e+00
1.00048613e+00
1.00047511e+00
1.00046398e+00
1.00045277e+00
1.00044148e+00
1.00043015e+00
1.00041879e+00
1.00040741e+00
1.00039604e+00
1.00038470e+00
1.00037339e+00
1.00036213e+00
1.00035092e+00
1.00033977e+00
1.00032868e+00
1.00031764e+00
1.00030665e+00
1.00029569e+00
1.00028475e+00
1.00027380e+00
1.00026281e+00
1.00025177e+00
1.00024063e+00
1.00022937e+00
1.00021794e+00
1.00020632e+00
1.00019447e+00
1.00018236e+00
1.00016997e+00
1.00015726e+00
1.00014423e+00
1.00013086e+00
1.00011715e+00
1.00010311e+00
1.00008876e+00
1.00007411e+00
1.00005922e+00
1.00004411e+00
1.00002884e+00
1.00001348e+00
9.99998105e-01
9.99982780e-01
9.99967588e-01
9.99952628e-01
9.99937999e-01
9.99923776e-01
9.99910053e-01
9.99896965e-01
9.99884586e-01
9.99872955e-01
9.99862222e-01
9.99852492e-01
9.99843739e-01
9.99836071e-01
9.99829611e-01
9.99824343e-01
9.99820204e-01
9.99817177e-01
1.00096003e+00
1.00095736e+00
1.00095376e+00
1.00094920e+00
1.00094364e+00
1.00093713e+00
1.00092976e+00
1.00092156e+00
1.00091260e+00
1.00090300e+00
1.00089282e+00
1.00088212e+00
1.00087104e+00
1.00085965e+00
1.00084806e+00
1.00083636e+00
1.00082466e+00
1.00081304e+00
1.00080159e+00
1.00079040e+00
1.00077956e+00
1.00076912e+00
1.00075916e+00
1.00074972e+00
1.00074085e+00
1.00073258e+00
1.00072494e+00
1.00071794e+00
1.00071157e+00
1.00070584e+00
1.00070071e+00
1.00069617e+00
1.00069217e+00
1.00068866e+00
1.00068560e+00
1.00068293e+00
1.00068059e+00
1.00067850e+00
1.00067661e+00
1.00067485e+00
1.00067313e+00
1.00067141e+00
1.00066962e+00
1.00066770e+00
1.00066558e+00
1.00066323e+00
1.00066060e+00
1.00065765e+00
1.00065434e+00
1.00065065e+00
1.00064655e+00
1.00064205e+00
1.00063711e+00
1.00063175e+00
1.00062596e+00
1.00061975e+00
1.00061311e+00
1.00060608e+00
1.00059865e+00
1.00059086e+00
1.00058270e+00
1.00057420e+00
1.00056539e+00
1.00055627e+00
1.00054688e+00
1.00053722e+00
1.00052733e+00
1.00051722e+00
1.00050692e+00
1.00049644e+00
1.00048580e+00
1.00047503e+00
1.00046415e+00
1.00045317e+00
1.00044213e+00
1.00043103e+00
1.00041991e+00
1.00040877e+00
1.00039764e+00
1.00038653e+00
1.00037546e+00
1.00036443e+00
1.00035346e+00
1.00034254e+00
1.00033168e+00
1.00032088e+00
1.00031012e+00
1.00029939e+00
1.00028868e+00
1.00027797e+00
1.00026723e+00
1.00025643e+00
1.00024554e+00
1.00023453e+00
1.00022337e+00
1.00021202e+00
1.00020045e+00
1.00018863e+00
1.00017654e+00
1.00016416e+00
1.00015146e+00
1.00013844e+00
1.00012510e+00
1.00011145e+00
1.00009750e+00
1.00008327e+00
1.00006880e+00
1.00005414e+00
1.00003933e+00
1.00002443e+00
1.00000951e+00
9.99994662e-01
9.99979949e-01
9.99965454e-01
9.99951276e-01
9.99937514e-01
9.99924239e-01
9.99911542e-01
9.99899548e-01
9.99888319e-01
9.99877905e-01
9.99868433e-01
9.99859965e-01
9.99852522e-01
9.99846197e-01
9.99841032e-01
9.99836971e-01
9.99833975e-01
1.00094704e+00
1.00094434e+00
1.00094077e+00
1.00093623e+00
1.00093076e+00
1.00092440e+00
1.00091718e+00
1.00090916e+00
1.00090045e+00
1.00089110e+00
1.00088117e+00
1.00087076e+00
1.00085998e+00
1.00084890e+00
1.00083762e+00
1.00082623e+00
1.00081483e+00
1.00080351e+00
1.00079235e+00
1.00078144e+00
1.00077085e+00
1.00076066e+00
1.00075091e+00
1.00074167e+00
1.00073298e+00
1.00072487e+00
1.00071736e+00
1.00071047e+00
1.00070419e+00
1.00069853e+00
1.00069345e+00
1.00068895e+00
1.00068498e+00
1.00068149e+00
1.00067845e+00
1.00067579e+00
1.00067345e+00
1.00067138e+00
1.00066951e+00
1.00066777e+00
1.00066610e+00
1.00066443e+00
1.00066271e+00
1.00066087e+00
1.00065886e+00
1.00065663e+00
1.00065414e+00
1.00065134e+00
1.00064821e+00
1.00064471e+00
1.00064083e+00
1.00063655e+00
1.00063185e+00
1.00062674e+00
1.00062121e+00
1.00061526e+00
1.00060890e+00
1.00060214e+00
1.00059500e+00
1.00058748e+00
1.00057960e+00
1.00057139e+00
1.00056285e+00
1.00055402e+00
1.00054490e+00
1.00053552e+00
1.00052590e+00
1.00051605e+00
1.00050601e+00
1.00049579e+00
1.00048542e+00
1.00047490e+00
1.00046428e+00
1.00045356e+00
1.00044277e+00
1.00043192e+00
1.00042105e+00
1.00041017e+00
1.00039929e+00
1.00038843e+00
1.00037760e+00
1.00036683e+00
1.00035610e+00
1.00034543e+00
1.00033482e+00
1.00032427e+00
1.00031376e+00
1.00030328e+00
1.00029282e+00
1.00028236e+00
1.00027188e+00
1.00026134e+00
1.00025072e+00
1.00023998e+00
1.00022910e+00
1.00021805e+00
1.00020678e+00
1.00019528e+00
1.00018352e+00
1.00017148e+00
1.00015915e+00
1.00014651e+00
1.00013356e+00
1.00012032e+00
1.00010680e+00
1.00009302e+00
1.00007901e+00
1.00006481e+00
1.00005049e+00
1.00003609e+00
1.00002167e+00
1.00000732e+00
9.99993105e-01
9.99979114e-01
9.99965421e-01
9.99952124e-01
9.99939319e-01
9.99927071e-01
9.99915468e-01
9.99904623e-01
9.99894584e-01
9.99885404e-01
9.99877190e-01
9.99869997e-01
9.99863841e-01
9.99858777e-01
9.99854805e-01
9.99851845e-01
1.00093325e+00
1.00093052e+00
1.00092695e+00
1.00092248e+00
1.00091710e+00
1.00091087e+00
1.00090381e+00
1.00089601e+00
1.00088753e+00
1.00087842e+00
1.00086877e+00
1.00085868e+00
1.00084820e+00
1.00083743e+00
1.00082648e+00
1.00081542e+00
1.00080434e+00
1.00079333e+00
1.00078248e+00
1.00077186e+00
1.00076155e+00
1.00075161e+00
1.00074211e+00
1.00073309e+00
1.00072459e+00
1.00071665e+00
1.00070929e+00
1.00070253e+00
1.00069636e+00
1.00069078e+00
1.00068578e+00
1.00068133e+00
1.00067740e+00
1.00067394e+00
1.00067092e+00
1.00066829e+00
1.00066597e+00
1.00066393e+00
1.00066208e+00
1.00066038e+00
1.00065876e+00
1.00065716e+00
1.00065551e+00
1.00065377e+00
1.00065187e+00
1.00064977e+00
1.00064742e+00
1.00064479e+00
1.00064184e+00
1.00063854e+00
1.00063488e+00
1.00063082e+00
1.00062637e+00
1.00062151e+00
1.00061625e+00
1.00061057e+00
1.00060449e+00
1.00059802e+00
1.00059116e+00
1.00058394e+00
1.00057635e+00
1.00056843e+00
1.00056018e+00
1.00055163e+00
1.00054280e+00
1.00053370e+00
1.00052436e+00
1.00051480e+00
1.00050503e+00
1.00049508e+00
1.00048498e+00
1.00047473e+00
1.00046437e+00
1.00045392e+00
1.00044339e+00
1.00043282e+00
1.00042221e+00
1.00041159e+00
1.00040097e+00
1.00039038e+00
1.00037982e+00
1.00036930e+00
1.00035884e+00
1.00034843e+00
1.00033808e+00
1.00032779e+00
1.00031754e+00
1.00030733e+00
1.00029714e+00
1.00028695e+00
1.00027674e+00
1.00026648e+00
1.00025614e+00
1.00024570e+00
1.00023512e+00
1.00022437e+00
1.00021343e+00
1.00020227e+00
1.00019086e+00
1.00017919e+00
1.00016724e+00
1.00015501e+00
1.00014248e+00
1.00012968e+00
1.00011661e+00
1.00010330e+00
1.00008978e+00
1.00007609e+00
1.00006228e+00
1.00004840e+00
1.00003452e+00
1.00002069e+00
1.00000701e+00
9.99993540e-01
9.99980371e-01
9.99967573e-01
9.99955242e-01
9.99943466e-01
9.99932306e-01
9.99921846e-01
9.99912176e-01
9.99903343e-01
9.99895404e-01
9.99888436e-01
9.99882478e-01
9.99877557e-01
9.99873663e-01
9.99870730e-01
1.00091867e+00
1.00091591e+00
1.00091236e+00
1.00090794e+00
1.00090267e+00
1.00089656e+00
1.00088969e+00
1.00088210e+00
1.00087385e+00
1.00086501e+00
1.00085566e+00
1.00084586e+00
1.00083570e+00
1.00082527e+00
1.00081465e+00
1.00080393e+00
1.00079319e+00
1.00078252e+00
1.00077199e+00
1.00076168e+00
1.00075167e+00
1.00074201e+00
1.00073276e+00
1.00072397e+00
1.00071569e+00
1.00070794e+00
1.00070075e+00
1.00069414e+00
1.00068809e+00
1.00068262e+00
1.00067770e+00
1.00067332e+00
1.00066945e+00
1.00066604e+00
1.00066306e+00
1.00066046e+00
1.00065818e+00
1.00065617e+00
1.00065437e+00
1.00065272e+00
1.00065116e+00
1.00064962e+00
1.00064806e+00
1.00064641e+00
1.00064463e+00
1.00064267e+00
1.00064048e+00
1.00063801e+00
1.00063525e+00
1.00063216e+00
1.00062872e+00
1.00062490e+00
1.00062070e+00
1.00061610e+00
1.00061110e+00
1.00060571e+00
1.00059992e+00
1.00059373e+00
1.00058717e+00
1.00058024e+00
1.00057296e+00
1.00056533e+00
1.00055738e+00
1.00054913e+00
1.00054059e+00