# vtk DataFile Version 2.0
LBM Flow Field - Timestep 2930
ASCII
DATASET STRUCTURED_POINTS
DIMENSIONS 128 128 1
ORIGIN 0.0 0.0 0.0
SPACING 1.0 1.0 1.0
POINT_DATA 16384
SCALARS density double 1
LOOKUP_TABLE default
9.99569581e-01
9.99583619e-01
9.99599504e-01
9.99600511e-01
9.99603122e-01
9.99609446e-01
9.99615393e-01
9.99621081e-01
9.99628241e-01
9.99636507e-01
9.99645370e-01
9.99655062e-01
9.99665749e-01
9.99677298e-01
9.99689663e-01
9.99702882e-01
9.99716939e-01
9.99731784e-01
9.99747387e-01
9.99763720e-01
9.99780739e-01
9.99798394e-01
9.99816637e-01
9.99835415e-01
9.99854672e-01
9.99874347e-01
9.99894380e-01
9.99914709e-01
9.99935272e-01
9.99956005e-01
9.99976846e-01
9.99997737e-01
1.00001862e+00
1.00003944e+00
1.00006014e+00
1.00008069e+00
1.00010103e+00
1.00012113e+00
1.00014097e+00
1.00016051e+00
1.00017975e+00
1.00019866e+00
1.00021725e+00
1.00023552e+00
1.00025346e+00
1.00027111e+00
1.00028846e+00
1.00030555e+00
1.00032241e+00
1.00033905e+00
1.00035551e+00
1.00037182e+00
1.00038802e+00
1.00040415e+00
1.00042022e+00
1.00043628e+00
1.00045236e+00
1.00046849e+00
1.00048469e+00
1.00050098e+00
1.00051740e+00
1.00053394e+00
1.00055064e+00
1.00056749e+00
1.00058452e+00
1.00060171e+00
1.00061908e+00
1.00063663e+00
1.00065435e+00
1.00067223e+00
1.00069026e+00
1.00070844e+00
1.00072675e+00
1.00074518e+00
1.00076370e+00
1.00078229e+00
1.00080094e+00
1.00081962e+00
1.00083830e+00
1.00085696e+00
1.00087555e+00
1.00089406e+00
1.00091243e+00
1.00093065e+00
1.00094866e+00
1.00096644e+00
1.00098393e+00
1.00100111e+00
1.00101792e+00
1.00103434e+00
1.00105031e+00
1.00106581e+00
1.00108080e+00
1.00109525e+00
1.00110913e+00
1.00112241e+00
1.00113507e+00
1.00114710e+00
1.00115848e+00
1.00116921e+00
1.00117929e+00
1.00118871e+00
1.00119749e+00
1.00120563e+00
1.00121316e+00
1.00122009e+00
1.00122644e+00
1.00123224e+00
1.00123752e+00
1.00124230e+00
1.00124662e+00
1.00125051e+00
1.00125400e+00
1.00125711e+00
1.00125986e+00
1.00126235e+00
1.00126458e+00
1.00126644e+00
1.00126813e+00
1.00126989e+00
1.00127126e+00
1.00127196e+00
1.00127355e+00
1.00127607e+00
1.00127607e+00
1.00127555e+00
1.00128829e+00
1.00129979e+00
9.99584833e-01
9.99589061e-01
9.99599419e-01
9.99602822e-01
9.99606937e-01
9.99612158e-01
9.99618089e-01
9.99624355e-01
9.99631532e-01
9.99639600e-01
9.99648521e-01
9.99658265e-01
9.99668887e-01
9.99680369e-01
9.99692701e-01
9.99705860e-01
9.99719835e-01
9.99734596e-01
9.99750113e-01
9.99766349e-01
9.99783265e-01
9.99800815e-01
9.99818952e-01
9.99837621e-01
9.99856769e-01
9.99876336e-01
9.99896264e-01
9.99916489e-01
9.99936951e-01
9.99957588e-01
9.99978338e-01
9.99999142e-01
1.00001994e+00
1.00004068e+00
1.00006132e+00
1.00008179e+00
1.00010208e+00
1.00012212e+00
1.00014191e+00
1.00016141e+00
1.00018060e+00
1.00019948e+00
1.00021804e+00
1.00023627e+00
1.00025419e+00
1.00027181e+00
1.00028914e+00
1.00030621e+00
1.00032303e+00
1.00033965e+00
1.00035609e+00
1.00037238e+00
1.00038856e+00
1.00040466e+00
1.00042071e+00
1.00043674e+00
1.00045279e+00
1.00046888e+00
1.00048505e+00
1.00050130e+00
1.00051768e+00
1.00053418e+00
1.00055083e+00
1.00056764e+00
1.00058462e+00
1.00060176e+00
1.00061908e+00
1.00063657e+00
1.00065423e+00
1.00067205e+00
1.00069002e+00
1.00070814e+00
1.00072638e+00
1.00074473e+00
1.00076318e+00
1.00078170e+00
1.00080027e+00
1.00081886e+00
1.00083745e+00
1.00085602e+00
1.00087452e+00
1.00089292e+00
1.00091120e+00
1.00092931e+00
1.00094722e+00
1.00096489e+00
1.00098228e+00
1.00099935e+00
1.00101606e+00
1.00103237e+00
1.00104824e+00
1.00106364e+00
1.00107854e+00
1.00109290e+00
1.00110669e+00
1.00111989e+00
1.00113248e+00
1.00114444e+00
1.00115577e+00
1.00116645e+00
1.00117649e+00
1.00118588e+00
1.00119464e+00
1.00120277e+00
1.00121030e+00
1.00121724e+00
1.00122361e+00
1.00122944e+00
1.00123476e+00
1.00123959e+00
1.00124397e+00
1.00124792e+00
1.00125148e+00
1.00125467e+00
1.00125754e+00
1.00126010e+00
1.00126240e+00
1.00126443e+00
1.00126629e+00
1.00126798e+00
1.00126947e+00
1.00127076e+00
1.00127240e+00
1.00127406e+00
1.00127541e+00
1.00127681e+00
1.00128474e+00
1.00128793e+00
9.99601491e-01
9.99599804e-01
9.99597199e-01
9.99604227e-01
9.99610910e-01
9.99614473e-01
9.99619704e-01
9.99626696e-01
9.99633956e-01
9.99641738e-01
9.99650635e-01
9.99660433e-01
9.99670976e-01
9.99682367e-01
9.99694641e-01
9.99707728e-01
9.99721607e-01
9.99736272e-01
9.99751693e-01
9.99767826e-01
9.99784635e-01
9.99802079e-01
9.99820109e-01
9.99838674e-01
9.99857718e-01
9.99877187e-01
9.99897019e-01
9.99917155e-01
9.99937533e-01
9.99958091e-01
9.99978770e-01
9.99999509e-01
1.00002025e+00
1.00004094e+00
1.00006153e+00
1.00008197e+00
1.00010222e+00
1.00012225e+00
1.00014201e+00
1.00016150e+00
1.00018068e+00
1.00019955e+00
1.00021811e+00
1.00023634e+00
1.00025427e+00
1.00027189e+00
1.00028923e+00
1.00030630e+00
1.00032314e+00
1.00033977e+00
1.00035622e+00
1.00037252e+00
1.00038870e+00
1.00040481e+00
1.00042086e+00
1.00043690e+00
1.00045295e+00
1.00046905e+00
1.00048521e+00
1.00050147e+00
1.00051784e+00
1.00053433e+00
1.00055098e+00
1.00056778e+00
1.00058474e+00
1.00060187e+00
1.00061918e+00
1.00063665e+00
1.00065429e+00
1.00067208e+00
1.00069003e+00
1.00070812e+00
1.00072632e+00
1.00074464e+00
1.00076305e+00
1.00078152e+00
1.00080005e+00
1.00081859e+00
1.00083713e+00
1.00085563e+00
1.00087407e+00
1.00089241e+00
1.00091062e+00
1.00092866e+00
1.00094649e+00
1.00096408e+00
1.00098139e+00
1.00099838e+00
1.00101501e+00
1.00103124e+00
1.00104703e+00
1.00106235e+00
1.00107717e+00
1.00109145e+00
1.00110518e+00
1.00111831e+00
1.00113084e+00
1.00114275e+00
1.00115403e+00
1.00116468e+00
1.00117468e+00
1.00118405e+00
1.00119279e+00
1.00120092e+00
1.00120845e+00
1.00121540e+00
1.00122179e+00
1.00122765e+00
1.00123301e+00
1.00123788e+00
1.00124232e+00
1.00124633e+00
1.00124995e+00
1.00125323e+00
1.00125619e+00
1.00125881e+00
1.00126117e+00
1.00126339e+00
1.00126535e+00
1.00126689e+00
1.00126857e+00
1.00127061e+00
1.00127170e+00
1.00127198e+00
1.00127562e+00
1.00128014e+00
1.00127706e+00
1.00127520e+00
9.99601622e-01
9.99601569e-01
9.99602673e-01
9.99607166e-01
9.99610803e-01
9.99615582e-01
9.99621520e-01
9.99627853e-01
9.99634872e-01
9.99642891e-01
9.99651746e-01
9.99661377e-01
9.99671871e-01
9.99683228e-01
9.99695404e-01
9.99708393e-01
9.99722188e-01
9.99736759e-01
9.99752075e-01
9.99768105e-01
9.99784813e-01
9.99802155e-01
9.99820083e-01
9.99838550e-01
9.99857502e-01
9.99876881e-01
9.99896631e-01
9.99916691e-01
9.99937000e-01
9.99957498e-01
9.99978124e-01
9.99998818e-01
1.00001952e+00
1.00004019e+00
1.00006076e+00
1.00008118e+00
1.00010143e+00
1.00012146e+00
1.00014123e+00
1.00016073e+00
1.00017994e+00
1.00019884e+00
1.00021742e+00
1.00023569e+00
1.00025366e+00
1.00027132e+00
1.00028870e+00
1.00030582e+00
1.00032271e+00
1.00033938e+00
1.00035588e+00
1.00037222e+00
1.00038846e+00
1.00040461e+00
1.00042071e+00
1.00043679e+00
1.00045288e+00
1.00046902e+00
1.00048522e+00
1.00050151e+00
1.00051791e+00
1.00053444e+00
1.00055112e+00
1.00056794e+00
1.00058493e+00
1.00060209e+00
1.00061941e+00
1.00063690e+00
1.00065455e+00
1.00067236e+00
1.00069031e+00
1.00070840e+00
1.00072661e+00
1.00074492e+00
1.00076332e+00
1.00078179e+00
1.00080029e+00
1.00081882e+00
1.00083733e+00
1.00085581e+00
1.00087421e+00
1.00089252e+00
1.00091069e+00
1.00092869e+00
1.00094648e+00
1.00096402e+00
1.00098128e+00
1.00099821e+00
1.00101478e+00
1.00103096e+00
1.00104670e+00
1.00106196e+00
1.00107673e+00
1.00109096e+00
1.00110463e+00
1.00111772e+00
1.00113021e+00
1.00114209e+00
1.00115334e+00
1.00116395e+00
1.00117394e+00
1.00118329e+00
1.00119203e+00
1.00120016e+00
1.00120770e+00
1.00121466e+00
1.00122107e+00
1.00122696e+00
1.00123235e+00
1.00123727e+00
1.00124175e+00
1.00124582e+00
1.00124951e+00
1.00125284e+00
1.00125586e+00
1.00125859e+00
1.00126104e+00
1.00126324e+00
1.00126528e+00
1.00126715e+00
1.00126871e+00
1.00127026e+00
1.00127205e+00
1.00127347e+00
1.00127453e+00
1.00127685e+00
1.00127684e+00
1.00127651e+00
9.99601309e-01
9.99602704e-01
9.99606130e-01
9.99607454e-01
9.99610454e-01
9.99616428e-01
9.99622009e-01
9.99627742e-01
9.99634879e-01
9.99642999e-01
9.99651675e-01
9.99661186e-01
9.99671646e-01
9.99682924e-01
9.99694989e-01
9.99707883e-01
9.99721585e-01
9.99736051e-01
9.99751259e-01
9.99767186e-01
9.99783790e-01
9.99801029e-01
9.99818859e-01
9.99837233e-01
9.99856096e-01
9.99875395e-01
9.99895071e-01
9.99915067e-01
9.99935320e-01
9.99955772e-01
9.99976361e-01
9.99997029e-01
1.00001772e+00
1.00003838e+00
1.00005895e+00
1.00007939e+00
1.00009966e+00
1.00011972e+00
1.00013953e+00
1.00015908e+00
1.00017834e+00
1.00019730e+00
1.00021595e+00
1.00023429e+00
1.00025233e+00
1.00027007e+00
1.00028753e+00
1.00030474e+00
1.00032171e+00
1.00033847e+00
1.00035505e+00
1.00037149e+00
1.00038781e+00
1.00040405e+00
1.00042023e+00
1.00043640e+00
1.00045257e+00
1.00046879e+00
1.00048507e+00
1.00050144e+00
1.00051791e+00
1.00053452e+00
1.00055126e+00
1.00056815e+00
1.00058520e+00
1.00060241e+00
1.00061979e+00
1.00063733e+00
1.00065503e+00
1.00067289e+00
1.00069088e+00
1.00070901e+00
1.00072725e+00
1.00074559e+00
1.00076402e+00
1.00078251e+00
1.00080103e+00
1.00081957e+00
1.00083809e+00
1.00085657e+00
1.00087497e+00
1.00089327e+00
1.00091143e+00
1.00092941e+00
1.00094718e+00
1.00096470e+00
1.00098194e+00
1.00099884e+00
1.00101539e+00
1.00103153e+00
1.00104723e+00
1.00106247e+00
1.00107720e+00
1.00109140e+00
1.00110504e+00
1.00111810e+00
1.00113057e+00
1.00114242e+00
1.00115365e+00
1.00116425e+00
1.00117423e+00
1.00118358e+00
1.00119232e+00
1.00120045e+00
1.00120800e+00
1.00121498e+00
1.00122142e+00
1.00122734e+00
1.00123277e+00
1.00123773e+00
1.00124225e+00
1.00124637e+00
1.00125012e+00
1.00125351e+00
1.00125657e+00
1.00125937e+00
1.00126192e+00
1.00126414e+00
1.00126615e+00
1.00126822e+00
1.00126999e+00
1.00127110e+00
1.00127268e+00
1.00127518e+00
1.00127570e+00
1.00127537e+00
1.00127745e+00
1.00127832e+00
9.99602697e-01
9.99602898e-01
9.99604622e-01
9.99607141e-01
9.99611284e-01
9.99615671e-01
9.99620637e-01
9.99627026e-01
9.99634158e-01
9.99641839e-01
9.99650447e-01
9.99660004e-01
9.99670335e-01
9.99681463e-01
9.99693447e-01
9.99706248e-01
9.99719828e-01
9.99734179e-01
9.99749281e-01
9.99765098e-01
9.99781591e-01
9.99798727e-01
9.99816459e-01
9.99834740e-01
9.99853519e-01
9.99872742e-01
9.99892353e-01
9.99912292e-01
9.99932501e-01
9.99952920e-01
9.99973488e-01
9.99994147e-01
1.00001484e+00
1.00003551e+00
1.00005611e+00
1.00007659e+00
1.00009691e+00
1.00011702e+00
1.00013691e+00
1.00015653e+00
1.00017588e+00
1.00019493e+00
1.00021368e+00
1.00023213e+00
1.00025028e+00
1.00026814e+00
1.00028572e+00
1.00030305e+00
1.00032014e+00
1.00033703e+00
1.00035374e+00
1.00037030e+00
1.00038675e+00
1.00040312e+00
1.00041943e+00
1.00043572e+00
1.00045202e+00
1.00046835e+00
1.00048475e+00
1.00050124e+00
1.00051783e+00
1.00053454e+00
1.00055139e+00
1.00056838e+00
1.00058553e+00
1.00060284e+00
1.00062031e+00
1.00063794e+00
1.00065573e+00
1.00067366e+00
1.00069174e+00
1.00070994e+00
1.00072825e+00
1.00074665e+00
1.00076514e+00
1.00078368e+00
1.00080225e+00
1.00082083e+00
1.00083939e+00
1.00085790e+00
1.00087633e+00
1.00089465e+00
1.00091283e+00
1.00093083e+00
1.00094860e+00
1.00096613e+00
1.00098336e+00
1.00100026e+00
1.00101680e+00
1.00103293e+00
1.00104862e+00
1.00106384e+00
1.00107856e+00
1.00109275e+00
1.00110638e+00
1.00111943e+00
1.00113188e+00
1.00114372e+00
1.00115495e+00
1.00116555e+00
1.00117552e+00
1.00118488e+00
1.00119362e+00
1.00120177e+00
1.00120933e+00
1.00121634e+00
1.00122280e+00
1.00122875e+00
1.00123421e+00
1.00123921e+00
1.00124378e+00
1.00124794e+00
1.00125172e+00
1.00125518e+00
1.00125831e+00
1.00126112e+00
1.00126369e+00
1.00126608e+00
1.00126816e+00
1.00126995e+00
1.00127181e+00
1.00127360e+00
1.00127473e+00
1.00127591e+00
1.00127747e+00
1.00127822e+00
1.00127885e+00
1.00127869e+00
9.99602034e-01
9.99602153e-01
9.99603063e-01
9.99606225e-01
9.99609979e-01
9.99613740e-01
9.99619063e-01
9.99625413e-01
9.99632131e-01
9.99639733e-01
9.99648376e-01
9.99657784e-01
9.99667947e-01
9.99678987e-01
9.99690869e-01
9.99703535e-01
9.99716987e-01
9.99731223e-01
9.99746204e-01
9.99761899e-01
9.99778279e-01
9.99795307e-01
9.99812937e-01
9.99831125e-01
9.99849820e-01
9.99868971e-01
9.99888520e-01
9.99908411e-01
9.99928585e-01
9.99948982e-01
9.99969542e-01
9.99990206e-01
1.00001092e+00
1.00003162e+00
1.00005227e+00
1.00007281e+00
1.00009320e+00
1.00011340e+00
1.00013338e+00
1.00015311e+00
1.00017257e+00
1.00019175e+00
1.00021063e+00
1.00022922e+00
1.00024751e+00
1.00026553e+00
1.00028327e+00
1.00030075e+00
1.00031801e+00
1.00033506e+00
1.00035194e+00
1.00036867e+00
1.00038528e+00
1.00040181e+00
1.00041829e+00
1.00043475e+00
1.00045121e+00
1.00046771e+00
1.00048426e+00
1.00050090e+00
1.00051764e+00
1.00053450e+00
1.00055149e+00
1.00056863e+00
1.00058592e+00
1.00060336e+00
1.00062096e+00
1.00063872e+00
1.00065662e+00
1.00067467e+00
1.00069285e+00
1.00071116e+00
1.00072957e+00
1.00074807e+00
1.00076665e+00
1.00078527e+00
1.00080392e+00
1.00082258e+00
1.00084121e+00
1.00085978e+00
1.00087827e+00
1.00089664e+00
1.00091486e+00
1.00093289e+00
1.00095070e+00
1.00096825e+00
1.00098551e+00
1.00100243e+00
1.00101898e+00
1.00103512e+00
1.00105082e+00
1.00106605e+00
1.00108077e+00
1.00109496e+00
1.00110859e+00
1.00112164e+00
1.00113409e+00
1.00114594e+00
1.00115716e+00
1.00116777e+00
1.00117775e+00
1.00118712e+00
1.00119587e+00
1.00120404e+00
1.00121162e+00
1.00121864e+00
1.00122513e+00
1.00123111e+00
1.00123660e+00
1.00124163e+00
1.00124624e+00
1.00125044e+00
1.00125427e+00
1.00125775e+00
1.00126094e+00
1.00126382e+00
1.00126638e+00
1.00126878e+00
1.00127101e+00
1.00127285e+00
1.00127447e+00
1.00127632e+00
1.00127782e+00
1.00127854e+00
1.00127984e+00
1.00128120e+00
1.00128116e+00
1.00128096e+00
9.99599352e-01
9.99599928e-01
9.99601562e-01
9.99604033e-01
9.99607155e-01
9.99611544e-01
9.99616820e-01
9.99622523e-01
9.99629219e-01
9.99636951e-01
9.99645368e-01
9.99654550e-01
9.99664651e-01
9.99675591e-01
9.99687305e-01
9.99699827e-01
9.99713159e-01
9.99727260e-01
9.99742102e-01
9.99757670e-01
9.99773930e-01
9.99790841e-01
9.99808364e-01
9.99826456e-01
9.99845067e-01
9.99864145e-01
9.99883636e-01
9.99903483e-01
9.99923628e-01
9.99944011e-01
9.99964573e-01
9.99985256e-01
1.00000600e+00
1.00002676e+00
1.00004747e+00
1.00006809e+00
1.00008857e+00
1.00010888e+00
1.00012898e+00
1.00014885e+00
1.00016845e+00
1.00018778e+00
1.00020683e+00
1.00022559e+00
1.00024406e+00
1.00026226e+00
1.00028019e+00
1.00029787e+00
1.00031533e+00
1.00033258e+00
1.00034966e+00
1.00036659e+00
1.00038341e+00
1.00040014e+00
1.00041682e+00
1.00043348e+00
1.00045014e+00
1.00046684e+00
1.00048359e+00
1.00050042e+00
1.00051735e+00
1.00053439e+00
1.00055156e+00
1.00056888e+00
1.00058634e+00
1.00060395e+00
1.00062171e+00
1.00063963e+00
1.00065769e+00
1.00067588e+00
1.00069421e+00
1.00071265e+00
1.00073120e+00
1.00074983e+00
1.00076852e+00
1.00078726e+00
1.00080602e+00
1.00082478e+00
1.00084350e+00
1.00086217e+00
1.00088074e+00
1.00089918e+00
1.00091747e+00
1.00093557e+00
1.00095344e+00
1.00097104e+00
1.00098834e+00
1.00100530e+00
1.00102189e+00
1.00103806e+00
1.00105379e+00
1.00106904e+00
1.00108378e+00
1.00109798e+00
1.00111162e+00
1.00112469e+00
1.00113715e+00
1.00114901e+00
1.00116025e+00
1.00117086e+00
1.00118086e+00
1.00119024e+00
1.00119901e+00
1.00120719e+00
1.00121480e+00
1.00122184e+00
1.00122835e+00
1.00123435e+00
1.00123987e+00
1.00124494e+00
1.00124957e+00
1.00125381e+00
1.00125768e+00
1.00126119e+00
1.00126438e+00
1.00126732e+00
1.00126998e+00
1.00127231e+00
1.00127447e+00
1.00127655e+00
1.00127826e+00
1.00127964e+00
1.00128119e+00
1.00128254e+00
1.00128335e+00
1.00128414e+00
1.00128477e+00
1.00128504e+00
9.99596511e-01
9.99597094e-01
9.99598750e-01
9.99600917e-01
9.99604134e-01
9.99608502e-01
9.99613353e-01
9.99619025e-01
9.99625777e-01
9.99633247e-01
9.99641450e-01
9.99650577e-01
9.99660554e-01
9.99671298e-01
9.99682859e-01
9.99695251e-01
9.99708428e-01
9.99722369e-01
9.99737069e-01
9.99752499e-01
9.99768624e-01
9.99785410e-01
9.99802820e-01
9.99820809e-01
9.99839331e-01
9.99858335e-01
9.99877767e-01
9.99897572e-01
9.99917692e-01
9.99938067e-01
9.99958640e-01
9.99979351e-01
1.00000014e+00
1.00002096e+00
1.00004175e+00
1.00006247e+00
1.00008307e+00
1.00010351e+00
1.00012375e+00
1.00014377e+00
1.00016354e+00
1.00018306e+00
1.00020229e+00
1.00022125e+00
1.00023994e+00
1.00025835e+00
1.00027650e+00
1.00029441e+00
1.00031210e+00
1.00032959e+00
1.00034690e+00
1.00036408e+00
1.00038113e+00
1.00039811e+00
1.00041503e+00
1.00043192e+00
1.00044882e+00
1.00046574e+00
1.00048272e+00
1.00049978e+00
1.00051693e+00
1.00053420e+00
1.00055159e+00
1.00056911e+00
1.00058678e+00
1.00060459e+00
1.00062255e+00
1.00064065e+00
1.00065890e+00
1.00067728e+00
1.00069578e+00
1.00071439e+00
1.00073310e+00
1.00075188e+00
1.00077073e+00
1.00078961e+00
1.00080851e+00
1.00082739e+00
1.00084624e+00
1.00086502e+00
1.00088370e+00
1.00090225e+00
1.00092063e+00
1.00093881e+00
1.00095676e+00
1.00097444e+00
1.00099180e+00
1.00100882e+00
1.00102546e+00
1.00104168e+00
1.00105745e+00
1.00107274e+00
1.00108751e+00
1.00110175e+00
1.00111542e+00
1.00112850e+00
1.00114099e+00
1.00115287e+00
1.00116412e+00
1.00117476e+00
1.00118477e+00
1.00119417e+00
1.00120296e+00
1.00121115e+00
1.00121877e+00
1.00122584e+00
1.00123237e+00
1.00123839e+00
1.00124393e+00
1.00124902e+00
1.00125367e+00
1.00125793e+00
1.00126182e+00
1.00126537e+00
1.00126859e+00
1.00127151e+00
1.00127420e+00
1.00127663e+00
1.00127873e+00
1.00128071e+00
1.00128258e+00
1.00128404e+00
1.00128532e+00
1.00128673e+00
1.00128768e+00
1.00128827e+00
1.00128897e+00
1.00128926e+00
9.99593227e-01
9.99593584e-01
9.99594934e-01
9.99597318e-01
9.99600612e-01
9.99604516e-01
9.99609271e-01
9.99615064e-01
9.99621548e-01
9.99628759e-01
9.99636921e-01
9.99645921e-01
9.99655666e-01
9.99666243e-01
9.99677668e-01
9.99689883e-01
9.99702876e-01
9.99716657e-01
9.99731200e-01
9.99746472e-01
9.99762448e-01
9.99779099e-01
9.99796385e-01
9.99814263e-01
9.99832689e-01
9.99851614e-01
9.99870985e-01
9.99890746e-01
9.99910842e-01
9.99931213e-01
9.99951800e-01
9.99972546e-01
9.99993394e-01
1.00001429e+00
1.00003517e+00
1.00005600e+00
1.00007673e+00
1.00009731e+00
1.00011772e+00
1.00013792e+00
1.00015788e+00
1.00017760e+00
1.00019706e+00
1.00021624e+00
1.00023516e+00
1.00025382e+00
1.00027222e+00
1.00029039e+00
1.00030834e+00
1.00032610e+00
1.00034369e+00
1.00036113e+00
1.00037846e+00
1.00039571e+00
1.00041290e+00
1.00043006e+00
1.00044723e+00
1.00046442e+00
1.00048167e+00
1.00049898e+00
1.00051639e+00
1.00053391e+00
1.00055154e+00
1.00056931e+00
1.00058721e+00
1.00060526e+00
1.00062344e+00
1.00064177e+00
1.00066023e+00
1.00067882e+00
1.00069753e+00
1.00071634e+00
1.00073523e+00
1.00075420e+00
1.00077323e+00
1.00079228e+00
1.00081134e+00
1.00083038e+00
1.00084938e+00
1.00086830e+00
1.00088711e+00
1.00090578e+00
1.00092428e+00
1.00094258e+00
1.00096063e+00
1.00097839e+00
1.00099585e+00
1.00101295e+00
1.00102966e+00
1.00104594e+00
1.00106177e+00
1.00107711e+00
1.00109193e+00
1.00110620e+00
1.00111991e+00
1.00113303e+00
1.00114555e+00
1.00115745e+00
1.00116873e+00
1.00117939e+00
1.00118942e+00
1.00119883e+00
1.00120764e+00
1.00121585e+00
1.00122349e+00
1.00123056e+00
1.00123711e+00
1.00124314e+00
1.00124869e+00
1.00125379e+00
1.00125847e+00
1.00126274e+00
1.00126663e+00
1.00127019e+00
1.00127344e+00
1.00127637e+00
1.00127901e+00
1.00128147e+00
1.00128369e+00
1.00128556e+00
1.00128731e+00
1.00128899e+00
1.00129028e+00
1.00129136e+00
1.00129245e+00
1.00129329e+00
1.00129375e+00
1.00129386e+00
9.99589135e-01
9.99589549e-01
9.99590852e-01
9.99593174e-01
9.99596263e-01
9.99600079e-01
9.99604852e-01
9.99610402e-01
9.99616659e-01
9.99623822e-01
9.99631827e-01
9.99640576e-01
9.99650152e-01
9.99660580e-01
9.99671801e-01
9.99683809e-01
9.99696625e-01
9.99710226e-01
9.99724582e-01
9.99739680e-01
9.99755496e-01
9.99771997e-01
9.99789144e-01
9.99806900e-01
9.99825222e-01
9.99844059e-01
9.99863362e-01
9.99883076e-01
9.99903145e-01
9.99923512e-01
9.99944116e-01
9.99964901e-01
9.99985809e-01
1.00000678e+00
1.00002777e+00
1.00004873e+00
1.00006960e+00
1.00009034e+00
1.00011093e+00
1.00013132e+00
1.00015150e+00
1.00017145e+00
1.00019114e+00
1.00021058e+00
1.00022976e+00
1.00024869e+00
1.00026737e+00
1.00028583e+00
1.00030407e+00
1.00032213e+00
1.00034001e+00
1.00035776e+00
1.00037539e+00
1.00039294e+00
1.00041044e+00
1.00042791e+00
1.00044537e+00
1.00046286e+00
1.00048040e+00
1.00049801e+00
1.00051571e+00
1.00053350e+00
1.00055142e+00
1.00056946e+00
1.00058763e+00
1.00060594e+00
1.00062438e+00
1.00064296e+00
1.00066166e+00
1.00068049e+00
1.00069943e+00
1.00071846e+00
1.00073758e+00
1.00075676e+00
1.00077599e+00
1.00079524e+00
1.00081448e+00
1.00083371e+00
1.00085287e+00
1.00087196e+00
1.00089093e+00
1.00090975e+00
1.00092839e+00
1.00094681e+00
1.00096498e+00
1.00098286e+00
1.00100041e+00
1.00101761e+00
1.00103441e+00
1.00105077e+00
1.00106667e+00
1.00108207e+00
1.00109695e+00
1.00111128e+00
1.00112503e+00
1.00113819e+00
1.00115074e+00
1.00116268e+00
1.00117398e+00
1.00118466e+00
1.00119471e+00
1.00120414e+00
1.00121296e+00
1.00122119e+00
1.00122883e+00
1.00123592e+00
1.00124247e+00
1.00124851e+00
1.00125406e+00
1.00125916e+00
1.00126383e+00
1.00126810e+00
1.00127200e+00
1.00127555e+00
1.00127879e+00
1.00128174e+00
1.00128440e+00
1.00128678e+00
1.00128900e+00
1.00129096e+00
1.00129264e+00
1.00129420e+00
1.00129561e+00
1.00129670e+00
1.00129768e+00
1.00129852e+00
1.00129899e+00
1.00129918e+00
9.99584558e-01
9.99585033e-01
9.99586399e-01
9.99588544e-01
9.99591493e-01
9.99595336e-01
9.99599936e-01
9.99605237e-01
9.99611420e-01
9.99618439e-01
9.99626183e-01
9.99634746e-01
9.99644162e-01
9.99654364e-01
9.99665354e-01
9.99677165e-01
9.99689777e-01
9.99703162e-01
9.99717317e-01
9.99732227e-01
9.99747862e-01
9.99764192e-01
9.99781187e-01
9.99798808e-01
9.99817011e-01
9.99835751e-01
9.99854977e-01
9.99874637e-01
9.99894674e-01
9.99915032e-01
9.99935653e-01
9.99956478e-01
9.99977449e-01
9.99998511e-01
1.00001961e+00
1.00004069e+00
1.00006172e+00
1.00008264e+00
1.00010342e+00
1.00012403e+00
1.00014443e+00
1.00016462e+00
1.00018458e+00
1.00020429e+00
1.00022376e+00
1.00024298e+00
1.00026197e+00
1.00028074e+00
1.00029930e+00
1.00031768e+00
1.00033589e+00
1.00035397e+00
1.00037194e+00
1.00038982e+00
1.00040765e+00
1.00042545e+00
1.00044324e+00
1.00046106e+00
1.00047892e+00
1.00049685e+00
1.00051487e+00
1.00053298e+00
1.00055120e+00
1.00056954e+00
1.00058801e+00
1.00060660e+00
1.00062533e+00
1.00064418e+00
1.00066316e+00
1.00068225e+00
1.00070145e+00
1.00072073e+00
1.00074009e+00
1.00075951e+00
1.00077897e+00
1.00079844e+00
1.00081790e+00
1.00083732e+00
1.00085669e+00
1.00087596e+00
1.00089510e+00
1.00091409e+00
1.00093289e+00
1.00095146e+00
1.00096977e+00
1.00098778e+00
1.00100546e+00
1.00102276e+00
1.00103966e+00
1.00105612e+00
1.00107210e+00
1.00108758e+00
1.00110253e+00
1.00111692e+00
1.00113072e+00
1.00114393e+00
1.00115652e+00
1.00116849e+00
1.00117982e+00
1.00119053e+00
1.00120059e+00
1.00121004e+00
1.00121887e+00
1.00122710e+00
1.00123474e+00
1.00124183e+00
1.00124837e+00
1.00125440e+00
1.00125995e+00
1.00126504e+00
1.00126969e+00
1.00127394e+00
1.00127783e+00
1.00128137e+00
1.00128457e+00
1.00128750e+00
1.00129017e+00
1.00129254e+00
1.00129467e+00
1.00129664e+00
1.00129838e+00
1.00129983e+00
1.00130119e+00
1.00130239e+00
1.00130331e+00
1.00130405e+00
1.00130462e+00
1.00130490e+00
9.99579807e-01
9.99580258e-01
9.99581555e-01
9.99583643e-01
9.99586545e-01
9.99590236e-01
9.99594641e-01
9.99599850e-01
9.99605878e-01
9.99612637e-01
9.99620190e-01
9.99628579e-01
9.99637748e-01
9.99647700e-01
9.99658475e-01
9.99670056e-01
9.99682422e-01
9.99695577e-01
9.99709515e-01
9.99724210e-01
9.99739640e-01
9.99755783e-01
9.99772607e-01
9.99790074e-01
9.99808143e-01
9.99826771e-01
9.99845909e-01
9.99865504e-01
9.99885501e-01
9.99905845e-01
9.99926477e-01
9.99947339e-01
9.99968373e-01
9.99989523e-01
1.00001074e+00
1.00003196e+00
1.00005314e+00
1.00007425e+00
1.00009523e+00
1.00011606e+00
1.00013672e+00
1.00015717e+00
1.00017740e+00
1.00019740e+00
1.00021717e+00
1.00023671e+00
1.00025603e+00
1.00027513e+00
1.00029404e+00
1.00031276e+00
1.00033133e+00
1.00034977e+00
1.00036809e+00
1.00038634e+00
1.00040452e+00
1.00042268e+00
1.00044084e+00
1.00045901e+00
1.00047722e+00
1.00049550e+00
1.00051386e+00
1.00053231e+00
1.00055086e+00
1.00056953e+00
1.00058832e+00
1.00060723e+00
1.00062627e+00
1.00064543e+00
1.00066470e+00
1.00068408e+00
1.00070356e+00
1.00072312e+00
1.00074275e+00
1.00076243e+00
1.00078213e+00
1.00080185e+00
1.00082154e+00
1.00084119e+00
1.00086077e+00
1.00088025e+00
1.00089959e+00
1.00091877e+00
1.00093774e+00
1.00095648e+00
1.00097494e+00
1.00099310e+00
1.00101091e+00
1.00102834e+00
1.00104536e+00
1.00106192e+00
1.00107800e+00
1.00109357e+00
1.00110859e+00
1.00112304e+00
1.00113691e+00
1.00115016e+00
1.00116280e+00
1.00117480e+00
1.00118616e+00
1.00119688e+00
1.00120696e+00
1.00121642e+00
1.00122525e+00
1.00123347e+00
1.00124111e+00
1.00124818e+00
1.00125471e+00
1.00126072e+00
1.00126624e+00
1.00127130e+00
1.00127593e+00
1.00128015e+00
1.00128400e+00
1.00128750e+00
1.00129069e+00
1.00129356e+00
1.00129617e+00
1.00129855e+00
1.00130065e+00
1.00130253e+00
1.00130426e+00
1.00130575e+00
1.00130703e+00
1.00130818e+00
1.00130914e+00
1.00130989e+00
1.00131044e+00
1.00131073e+00
9.99574882e-01
9.99575317e-01
9.99576553e-01
9.99578611e-01
9.99581420e-01
9.99584935e-01
9.99589217e-01
9.99594288e-01
9.99600076e-01
9.99606625e-01
9.99613992e-01
9.99622126e-01
9.99631027e-01
9.99640743e-01
9.99651264e-01
9.99662571e-01
9.99674678e-01
9.99687585e-01
9.99701273e-01
9.99715726e-01
9.99730932e-01
9.99746866e-01
9.99763496e-01
9.99780789e-01
9.99798707e-01
9.99817207e-01
9.99836240e-01
9.99855757e-01
9.99875703e-01
9.99896023e-01
9.99916658e-01
9.99937551e-01
9.99958645e-01
9.99979881e-01
1.00000121e+00
1.00002257e+00
1.00004392e+00
1.00006521e+00
1.00008641e+00
1.00010748e+00
1.00012838e+00
1.00014911e+00
1.00016963e+00
1.00018994e+00
1.00021003e+00
1.00022991e+00
1.00024957e+00
1.00026903e+00
1.00028830e+00
1.00030740e+00
1.00032634e+00
1.00034516e+00
1.00036387e+00
1.00038249e+00
1.00040107e+00
1.00041961e+00
1.00043815e+00
1.00045670e+00
1.00047529e+00
1.00049394e+00
1.00051267e+00
1.00053148e+00
1.00055039e+00
1.00056941e+00
1.00058855e+00
1.00060781e+00
1.00062718e+00
1.00064666e+00
1.00066626e+00
1.00068595e+00
1.00070573e+00
1.00072559e+00
1.00074551e+00
1.00076547e+00
1.00078545e+00
1.00080542e+00
1.00082537e+00
1.00084527e+00
1.00086508e+00
1.00088479e+00
1.00090435e+00
1.00092373e+00
1.00094289e+00
1.00096182e+00
1.00098045e+00
1.00099877e+00
1.00101673e+00
1.00103430e+00
1.00105144e+00
1.00106812e+00
1.00108431e+00
1.00109997e+00
1.00111507e+00
1.00112960e+00
1.00114353e+00
1.00115684e+00
1.00116951e+00
1.00118155e+00
1.00119294e+00
1.00120367e+00
1.00121377e+00
1.00122322e+00
1.00123204e+00
1.00124025e+00
1.00124787e+00
1.00125492e+00
1.00126141e+00
1.00126739e+00
1.00127287e+00
1.00127788e+00
1.00128246e+00
1.00128664e+00
1.00129043e+00
1.00129387e+00
1.00129700e+00
1.00129983e+00
1.00130237e+00
1.00130468e+00
1.00130677e+00
1.00130860e+00
1.00131024e+00
1.00131172e+00
1.00131300e+00
1.00131408e+00
1.00131503e+00
1.00131581e+00
1.00131636e+00
1.00131666e+00
9.99569889e-01
9.99570359e-01
9.99571574e-01
9.99573539e-01
9.99576223e-01
9.99579626e-01
9.99583766e-01
9.99588615e-01
9.99594193e-01
9.99600547e-01
9.99607651e-01
9.99615505e-01
9.99624153e-01
9.99633595e-01
9.99643815e-01
9.99654835e-01
9.99666663e-01
9.99679284e-01
9.99692693e-01
9.99706884e-01
9.99721840e-01
9.99737537e-01
9.99753950e-01
9.99771048e-01
9.99788793e-01
9.99807144e-01
9.99826056e-01
9.99845478e-01
9.99865358e-01
9.99885640e-01
9.99906268e-01
9.99927184e-01
9.99948329e-01
9.99969647e-01
9.99991082e-01
1.00001258e+00
1.00003410e+00
1.00005558e+00
1.00007700e+00
1.00009830e+00
1.00011947e+00
1.00014048e+00
1.00016130e+00
1.00018194e+00
1.00020237e+00
1.00022259e+00
1.00024262e+00
1.00026245e+00
1.00028210e+00
1.00030159e+00
1.00032093e+00
1.00034015e+00
1.00035926e+00
1.00037830e+00
1.00039728e+00
1.00041623e+00
1.00043517e+00
1.00045413e+00
1.00047312e+00
1.00049216e+00
1.00051128e+00
1.00053048e+00
1.00054978e+00
1.00056917e+00
1.00058868e+00
1.00060830e+00
1.00062802e+00
1.00064786e+00
1.00066779e+00
1.00068782e+00
1.00070793e+00
1.00072811e+00
1.00074834e+00
1.00076860e+00
1.00078887e+00
1.00080913e+00
1.00082935e+00
1.00084951e+00
1.00086958e+00
1.00088953e+00
1.00090932e+00
1.00092892e+00
1.00094830e+00
1.00096742e+00
1.00098624e+00
1.00100473e+00
1.00102286e+00
1.00104058e+00
1.00105785e+00
1.00107466e+00
1.00109095e+00
1.00110671e+00
1.00112190e+00
1.00113651e+00
1.00115050e+00
1.00116386e+00
1.00117658e+00
1.00118865e+00
1.00120005e+00
1.00121080e+00
1.00122089e+00
1.00123034e+00
1.00123915e+00
1.00124733e+00
1.00125492e+00
1.00126192e+00
1.00126837e+00
1.00127429e+00
1.00127971e+00
1.00128466e+00
1.00128916e+00
1.00129326e+00
1.00129698e+00
1.00130035e+00
1.00130339e+00
1.00130615e+00
1.00130863e+00
1.00131085e+00
1.00131286e+00
1.00131466e+00
1.00131623e+00
1.00131764e+00
1.00131889e+00
1.00131996e+00
1.00132088e+00
1.00132164e+00
1.00132221e+00
1.00132259e+00
9.99565011e-01
9.99565499e-01
9.99566689e-01
9.99568564e-01
9.99571136e-01
9.99574408e-01
9.99578358e-01
9.99582998e-01
9.99588371e-01
9.99594468e-01
9.99601287e-01
9.99608870e-01
9.99617226e-01
9.99626346e-01
9.99636253e-01
9.99646965e-01
9.99658473e-01
9.99670779e-01
9.99683886e-01
9.99697786e-01
9.99712461e-01
9.99727895e-01
9.99744066e-01
9.99760943e-01
9.99778491e-01
9.99796671e-01
9.99815440e-01
9.99834749e-01
9.99854545e-01
9.99874774e-01
9.99895380e-01
9.99916306e-01
9.99937492e-01
9.99958883e-01
9.99980422e-01
1.00000206e+00
1.00002373e+00
1.00004541e+00
1.00006704e+00
1.00008859e+00
1.00011003e+00
1.00013132e+00
1.00015246e+00
1.00017342e+00
1.00019420e+00
1.00021479e+00
1.00023519e+00
1.00025541e+00
1.00027546e+00
1.00029536e+00
1.00031511e+00
1.00033475e+00
1.00035428e+00
1.00037375e+00
1.00039315e+00
1.00041253e+00
1.00043190e+00
1.00045128e+00
1.00047069e+00
1.00049016e+00
1.00050969e+00
1.00052930e+00
1.00054899e+00
1.00056879e+00
1.00058868e+00