# vtk DataFile Version 2.0
LBM Flow Field - Timestep 2120
ASCII
DATASET STRUCTURED_POINTS
DIMENSIONS 128 128 1
ORIGIN 0.0 0.0 0.0
SPACING 1.0 1.0 1.0
POINT_DATA 16384
SCALARS density double 1
LOOKUP_TABLE default
1.00045771e+00
1.00046921e+00
1.00048299e+00
1.00049027e+00
1.00049962e+00
1.00051129e+00
1.00052388e+00
1.00053714e+00
1.00055141e+00
1.00056638e+00
1.00058190e+00
1.00059780e+00
1.00061395e+00
1.00063020e+00
1.00064644e+00
1.00066254e+00
1.00067842e+00
1.00069400e+00
1.00070922e+00
1.00072406e+00
1.00073848e+00
1.00075249e+00
1.00076609e+00
1.00077929e+00
1.00079211e+00
1.00080456e+00
1.00081665e+00
1.00082838e+00
1.00083974e+00
1.00085071e+00
1.00086123e+00
1.00087125e+00
1.00088069e+00
1.00088944e+00
1.00089739e+00
1.00090439e+00
1.00091029e+00
1.00091494e+00
1.00091814e+00
1.00091972e+00
1.00091951e+00
1.00091732e+00
1.00091300e+00
1.00090638e+00
1.00089735e+00
1.00088579e+00
1.00087162e+00
1.00085479e+00
1.00083529e+00
1.00081314e+00
1.00078839e+00
1.00076114e+00
1.00073152e+00
1.00069970e+00
1.00066585e+00
1.00063020e+00
1.00059299e+00
1.00055449e+00
1.00051495e+00
1.00047466e+00
1.00043391e+00
1.00039296e+00
1.00035208e+00
1.00031154e+00
1.00027157e+00
1.00023240e+00
1.00019424e+00
1.00015725e+00
1.00012161e+00
1.00008745e+00
1.00005489e+00
1.00002401e+00
9.99994906e-01
9.99967624e-01
9.99942214e-01
9.99918707e-01
9.99897128e-01
9.99877491e-01
9.99859804e-01
9.99844072e-01
9.99830297e-01
9.99818477e-01
9.99808608e-01
9.99800685e-01
9.99794701e-01
9.99790644e-01
9.99788500e-01
9.99788251e-01
9.99789872e-01
9.99793330e-01
9.99798586e-01
9.99805593e-01
9.99814291e-01
9.99824613e-01
9.99836481e-01
9.99849807e-01
9.99864494e-01
9.99880436e-01
9.99897518e-01
9.99915620e-01
9.99934616e-01
9.99954376e-01
9.99974768e-01
9.99995659e-01
1.00001692e+00
1.00003841e+00
1.00006000e+00
1.00008158e+00
1.00010302e+00
1.00012420e+00
1.00014503e+00
1.00016538e+00
1.00018516e+00
1.00020430e+00
1.00022269e+00
1.00024024e+00
1.00025689e+00
1.00027261e+00
1.00028731e+00
1.00030087e+00
1.00031339e+00
1.00032480e+00
1.00033507e+00
1.00034401e+00
1.00035171e+00
1.00035802e+00
1.00036574e+00
1.00037190e+00
1.00046827e+00
1.00047506e+00
1.00048664e+00
1.00049463e+00
1.00050483e+00
1.00051596e+00
1.00052840e+00
1.00054159e+00
1.00055577e+00
1.00057055e+00
1.00058592e+00
1.00060167e+00
1.00061768e+00
1.00063378e+00
1.00064988e+00
1.00066586e+00
1.00068163e+00
1.00069712e+00
1.00071227e+00
1.00072705e+00
1.00074144e+00
1.00075542e+00
1.00076901e+00
1.00078221e+00
1.00079504e+00
1.00080750e+00
1.00081960e+00
1.00083134e+00
1.00084270e+00
1.00085366e+00
1.00086417e+00
1.00087417e+00
1.00088356e+00
1.00089226e+00
1.00090013e+00
1.00090704e+00
1.00091285e+00
1.00091737e+00
1.00092044e+00
1.00092189e+00
1.00092153e+00
1.00091919e+00
1.00091471e+00
1.00090794e+00
1.00089875e+00
1.00088704e+00
1.00087273e+00
1.00085577e+00
1.00083614e+00
1.00081388e+00
1.00078903e+00
1.00076170e+00
1.00073200e+00
1.00070010e+00
1.00066619e+00
1.00063048e+00
1.00059322e+00
1.00055467e+00
1.00051509e+00
1.00047475e+00
1.00043394e+00
1.00039294e+00
1.00035201e+00
1.00031141e+00
1.00027138e+00
1.00023214e+00
1.00019390e+00
1.00015684e+00
1.00012113e+00
1.00008689e+00
1.00005425e+00
1.00002330e+00
9.99994113e-01
9.99966759e-01
9.99941279e-01
9.99917707e-01
9.99896065e-01
9.99876370e-01
9.99858629e-01
9.99842846e-01
9.99829020e-01
9.99817151e-01
9.99807233e-01
9.99799259e-01
9.99793220e-01
9.99789105e-01
9.99786898e-01
9.99786578e-01
9.99788121e-01
9.99791493e-01
9.99796656e-01
9.99803559e-01
9.99812147e-01
9.99822351e-01
9.99834095e-01
9.99847291e-01
9.99861845e-01
9.99877650e-01
9.99894596e-01
9.99912563e-01
9.99931426e-01
9.99951059e-01
9.99971329e-01
9.99992106e-01
1.00001326e+00
1.00003465e+00
1.00005617e+00
1.00007767e+00
1.00009905e+00
1.00012019e+00
1.00014097e+00
1.00016130e+00
1.00018107e+00
1.00020020e+00
1.00021860e+00
1.00023618e+00
1.00025288e+00
1.00026863e+00
1.00028337e+00
1.00029702e+00
1.00030966e+00
1.00032107e+00
1.00033140e+00
1.00034040e+00
1.00034861e+00
1.00035491e+00
1.00036227e+00
1.00036718e+00
1.00048169e+00
1.00048625e+00
1.00049180e+00
1.00050187e+00
1.00051268e+00
1.00052312e+00
1.00053517e+00
1.00054842e+00
1.00056243e+00
1.00057706e+00
1.00059228e+00
1.00060788e+00
1.00062375e+00
1.00063973e+00
1.00065571e+00
1.00067159e+00
1.00068727e+00
1.00070269e+00
1.00071778e+00
1.00073252e+00
1.00074689e+00
1.00076086e+00
1.00077445e+00
1.00078766e+00
1.00080050e+00
1.00081298e+00
1.00082510e+00
1.00083685e+00
1.00084822e+00
1.00085917e+00
1.00086966e+00
1.00087961e+00
1.00088896e+00
1.00089758e+00
1.00090536e+00
1.00091216e+00
1.00091783e+00
1.00092221e+00
1.00092511e+00
1.00092638e+00
1.00092582e+00
1.00092328e+00
1.00091858e+00
1.00091159e+00
1.00090218e+00
1.00089024e+00
1.00087571e+00
1.00085852e+00
1.00083868e+00
1.00081620e+00
1.00079114e+00
1.00076360e+00
1.00073370e+00
1.00070160e+00
1.00066749e+00
1.00063160e+00
1.00059415e+00
1.00055540e+00
1.00051563e+00
1.00047511e+00
1.00043412e+00
1.00039293e+00
1.00035181e+00
1.00031102e+00
1.00027080e+00
1.00023137e+00
1.00019294e+00
1.00015570e+00
1.00011980e+00
1.00008538e+00
1.00005257e+00
1.00002145e+00
9.99992102e-01
9.99964592e-01
9.99938964e-01
9.99915250e-01
9.99893475e-01
9.99873651e-01
9.99855788e-01
9.99839887e-01
9.99825948e-01
9.99813968e-01
9.99803941e-01
9.99795857e-01
9.99789709e-01
9.99785481e-01
9.99783158e-01
9.99782718e-01
9.99784136e-01
9.99787379e-01
9.99792407e-01
9.99799172e-01
9.99807616e-01
9.99817674e-01
9.99829269e-01
9.99842317e-01
9.99856722e-01
9.99872381e-01
9.99889185e-01
9.99907015e-01
9.99925749e-01
9.99945260e-01
9.99965420e-01
9.99986096e-01
1.00000716e+00
1.00002848e+00
1.00004993e+00
1.00007138e+00
1.00009273e+00
1.00011384e+00
1.00013461e+00
1.00015494e+00
1.00017473e+00
1.00019387e+00
1.00021229e+00
1.00022992e+00
1.00024667e+00
1.00026245e+00
1.00027725e+00
1.00029101e+00
1.00030367e+00
1.00031513e+00
1.00032550e+00
1.00033450e+00
1.00034267e+00
1.00034985e+00
1.00035571e+00
1.00036030e+00
1.00049059e+00
1.00049606e+00
1.00050311e+00
1.00051233e+00
1.00052157e+00
1.00053231e+00
1.00054448e+00
1.00055746e+00
1.00057122e+00
1.00058576e+00
1.00060087e+00
1.00061635e+00
1.00063210e+00
1.00064800e+00
1.00066391e+00
1.00067972e+00
1.00069536e+00
1.00071075e+00
1.00072584e+00
1.00074058e+00
1.00075496e+00
1.00076896e+00
1.00078258e+00
1.00079583e+00
1.00080870e+00
1.00082121e+00
1.00083334e+00
1.00084510e+00
1.00085646e+00
1.00086739e+00
1.00087783e+00
1.00088772e+00
1.00089696e+00
1.00090546e+00
1.00091309e+00
1.00091972e+00
1.00092519e+00
1.00092934e+00
1.00093200e+00
1.00093300e+00
1.00093216e+00
1.00092932e+00
1.00092432e+00
1.00091702e+00
1.00090729e+00
1.00089503e+00
1.00088017e+00
1.00086267e+00
1.00084251e+00
1.00081972e+00
1.00079435e+00
1.00076651e+00
1.00073631e+00
1.00070392e+00
1.00066953e+00
1.00063336e+00
1.00059563e+00
1.00055662e+00
1.00051657e+00
1.00047578e+00
1.00043451e+00
1.00039305e+00
1.00035165e+00
1.00031059e+00
1.00027009e+00
1.00023039e+00
1.00019168e+00
1.00015416e+00
1.00011799e+00
1.00008330e+00
1.00005021e+00
1.00001883e+00
9.99989223e-01
9.99961460e-01
9.99935586e-01
9.99911634e-01
9.99889628e-01
9.99869581e-01
9.99851502e-01
9.99835392e-01
9.99821251e-01
9.99809074e-01
9.99798855e-01
9.99790583e-01
9.99784249e-01
9.99779838e-01
9.99777333e-01
9.99776713e-01
9.99777950e-01
9.99781013e-01
9.99785860e-01
9.99792445e-01
9.99800711e-01
9.99810593e-01
9.99822014e-01
9.99834892e-01
9.99849133e-01
9.99864636e-01
9.99881291e-01
9.99898982e-01
9.99917589e-01
9.99936985e-01
9.99957042e-01
9.99977631e-01
9.99998620e-01
1.00001988e+00
1.00004129e+00
1.00006271e+00
1.00008404e+00
1.00010514e+00
1.00012593e+00
1.00014627e+00
1.00016608e+00
1.00018527e+00
1.00020374e+00
1.00022141e+00
1.00023820e+00
1.00025405e+00
1.00026891e+00
1.00028270e+00
1.00029536e+00
1.00030691e+00
1.00031732e+00
1.00032640e+00
1.00033416e+00
1.00034133e+00
1.00034733e+00
1.00035223e+00
1.00050317e+00
1.00050885e+00
1.00051635e+00
1.00052403e+00
1.00053314e+00
1.00054421e+00
1.00055596e+00
1.00056863e+00
1.00058233e+00
1.00059676e+00
1.00061170e+00
1.00062709e+00
1.00064276e+00
1.00065858e+00
1.00067444e+00
1.00069023e+00
1.00070585e+00
1.00072125e+00
1.00073636e+00
1.00075114e+00
1.00076557e+00
1.00077963e+00
1.00079331e+00
1.00080661e+00
1.00081954e+00
1.00083209e+00
1.00084425e+00
1.00085602e+00
1.00086736e+00
1.00087825e+00
1.00088861e+00
1.00089839e+00
1.00090750e+00
1.00091583e+00
1.00092326e+00
1.00092964e+00
1.00093484e+00
1.00093869e+00
1.00094102e+00
1.00094167e+00
1.00094046e+00
1.00093723e+00
1.00093183e+00
1.00092412e+00
1.00091397e+00
1.00090129e+00
1.00088601e+00
1.00086809e+00
1.00084752e+00
1.00082433e+00
1.00079857e+00
1.00077034e+00
1.00073976e+00
1.00070701e+00
1.00067225e+00
1.00063572e+00
1.00059764e+00
1.00055828e+00
1.00051788e+00
1.00047674e+00
1.00043513e+00
1.00039331e+00
1.00035157e+00
1.00031015e+00
1.00026929e+00
1.00022923e+00
1.00019017e+00
1.00015229e+00
1.00011575e+00
1.00008070e+00
1.00004726e+00
1.00001552e+00
9.99985564e-01
9.99957457e-01
9.99931246e-01
9.99906965e-01
9.99884637e-01
9.99864277e-01
9.99845894e-01
9.99829489e-01
9.99815061e-01
9.99802606e-01
9.99792114e-01
9.99783578e-01
9.99776986e-01
9.99772322e-01
9.99769568e-01
9.99768704e-01
9.99769702e-01
9.99772529e-01
9.99777145e-01
9.99783504e-01
9.99791548e-01
9.99801214e-01
9.99812428e-01
9.99825106e-01
9.99839158e-01
9.99854482e-01
9.99870971e-01
9.99888511e-01
9.99906981e-01
9.99926256e-01
9.99946210e-01
9.99966712e-01
9.99987632e-01
1.00000884e+00
1.00003021e+00
1.00005162e+00
1.00007294e+00
1.00009406e+00
1.00011486e+00
1.00013524e+00
1.00015509e+00
1.00017432e+00
1.00019285e+00
1.00021057e+00
1.00022741e+00
1.00024333e+00
1.00025823e+00
1.00027204e+00
1.00028476e+00
1.00029633e+00
1.00030661e+00
1.00031575e+00
1.00032361e+00
1.00033040e+00
1.00033618e+00
1.00034073e+00
1.00051922e+00
1.00052397e+00
1.00053061e+00
1.00053839e+00
1.00054778e+00
1.00055816e+00
1.00056954e+00
1.00058222e+00
1.00059579e+00
1.00061001e+00
1.00062483e+00
1.00064012e+00
1.00065572e+00
1.00067148e+00
1.00068730e+00
1.00070308e+00
1.00071872e+00
1.00073414e+00
1.00074930e+00
1.00076414e+00
1.00077865e+00
1.00079278e+00
1.00080654e+00
1.00081992e+00
1.00083291e+00
1.00084551e+00
1.00085770e+00
1.00086947e+00
1.00088079e+00
1.00089161e+00
1.00090188e+00
1.00091153e+00
1.00092046e+00
1.00092857e+00
1.00093574e+00
1.00094183e+00
1.00094670e+00
1.00095018e+00
1.00095211e+00
1.00095232e+00
1.00095066e+00
1.00094696e+00
1.00094107e+00
1.00093286e+00
1.00092221e+00
1.00090902e+00
1.00089323e+00
1.00087481e+00
1.00085374e+00
1.00083006e+00
1.00080382e+00
1.00077511e+00
1.00074408e+00
1.00071087e+00
1.00067567e+00
1.00063870e+00
1.00060019e+00
1.00056039e+00
1.00051957e+00
1.00047801e+00
1.00043597e+00
1.00039372e+00
1.00035155e+00
1.00030969e+00
1.00026840e+00
1.00022790e+00
1.00018840e+00
1.00015007e+00
1.00011309e+00
1.00007759e+00
1.00004371e+00
1.00001153e+00
9.99981138e-01
9.99952601e-01
9.99925966e-01
9.99901270e-01
9.99878535e-01
9.99857779e-01
9.99839009e-01
9.99822227e-01
9.99807432e-01
9.99794620e-01
9.99783781e-01
9.99774907e-01
9.99767985e-01
9.99763000e-01
9.99759933e-01
9.99758763e-01
9.99759463e-01
9.99761999e-01
9.99766333e-01
9.99772416e-01
9.99780195e-01
9.99789606e-01
9.99800576e-01
9.99813022e-01
9.99826856e-01
9.99841977e-01
9.99858280e-01
9.99875652e-01
9.99893972e-01
9.99913119e-01
9.99932963e-01
9.99953377e-01
9.99974229e-01
9.99995391e-01
1.00001673e+00
1.00003813e+00
1.00005946e+00
1.00008059e+00
1.00010143e+00
1.00012185e+00
1.00014176e+00
1.00016104e+00
1.00017962e+00
1.00019740e+00
1.00021431e+00
1.00023026e+00
1.00024519e+00
1.00025906e+00
1.00027180e+00
1.00028333e+00
1.00029358e+00
1.00030263e+00
1.00031047e+00
1.00031705e+00
1.00032254e+00
1.00032659e+00
1.00053708e+00
1.00054153e+00
1.00054765e+00
1.00055537e+00
1.00056428e+00
1.00057426e+00
1.00058568e+00
1.00059817e+00
1.00061144e+00
1.00062553e+00
1.00064027e+00
1.00065544e+00
1.00067095e+00
1.00068667e+00
1.00070247e+00
1.00071825e+00
1.00073391e+00
1.00074939e+00
1.00076461e+00
1.00077954e+00
1.00079413e+00
1.00080836e+00
1.00082221e+00
1.00083568e+00
1.00084874e+00
1.00086139e+00
1.00087361e+00
1.00088538e+00
1.00089666e+00
1.00090740e+00
1.00091756e+00
1.00092704e+00
1.00093576e+00
1.00094361e+00
1.00095047e+00
1.00095621e+00
1.00096069e+00
1.00096373e+00
1.00096520e+00
1.00096491e+00
1.00096272e+00
1.00095847e+00
1.00095202e+00
1.00094322e+00
1.00093198e+00
1.00091820e+00
1.00090183e+00
1.00088282e+00
1.00086117e+00
1.00083691e+00
1.00081010e+00
1.00078085e+00
1.00074927e+00
1.00071552e+00
1.00067980e+00
1.00064231e+00
1.00060329e+00
1.00056298e+00
1.00052166e+00
1.00047959e+00
1.00043705e+00
1.00039430e+00
1.00035161e+00
1.00030924e+00
1.00026743e+00
1.00022641e+00
1.00018638e+00
1.00014753e+00
1.00011002e+00
1.00007399e+00
1.00003958e+00
1.00000687e+00
9.99975960e-01
9.99946907e-01
9.99919764e-01
9.99894567e-01
9.99871342e-01
9.99850106e-01
9.99830867e-01
9.99813628e-01
9.99798388e-01
9.99785142e-01
9.99773882e-01
9.99764598e-01
9.99757278e-01
9.99751905e-01
9.99748462e-01
9.99746926e-01
9.99747270e-01
9.99749462e-01
9.99753462e-01
9.99759224e-01
9.99766694e-01
9.99775810e-01
9.99786499e-01
9.99798683e-01
9.99812270e-01
9.99827165e-01
9.99843261e-01
9.99860448e-01
9.99878606e-01
9.99897613e-01
9.99917342e-01
9.99937664e-01
9.99958448e-01
9.99979563e-01
1.00000088e+00
1.00002227e+00
1.00004361e+00
1.00006478e+00
1.00008565e+00
1.00010612e+00
1.00012609e+00
1.00014544e+00
1.00016408e+00
1.00018192e+00
1.00019889e+00
1.00021488e+00
1.00022985e+00
1.00024375e+00
1.00025647e+00
1.00026796e+00
1.00027823e+00
1.00028719e+00
1.00029481e+00
1.00030119e+00
1.00030646e+00
1.00031023e+00
1.00055687e+00
1.00056118e+00
1.00056716e+00
1.00057447e+00
1.00058297e+00
1.00059289e+00
1.00060409e+00
1.00061625e+00
1.00062938e+00
1.00064335e+00
1.00065794e+00
1.00067301e+00
1.00068845e+00
1.00070412e+00
1.00071991e+00
1.00073570e+00
1.00075140e+00
1.00076693e+00
1.00078224e+00
1.00079726e+00
1.00081195e+00
1.00082629e+00
1.00084024e+00
1.00085380e+00
1.00086694e+00
1.00087965e+00
1.00089190e+00
1.00090365e+00
1.00091488e+00
1.00092553e+00
1.00093554e+00
1.00094483e+00
1.00095331e+00
1.00096086e+00
1.00096738e+00
1.00097272e+00
1.00097674e+00
1.00097930e+00
1.00098023e+00
1.00097938e+00
1.00097660e+00
1.00097172e+00
1.00096462e+00
1.00095517e+00
1.00094327e+00
1.00092882e+00
1.00091177e+00
1.00089210e+00
1.00086979e+00
1.00084487e+00
1.00081743e+00
1.00078754e+00
1.00075533e+00
1.00072098e+00
1.00068465e+00
1.00064657e+00
1.00060696e+00
1.00056607e+00
1.00052417e+00
1.00048152e+00
1.00043839e+00
1.00039506e+00
1.00035178e+00
1.00030882e+00
1.00026642e+00
1.00022479e+00
1.00018415e+00
1.00014469e+00
1.00010657e+00
1.00006993e+00
1.00003490e+00
1.00000158e+00
9.99970063e-01
9.99940409e-01
9.99912671e-01
9.99886889e-01
9.99863090e-01
9.99841290e-01
9.99821501e-01
9.99803724e-01
9.99787961e-01
9.99774205e-01
9.99762450e-01
9.99752684e-01
9.99744896e-01
9.99739069e-01
9.99735186e-01
9.99733224e-01
9.99733156e-01
9.99734950e-01
9.99738567e-01
9.99743962e-01
9.99751081e-01
9.99759863e-01
9.99770238e-01
9.99782126e-01
9.99795440e-01
9.99810085e-01
9.99825955e-01
9.99842940e-01
9.99860924e-01
9.99879783e-01
9.99899390e-01
9.99919617e-01
9.99940332e-01
9.99961404e-01
9.99982700e-01
1.00000409e+00
1.00002545e+00
1.00004665e+00
1.00006758e+00
1.00008811e+00
1.00010813e+00
1.00012756e+00
1.00014627e+00
1.00016417e+00
1.00018119e+00
1.00019724e+00
1.00021225e+00
1.00022614e+00
1.00023885e+00
1.00025034e+00
1.00026053e+00
1.00026936e+00
1.00027685e+00
1.00028309e+00
1.00028804e+00
1.00029158e+00
1.00057905e+00
1.00058313e+00
1.00058881e+00
1.00059577e+00
1.00060410e+00
1.00061379e+00
1.00062464e+00
1.00063662e+00
1.00064962e+00
1.00066339e+00
1.00067782e+00
1.00069280e+00
1.00070817e+00
1.00072379e+00
1.00073956e+00
1.00075537e+00
1.00077112e+00
1.00078672e+00
1.00080211e+00
1.00081723e+00
1.00083204e+00
1.00084649e+00
1.00086055e+00
1.00087421e+00
1.00088743e+00
1.00090019e+00
1.00091246e+00
1.00092420e+00
1.00093537e+00
1.00094590e+00
1.00095575e+00
1.00096482e+00
1.00097302e+00
1.00098024e+00
1.00098636e+00
1.00099126e+00
1.00099479e+00
1.00099680e+00
1.00099714e+00
1.00099567e+00
1.00099222e+00
1.00098666e+00
1.00097885e+00
1.00096867e+00
1.00095603e+00
1.00094084e+00
1.00092305e+00
1.00090263e+00
1.00087958e+00
1.00085394e+00
1.00082578e+00
1.00079518e+00
1.00076228e+00
1.00072724e+00
1.00069024e+00
1.00065149e+00
1.00061122e+00
1.00056968e+00
1.00052712e+00
1.00048381e+00
1.00044003e+00
1.00039603e+00
1.00035210e+00
1.00030846e+00
1.00026538e+00
1.00022308e+00
1.00018175e+00
1.00014160e+00
1.00010278e+00
1.00006544e+00
1.00002971e+00
9.99995702e-01
9.99963491e-01
9.99933150e-01
9.99904734e-01
9.99878283e-01
9.99853825e-01
9.99831380e-01
9.99810959e-01
9.99792565e-01
9.99776200e-01
9.99761859e-01
9.99749534e-01
9.99739215e-01
9.99730891e-01
9.99724545e-01
9.99720159e-01
9.99717711e-01
9.99717174e-01
9.99718516e-01
9.99721701e-01
9.99726682e-01
9.99733407e-01
9.99741817e-01
9.99751841e-01
9.99763403e-01
9.99776417e-01
9.99790787e-01
9.99806411e-01
9.99823179e-01
9.99840974e-01
9.99859675e-01
9.99879154e-01
9.99899282e-01
9.99919927e-01
9.99940955e-01
9.99962233e-01
9.99983629e-01
1.00000501e+00
1.00002626e+00
1.00004724e+00
1.00006784e+00
1.00008793e+00
1.00010743e+00
1.00012621e+00
1.00014419e+00
1.00016126e+00
1.00017736e+00
1.00019240e+00
1.00020629e+00
1.00021899e+00
1.00023045e+00
1.00024055e+00
1.00024927e+00
1.00025663e+00
1.00026269e+00
1.00026741e+00
1.00027071e+00
1.00060350e+00
1.00060728e+00
1.00061268e+00
1.00061939e+00
1.00062746e+00
1.00063685e+00
1.00064747e+00
1.00065926e+00
1.00067203e+00
1.00068561e+00
1.00069992e+00
1.00071478e+00
1.00073006e+00
1.00074564e+00
1.00076139e+00
1.00077721e+00
1.00079300e+00
1.00080867e+00
1.00082415e+00
1.00083938e+00
1.00085430e+00
1.00086887e+00
1.00088305e+00
1.00089680e+00
1.00091010e+00
1.00092291e+00
1.00093519e+00
1.00094690e+00
1.00095799e+00
1.00096840e+00
1.00097806e+00
1.00098689e+00
1.00099478e+00
1.00100163e+00
1.00100733e+00
1.00101174e+00
1.00101473e+00
1.00101614e+00
1.00101585e+00
1.00101369e+00
1.00100952e+00
1.00100321e+00
1.00099462e+00
1.00098366e+00
1.00097021e+00
1.00095421e+00
1.00093561e+00
1.00091438e+00
1.00089053e+00
1.00086410e+00
1.00083514e+00
1.00080377e+00
1.00077011e+00
1.00073432e+00
1.00069657e+00
1.00065708e+00
1.00061608e+00
1.00057381e+00
1.00053053e+00
1.00048649e+00
1.00044198e+00
1.00039725e+00
1.00035258e+00
1.00030820e+00
1.00026437e+00
1.00022130e+00
1.00017921e+00
1.00013829e+00
1.00009869e+00
1.00006058e+00
1.00002407e+00
9.99989281e-01
9.99956295e-01
9.99925185e-01
9.99896008e-01
9.99868805e-01
9.99843607e-01
9.99820435e-01
9.99799302e-01
9.99780212e-01
9.99763168e-01
9.99748166e-01
9.99735198e-01
9.99724256e-01
9.99715327e-01
9.99708396e-01
9.99703444e-01
9.99700451e-01
9.99699389e-01
9.99700227e-01
9.99702928e-01
9.99707449e-01
9.99713738e-01
9.99721736e-01
9.99731376e-01
9.99742580e-01
9.99755265e-01
9.99769336e-01
9.99784693e-01
9.99801226e-01
9.99818819e-01
9.99837350e-01
9.99856693e-01
9.99876717e-01
9.99897289e-01
9.99918273e-01
9.99939534e-01
9.99960937e-01
9.99982350e-01
1.00000364e+00
1.00002468e+00
1.00004535e+00
1.00006553e+00
1.00008510e+00
1.00010395e+00
1.00012200e+00
1.00013915e+00
1.00015528e+00
1.00017034e+00
1.00018425e+00
1.00019694e+00
1.00020831e+00
1.00021835e+00
1.00022700e+00
1.00023419e+00
1.00024002e+00
1.00024458e+00
1.00024766e+00
1.00063020e+00
1.00063374e+00
1.00063883e+00
1.00064526e+00
1.00065303e+00
1.00066215e+00
1.00067255e+00
1.00068409e+00
1.00069662e+00
1.00071004e+00
1.00072418e+00
1.00073891e+00
1.00075409e+00
1.00076961e+00
1.00078534e+00
1.00080116e+00
1.00081699e+00
1.00083272e+00
1.00084829e+00
1.00086362e+00
1.00087865e+00
1.00089333e+00
1.00090761e+00
1.00092146e+00
1.00093483e+00
1.00094768e+00
1.00095996e+00
1.00097163e+00
1.00098264e+00
1.00099290e+00
1.00100235e+00
1.00101091e+00
1.00101847e+00
1.00102492e+00
1.00103016e+00
1.00103404e+00
1.00103645e+00
1.00103723e+00
1.00103624e+00
1.00103335e+00
1.00102841e+00
1.00102130e+00
1.00101188e+00
1.00100007e+00
1.00098576e+00
1.00096889e+00
1.00094942e+00
1.00092732e+00
1.00090260e+00
1.00087531e+00
1.00084551e+00
1.00081330e+00
1.00077881e+00
1.00074219e+00
1.00070364e+00
1.00066335e+00
1.00062155e+00
1.00057849e+00
1.00053441e+00
1.00048958e+00
1.00044427e+00
1.00039875e+00
1.00035326e+00
1.00030807e+00
1.00026341e+00
1.00021951e+00
1.00017658e+00
1.00013481e+00
1.00009436e+00
1.00005539e+00
1.00001802e+00
9.99982376e-01
9.99948535e-01
9.99916575e-01
9.99886555e-01
9.99858520e-01
9.99832502e-01
9.99808524e-01
9.99786600e-01
9.99766738e-01
9.99748940e-01
9.99733203e-01
9.99719521e-01
9.99707885e-01
9.99698284e-01
9.99690702e-01
9.99685123e-01
9.99681524e-01
9.99679881e-01
9.99680161e-01
9.99682331e-01
9.99686345e-01
9.99692155e-01
9.99699701e-01
9.99708919e-01
9.99719733e-01
9.99732060e-01
9.99745807e-01
9.99760875e-01
9.99777154e-01
9.99794529e-01
9.99812879e-01
9.99832076e-01
9.99851988e-01
9.99872481e-01
9.99893419e-01
9.99914662e-01
9.99936073e-01
9.99957515e-01
9.99978855e-01
9.99999960e-01
1.00002070e+00
1.00004096e+00
1.00006061e+00
1.00007955e+00
1.00009766e+00
1.00011486e+00
1.00013105e+00
1.00014613e+00
1.00016004e+00
1.00017270e+00
1.00018404e+00
1.00019398e+00
1.00020251e+00
1.00020958e+00
1.00021522e+00
1.00021954e+00
1.00022239e+00
1.00065918e+00
1.00066245e+00
1.00066722e+00
1.00067335e+00
1.00068085e+00
1.00068968e+00
1.00069981e+00
1.00071109e+00
1.00072339e+00
1.00073660e+00
1.00075056e+00
1.00076514e+00
1.00078021e+00
1.00079565e+00
1.00081133e+00
1.00082715e+00
1.00084300e+00
1.00085878e+00
1.00087442e+00
1.00088984e+00
1.00090497e+00
1.00091975e+00
1.00093413e+00
1.00094806e+00
1.00096149e+00
1.00097437e+00
1.00098665e+00
1.00099826e+00
1.00100916e+00
1.00101926e+00
1.00102848e+00
1.00103675e+00
1.00104395e+00
1.00104998e+00
1.00105472e+00
1.00105805e+00
1.00105983e+00
1.00105993e+00
1.00105822e+00
1.00105455e+00
1.00104880e+00
1.00104083e+00
1.00103054e+00
1.00101783e+00
1.00100261e+00
1.00098482e+00
1.00096441e+00
1.00094139e+00
1.00091575e+00
1.00088754e+00
1.00085684e+00
1.00082373e+00
1.00078835e+00
1.00075086e+00
1.00071144e+00
1.00067029e+00
1.00062763e+00
1.00058371e+00
1.00053878e+00
1.00049310e+00
1.00044693e+00
1.00040053e+00
1.00035417e+00
1.00030810e+00
1.00026254e+00
1.00021774e+00
1.00017390e+00
1.00013121e+00
1.00008983e+00
1.00004993e+00
1.00001163e+00
9.99975048e-01
9.99940274e-01
9.99907387e-01
9.99876447e-01
9.99847502e-01
9.99820587e-01
9.99795726e-01
9.99772936e-01
9.99752226e-01
9.99733599e-01
9.99717055e-01
9.99702588e-01
9.99690190e-01
9.99679850e-01
9.99671554e-01
9.99665286e-01
9.99661023e-01
9.99658742e-01
9.99658413e-01
9.99660000e-01
9.99663461e-01
9.99668749e-01
9.99675805e-01
9.99684565e-01
9.99694956e-01
9.99706895e-01
9.99720292e-01
9.99735046e-01
9.99751052e-01
9.99768192e-01
9.99786346e-01
9.99805385e-01
9.99825177e-01
9.99845586e-01
9.99866471e-01
9.99887693e-01
9.99909110e-01
9.99930582e-01
9.99951969e-01
9.99973138e-01
9.99993955e-01
1.00001429e+00
1.00003402e+00
1.00005304e+00
1.00007123e+00
1.00008848e+00
1.00010471e+00
1.00011982e+00
1.00013372e+00
1.00014635e+00
1.00015764e+00
1.00016751e+00
1.00017589e+00
1.00018282e+00
1.00018830e+00
1.00019235e+00
1.00019495e+00
1.00069042e+00
1.00069341e+00
1.00069786e+00
1.00070367e+00
1.00071086e+00
1.00071940e+00
1.00072923e+00
1.00074024e+00
1.00075229e+00
1.00076526e+00
1.00077901e+00
1.00079342e+00
1.00080836e+00
1.00082369e+00
1.00083931e+00
1.00085509e+00
1.00087094e+00
1.00088675e+00
1.00090244e+00
1.00091793e+00
1.00093314e+00
1.00094801e+00
1.00096247e+00
1.00097647e+00
1.00098994e+00
1.00100284e+00
1.00101509e+00
1.00102663e+00
1.00103740e+00
1.00104732e+00
1.00105630e+00
1.00106425e+00
1.00107107e+00
1.00107664e+00
1.00108087e+00
1.00108361e+00
1.00108474e+00
1.00108413e+00
1.00108166e+00
1.00107718e+00
1.00107057e+00
1.00106171e+00
1.00105051e+00
1.00103685e+00
1.00102067e+00
1.00100191e+00
1.00098054e+00
1.00095654e+00
1.00092993e+00
1.00090076e+00
1.00086909e+00
1.00083504e+00
1.00079873e+00
1.00076031e+00
1.00071996e+00
1.00067789e+00
1.00063433e+00
1.00058950e+00
1.00054366e+00
1.00049706e+00
1.00044997e+00
1.00040264e+00
1.00035534e+00
1.00030832e+00
1.00026181e+00
1.00021604e+00
1.00017122e+00
1.00012753e+00
1.00008516e+00
1.00004426e+00
1.00000496e+00
9.99967365e-01
9.99931585e-01
9.99897697e-01
9.99865763e-01
9.99835833e-01
9.99807946e-01
9.99782128e-01
9.99758398e-01
9.99736767e-01
9.99717241e-01
9.99699819e-01
9.99684498e-01
9.99671271e-01
9.99660128e-01
9.99651055e-01
9.99644037e-01
9.99639053e-01
9.99636080e-01
9.99635088e-01
9.99636043e-01
9.99638905e-01
9.99643626e-01
9.99650151e-01
9.99658417e-01
9.99668350e-01
9.99679872e-01
9.99692890e-01
9.99707308e-01
9.99723017e-01
9.99739904e-01
9.99757846e-01
9.99776713e-01
9.99796373e-01
9.99816687e-01
9.99837513e-01
9.99858706e-01
9.99880124e-01
9.99901622e-01
9.99923055e-01
9.99944283e-01
9.99965172e-01
9.99985587e-01
1.00000540e+00
1.00002449e+00
1.00004274e+00
1.00006005e+00
1.00007631e+00
1.00009144e+00
1.00010534e+00
1.00011794e+00
1.00012916e+00
1.00013895e+00
1.00014723e+00
1.00015399e+00
1.00015927e+00
1.00016309e+00
1.00016545e+00
1.00072390e+00
1.00072659e+00
1.00073070e+00
1.00073618e+00
1.00074304e+00
1.00075128e+00
1.00076079e+00
1.00077149e+00
1.00078326e+00
1.00079597e+00
1.00080949e+00
1.00082369e+00
1.00083846e+00
1.00085366e+00
1.00086917e+00
1.00088489e+00
1.00090071e+00
1.00091653e+00
1.00093224e+00
1.00094778e+00
1.00096305e+00
1.00097798e+00
1.00099250e+00
1.00100654e+00
1.00102004e+00
1.00103293e+00
1.00104513e+00
1.00105659e+00
1.00106721e+00
1.00107692e+00
1.00108563e+00
1.00109325e+00
1.00109966e+00
1.00110477e+00
1.00110844e+00
1.00111057e+00
1.00111103e+00
1.00110969e+00
1.00110642e+00
1.00110110e+00
1.00109360e+00
1.00108383e+00
1.00107167e+00
1.00105703e+00
1.00103986e+00
1.00102010e+00
1.00099771e+00
1.00097270e+00
1.00094508e+00
1.00091490e+00
1.00088224e+00
1.00084719e+00
1.00080989e+00
1.00077050e+00
1.00072918e+00
1.00068615e+00
1.00064163e+00
1.00059584e+00
1.00054903e+00
1.00050147e+00
1.00045340e+00
1.00040509e+00
1.00035680e+00
1.00030877e+00
1.00026125e+00
1.00021445e+00
1.00016858e+00
1.00012385e+00
1.00008042e+00
1.00003844e+00
9.99998064e-01
9.99959398e-01
9.99922544e-01
9.99887584e-01
9.99854585e-01
9.99823601e-01
9.99794671e-01
9.99767826e-01
9.99743086e-01
9.99720465e-01
9.99699970e-01
9.99681604e-01
9.99665363e-01
9.99651242e-01
9.99639232e-01
9.99629322e-01
9.99621495e-01
9.99615733e-01
9.99612012e-01
9.99610306e-01
9.99610581e-01
9.99612798e-01
9.99616910e-01
9.99622864e-01
9.99630597e-01
9.99640039e-01
9.99651111e-01
9.99663722e-01
9.99677777e-01
9.99693168e-01
9.99709781e-01
9.99727492e-01
9.99746172e-01
9.99765686e-01
9.99785893e-01
9.99806649e-01
9.99827806e-01
9.99849217e-01
9.99870732e-01
9.99892206e-01
9.99913490e-01
9.99934443e-01
9.99954931e-01
9.99974819e-01
9.99993976e-01
1.00001229e+00
1.00002965e+00
1.00004595e+00
1.00006108e+00
1.00007497e+00
1.00008754e+00
1.00009869e+00
1.00010838e+00
1.00011655e+00
1.00012315e+00
1.00012822e+00
1.00013181e+00
1.00013392e+00
1.00075958e+00
1.00076196e+00
1.00076571e+00
1.00077084e+00
1.00077736e+00
1.00078525e+00
1.00079443e+00
1.00080480e+00
1.00081625e+00
1.00082866e+00
1.00084191e+00
1.00085587e+00
1.00087043e+00
1.00088545e+00
1.00090084e+00
1.00091646e+00
1.00093221e+00
1.00094799e+00
1.00096370e+00
1.00097924e+00
1.00099454e+00
1.00100950e+00
1.00102405e+00
1.00103812e+00
1.00105161e+00
1.00106447e+00
1.00107661e+00
1.00108795e+00
1.00109841e+00
1.00110789e+00
1.00111632e+00
1.00112358e+00
1.00112957e+00
1.00113418e+00
1.00113729e+00
1.00113879e+00
1.00113855e+00
1.00113644e+00
1.00113236e+00
1.00112617e+00
1.00111777e+00
1.00110704e+00
1.00109390e+00
1.00107827e+00
1.00106007e+00
1.00103927e+00
1.00101584e+00
1.00098978e+00
1.00096112e+00
1.00092990e+00
1.00089620e+00
1.00086013e+00
1.00082181e+00
1.00078140e+00
1.00073908e+00
1.00069504e+00
1.00064951e+00
1.00060272e+00
1.00055491e+00
1.00050633e+00
1.00045724e+00
1.00040790e+00
1.00035857e+00
1.00030948e+00
1.00026088e+00
1.00021300e+00
1.00016604e+00
1.00012019e+00
1.00007564e+00
1.00003254e+00
9.99991027e-01
9.99951223e-01
9.99913231e-01
9.99877135e-01
9.99843007e-01
9.99810902e-01
9.99780863e-01
9.99752925e-01
9.99727109e-01
9.99703432e-01
9.99681904e-01
9.99662528e-01
9.99645304e-01
9.99630227e-01
9.99617290e-01
9.99606482e-01
9.99597789e-01
9.99591194e-01
9.99586674e-01
9.99584203e-01
9.99583749e-01
9.99585274e-01
9.99588734e-01
9.99594076e-01
9.99601239e-01
9.99610155e-01
9.99620744e-01
9.99632919e-01
9.99646583e-01
9.99661630e-01
9.99677946e-01
9.99695406e-01
9.99713880e-01
9.99733231e-01
9.99753316e-01
9.99773988e-01
9.99795096e-01
9.99816489e-01
9.99838011e-01
9.99859514e-01
9.99880845e-01
9.99901857e-01
9.99922406e-01
9.99942360e-01
9.99961583e-01
9.99979949e-01
9.99997346e-01
1.00001367e+00
1.00002881e+00
1.00004268e+00
1.00005520e+00
1.00006629e+00
1.00007588e+00
1.00008392e+00
1.00009037e+00
1.00009524e+00
1.00009857e+00
1.00010042e+00
1.00079740e+00
1.00079945e+00
1.00080283e+00
1.00080760e+00
1.00081376e+00
1.00082128e+00
1.00083009e+00
1.00084009e+00
1.00085119e+00
1.00086326e+00
1.00087620e+00
1.00088987e+00
1.00090418e+00
1.00091899e+00
1.00093419e+00
1.00094966e+00
1.00096531e+00
1.00098101e+00
1.00099667e+00
1.00101219e+00
1.00102747e+00
1.00104243e+00
1.00105698e+00
1.00107103e+00
1.00108449e+00
1.00109729e+00
1.00110933e+00
1.00112053e+00
1.00113080e+00
1.00114004e+00
1.00114816e+00
1.00115504e+00
1.00116059e+00
1.00116469e+00
1.00116722e+00
1.00116807e+00
1.00116711e+00
1.00116424e+00
1.00115932e+00
1.00115225e+00
1.00114292e+00
1.00113123e+00
1.00111709e+00
1.00110043e+00
1.00108119e+00
1.00105933e+00
1.00103483e+00
1.00100771e+00
1.00097797e+00
1.00094569e+00
1.00091093e+00
1.00087380e+00
1.00083443e+00
1.00079297e+00
1.00074961e+00
1.00070454e+00
1.00065797e+00
1.00061013e+00
1.00056127e+00
1.00051164e+00
1.00046150e+00
1.00041108e+00
1.00036066e+00
1.00031047e+00
1.00026076e+00