# vtk DataFile Version 2.0
LBM Flow Field - Timestep 2700
ASCII
DATASET STRUCTURED_POINTS
DIMENSIONS 128 128 1
ORIGIN 0.0 0.0 0.0
SPACING 1.0 1.0 1.0
POINT_DATA 16384
SCALARS density double 1
LOOKUP_TABLE default
1.00228491e+00
1.00228024e+00
1.00227577e+00
1.00227981e+00
1.00228419e+00
1.00228755e+00
1.00229218e+00
1.00229795e+00
1.00230379e+00
1.00230977e+00
1.00231609e+00
1.00232245e+00
1.00232857e+00
1.00233436e+00
1.00233965e+00
1.00234422e+00
1.00234789e+00
1.00235051e+00
1.00235189e+00
1.00235187e+00
1.00235030e+00
1.00234705e+00
1.00234200e+00
1.00233504e+00
1.00232607e+00
1.00231502e+00
1.00230185e+00
1.00228650e+00
1.00226895e+00
1.00224920e+00
1.00222727e+00
1.00220317e+00
1.00217695e+00
1.00214867e+00
1.00211838e+00
1.00208617e+00
1.00205212e+00
1.00201632e+00
1.00197887e+00
1.00193987e+00
1.00189942e+00
1.00185763e+00
1.00181458e+00
1.00177039e+00
1.00172514e+00
1.00167892e+00
1.00163181e+00
1.00158389e+00
1.00153522e+00
1.00148586e+00
1.00143586e+00
1.00138525e+00
1.00133407e+00
1.00128235e+00
1.00123009e+00
1.00117730e+00
1.00112399e+00
1.00107015e+00
1.00101577e+00
1.00096085e+00
1.00090536e+00
1.00084929e+00
1.00079262e+00
1.00073535e+00
1.00067746e+00
1.00061893e+00
1.00055978e+00
1.00050000e+00
1.00043960e+00
1.00037860e+00
1.00031702e+00
1.00025489e+00
1.00019225e+00
1.00012916e+00
1.00006567e+00
1.00000184e+00
9.99937753e-01
9.99873485e-01
9.99809125e-01
9.99744763e-01
9.99680498e-01
9.99616431e-01
9.99552667e-01
9.99489312e-01
9.99426474e-01
9.99364259e-01
9.99302776e-01
9.99242131e-01
9.99182426e-01
9.99123764e-01
9.99066242e-01
9.99009955e-01
9.98954994e-01
9.98901447e-01
9.98849395e-01
9.98798917e-01
9.98750085e-01
9.98702969e-01
9.98657630e-01
9.98614125e-01
9.98572506e-01
9.98532815e-01
9.98495090e-01
9.98459360e-01
9.98425643e-01
9.98393951e-01
9.98364287e-01
9.98336639e-01
9.98310989e-01
9.98287306e-01
9.98265552e-01
9.98245669e-01
9.98227595e-01
9.98211268e-01
9.98196606e-01
9.98183495e-01
9.98171858e-01
9.98161661e-01
9.98152735e-01
9.98144873e-01
9.98138253e-01
9.98132992e-01
9.98128231e-01
9.98123804e-01
9.98121814e-01
9.98121374e-01
9.98114607e-01
9.98108752e-01
1.00227880e+00
1.00227891e+00
1.00227729e+00
1.00227999e+00
1.00228361e+00
1.00228758e+00
1.00229225e+00
1.00229767e+00
1.00230347e+00
1.00230951e+00
1.00231572e+00
1.00232193e+00
1.00232796e+00
1.00233363e+00
1.00233877e+00
1.00234320e+00
1.00234674e+00
1.00234921e+00
1.00235045e+00
1.00235031e+00
1.00234862e+00
1.00234527e+00
1.00234012e+00
1.00233307e+00
1.00232403e+00
1.00231293e+00
1.00229971e+00
1.00228433e+00
1.00226677e+00
1.00224702e+00
1.00222510e+00
1.00220102e+00
1.00217484e+00
1.00214661e+00
1.00211638e+00
1.00208424e+00
1.00205026e+00
1.00201454e+00
1.00197718e+00
1.00193827e+00
1.00189791e+00
1.00185620e+00
1.00181325e+00
1.00176914e+00
1.00172398e+00
1.00167784e+00
1.00163082e+00
1.00158297e+00
1.00153436e+00
1.00148506e+00
1.00143511e+00
1.00138455e+00
1.00133341e+00
1.00128172e+00
1.00122949e+00
1.00117672e+00
1.00112342e+00
1.00106960e+00
1.00101523e+00
1.00096031e+00
1.00090482e+00
1.00084876e+00
1.00079210e+00
1.00073483e+00
1.00067695e+00
1.00061844e+00
1.00055931e+00
1.00049956e+00
1.00043919e+00
1.00037823e+00
1.00031670e+00
1.00025463e+00
1.00019206e+00
1.00012904e+00
1.00006562e+00
1.00000188e+00
9.99937885e-01
9.99873713e-01
9.99809450e-01
9.99745189e-01
9.99681027e-01
9.99617062e-01
9.99553398e-01
9.99490141e-01
9.99427398e-01
9.99365274e-01
9.99303877e-01
9.99243312e-01
9.99183682e-01
9.99125088e-01
9.99067628e-01
9.99011397e-01
9.98956485e-01
9.98902981e-01
9.98850967e-01
9.98800521e-01
9.98751716e-01
9.98704623e-01
9.98659303e-01
9.98615814e-01
9.98574207e-01
9.98534527e-01
9.98496810e-01
9.98461085e-01
9.98427373e-01
9.98395685e-01
9.98366023e-01
9.98338379e-01
9.98312732e-01
9.98289053e-01
9.98267301e-01
9.98247425e-01
9.98229364e-01
9.98213047e-01
9.98198393e-01
9.98185316e-01
9.98173731e-01
9.98163541e-01
9.98154640e-01
9.98146946e-01
9.98140423e-01
9.98134953e-01
9.98130304e-01
9.98126536e-01
9.98123986e-01
9.98122139e-01
9.98117861e-01
9.98116567e-01
1.00227251e+00
1.00227558e+00
1.00228034e+00
1.00228118e+00
1.00228333e+00
1.00228818e+00
1.00229318e+00
1.00229812e+00
1.00230379e+00
1.00230992e+00
1.00231601e+00
1.00232203e+00
1.00232794e+00
1.00233349e+00
1.00233847e+00
1.00234274e+00
1.00234613e+00
1.00234845e+00
1.00234954e+00
1.00234925e+00
1.00234743e+00
1.00234394e+00
1.00233868e+00
1.00233152e+00
1.00232239e+00
1.00231121e+00
1.00229792e+00
1.00228248e+00
1.00226488e+00
1.00224511e+00
1.00222317e+00
1.00219910e+00
1.00217293e+00
1.00214471e+00
1.00211452e+00
1.00208241e+00
1.00204849e+00
1.00201282e+00
1.00197552e+00
1.00193667e+00
1.00189638e+00
1.00185474e+00
1.00181186e+00
1.00176783e+00
1.00172273e+00
1.00167666e+00
1.00162970e+00
1.00158191e+00
1.00153336e+00
1.00148411e+00
1.00143420e+00
1.00138368e+00
1.00133257e+00
1.00128091e+00
1.00122870e+00
1.00117595e+00
1.00112267e+00
1.00106885e+00
1.00101449e+00
1.00095958e+00
1.00090410e+00
1.00084805e+00
1.00079140e+00
1.00073415e+00
1.00067628e+00
1.00061780e+00
1.00055870e+00
1.00049898e+00
1.00043866e+00
1.00037775e+00
1.00031628e+00
1.00025427e+00
1.00019178e+00
1.00012884e+00
1.00006551e+00
1.00000187e+00
9.99937975e-01
9.99873909e-01
9.99809756e-01
9.99745607e-01
9.99681556e-01
9.99617703e-01
9.99554150e-01
9.99491001e-01
9.99428360e-01
9.99366335e-01
9.99305031e-01
9.99244552e-01
9.99185001e-01
9.99126478e-01
9.99069081e-01
9.99012905e-01
9.98958041e-01
9.98904577e-01
9.98852594e-01
9.98802173e-01
9.98753387e-01
9.98706305e-01
9.98660990e-01
9.98617502e-01
9.98575891e-01
9.98536202e-01
9.98498473e-01
9.98462733e-01
9.98429004e-01
9.98397297e-01
9.98367614e-01
9.98339948e-01
9.98314280e-01
9.98290580e-01
9.98268807e-01
9.98248915e-01
9.98230842e-01
9.98214512e-01
9.98199846e-01
9.98186783e-01
9.98175219e-01
9.98165006e-01
9.98156129e-01
9.98148597e-01
9.98142071e-01
9.98136328e-01
9.98132038e-01
9.98129097e-01
9.98125303e-01
9.98121812e-01
9.98123542e-01
9.98124994e-01
1.00227506e+00
1.00227720e+00
1.00228003e+00
1.00228215e+00
1.00228571e+00
1.00228977e+00
1.00229428e+00
1.00229949e+00
1.00230516e+00
1.00231099e+00
1.00231694e+00
1.00232289e+00
1.00232863e+00
1.00233398e+00
1.00233880e+00
1.00234290e+00
1.00234610e+00
1.00234824e+00
1.00234916e+00
1.00234870e+00
1.00234671e+00
1.00234308e+00
1.00233767e+00
1.00233038e+00
1.00232113e+00
1.00230985e+00
1.00229647e+00
1.00228096e+00
1.00226329e+00
1.00224347e+00
1.00222149e+00
1.00219740e+00
1.00217121e+00
1.00214300e+00
1.00211281e+00
1.00208073e+00
1.00204683e+00
1.00201120e+00
1.00197394e+00
1.00193513e+00
1.00189489e+00
1.00185331e+00
1.00181048e+00
1.00176649e+00
1.00172145e+00
1.00167543e+00
1.00162851e+00
1.00158077e+00
1.00153226e+00
1.00148304e+00
1.00143317e+00
1.00138268e+00
1.00133159e+00
1.00127995e+00
1.00122775e+00
1.00117501e+00
1.00112174e+00
1.00106793e+00
1.00101358e+00
1.00095867e+00
1.00090320e+00
1.00084715e+00
1.00079051e+00
1.00073327e+00
1.00067543e+00
1.00061697e+00
1.00055790e+00
1.00049822e+00
1.00043795e+00
1.00037709e+00
1.00031568e+00
1.00025375e+00
1.00019133e+00
1.00012849e+00
1.00006526e+00
1.00000172e+00
9.99937932e-01
9.99873980e-01
9.99809944e-01
9.99745916e-01
9.99681987e-01
9.99618256e-01
9.99554823e-01
9.99491792e-01
9.99429266e-01
9.99367351e-01
9.99306151e-01
9.99245769e-01
9.99186308e-01
9.99127867e-01
9.99070544e-01
9.99014433e-01
9.98959625e-01
9.98906208e-01
9.98854264e-01
9.98803872e-01
9.98755106e-01
9.98708036e-01
9.98662727e-01
9.98619235e-01
9.98577613e-01
9.98537907e-01
9.98500154e-01
9.98464385e-01
9.98430620e-01
9.98398874e-01
9.98369147e-01
9.98341434e-01
9.98315715e-01
9.98291964e-01
9.98270140e-01
9.98250194e-01
9.98232066e-01
9.98215691e-01
9.98200988e-01
9.98187868e-01
9.98176259e-01
9.98166071e-01
9.98157174e-01
9.98149503e-01
9.98143050e-01
9.98137605e-01
9.98132962e-01
9.98129424e-01
9.98126945e-01
9.98124551e-01
9.98124266e-01
9.98125035e-01
1.00227888e+00
1.00228006e+00
1.00228134e+00
1.00228491e+00
1.00228872e+00
1.00229199e+00
1.00229650e+00
1.00230188e+00
1.00230731e+00
1.00231288e+00
1.00231872e+00
1.00232452e+00
1.00233003e+00
1.00233517e+00
1.00233979e+00
1.00234367e+00
1.00234666e+00
1.00234858e+00
1.00234930e+00
1.00234863e+00
1.00234646e+00
1.00234264e+00
1.00233706e+00
1.00232961e+00
1.00232022e+00
1.00230880e+00
1.00229530e+00
1.00227969e+00
1.00226194e+00
1.00224204e+00
1.00222001e+00
1.00219587e+00
1.00216966e+00
1.00214142e+00
1.00211123e+00
1.00207915e+00
1.00204526e+00
1.00200965e+00
1.00197241e+00
1.00193364e+00
1.00189343e+00
1.00185189e+00
1.00180909e+00
1.00176515e+00
1.00172015e+00
1.00167417e+00
1.00162728e+00
1.00157957e+00
1.00153109e+00
1.00148190e+00
1.00143204e+00
1.00138156e+00
1.00133049e+00
1.00127885e+00
1.00122666e+00
1.00117392e+00
1.00112065e+00
1.00106683e+00
1.00101248e+00
1.00095756e+00
1.00090209e+00
1.00084604e+00
1.00078941e+00
1.00073218e+00
1.00067435e+00
1.00061591e+00
1.00055687e+00
1.00049723e+00
1.00043700e+00
1.00037621e+00
1.00031486e+00
1.00025301e+00
1.00019068e+00
1.00012793e+00
1.00006480e+00
1.00000137e+00
9.99937707e-01
9.99873880e-01
9.99809975e-01
9.99746080e-01
9.99682287e-01
9.99618693e-01
9.99555396e-01
9.99492498e-01
9.99430103e-01
9.99368313e-01
9.99307233e-01
9.99246963e-01
9.99187607e-01
9.99129262e-01
9.99072026e-01
9.99015992e-01
9.98961250e-01
9.98907888e-01
9.98855989e-01
9.98805631e-01
9.98756889e-01
9.98709832e-01
9.98664524e-01
9.98621024e-01
9.98579385e-01
9.98539651e-01
9.98501861e-01
9.98466045e-01
9.98432227e-01
9.98400418e-01
9.98370622e-01
9.98342833e-01
9.98317033e-01
9.98293195e-01
9.98271283e-01
9.98251246e-01
9.98233023e-01
9.98216555e-01
9.98201770e-01
9.98188561e-01
9.98176851e-01
9.98166608e-01
9.98157692e-01
9.98149884e-01
9.98143296e-01
9.98138051e-01
9.98133486e-01
9.98129280e-01
9.98126979e-01
9.98125989e-01
9.98124432e-01
9.98124183e-01
1.00228244e+00
1.00228394e+00
1.00228588e+00
1.00228860e+00
1.00229160e+00
1.00229555e+00
1.00230017e+00
1.00230496e+00
1.00231016e+00
1.00231574e+00
1.00232136e+00
1.00232684e+00
1.00233214e+00
1.00233708e+00
1.00234143e+00
1.00234506e+00
1.00234780e+00
1.00234948e+00
1.00234995e+00
1.00234905e+00
1.00234665e+00
1.00234262e+00
1.00233683e+00
1.00232920e+00
1.00231963e+00
1.00230805e+00
1.00229442e+00
1.00227868e+00
1.00226081e+00
1.00224082e+00
1.00221871e+00
1.00219451e+00
1.00216825e+00
1.00213997e+00
1.00210975e+00
1.00207766e+00
1.00204376e+00
1.00200816e+00
1.00197093e+00
1.00193218e+00
1.00189199e+00
1.00185047e+00
1.00180770e+00
1.00176379e+00
1.00171881e+00
1.00167285e+00
1.00162599e+00
1.00157830e+00
1.00152983e+00
1.00148065e+00
1.00143081e+00
1.00138033e+00
1.00132926e+00
1.00127761e+00
1.00122541e+00
1.00117267e+00
1.00111938e+00
1.00106555e+00
1.00101118e+00
1.00095625e+00
1.00090077e+00
1.00084471e+00
1.00078808e+00
1.00073085e+00
1.00067303e+00
1.00061462e+00
1.00055560e+00
1.00049600e+00
1.00043582e+00
1.00037508e+00
1.00031381e+00
1.00025203e+00
1.00018980e+00
1.00012715e+00
1.00006414e+00
1.00000083e+00
9.99937295e-01
9.99873606e-01
9.99809844e-01
9.99746097e-01
9.99682454e-01
9.99619011e-01
9.99555866e-01
9.99493118e-01
9.99430869e-01
9.99369221e-01
9.99308276e-01
9.99248134e-01
9.99188897e-01
9.99130662e-01
9.99073525e-01
9.99017578e-01
9.98962913e-01
9.98909615e-01
9.98857767e-01
9.98807447e-01
9.98758730e-01
9.98711686e-01
9.98666377e-01
9.98622864e-01
9.98581197e-01
9.98541424e-01
9.98503583e-01
9.98467705e-01
9.98433812e-01
9.98401919e-01
9.98372028e-01
9.98344135e-01
9.98318225e-01
9.98294268e-01
9.98272230e-01
9.98252065e-01
9.98233716e-01
9.98217110e-01
9.98202183e-01
9.98188867e-01
9.98177048e-01
9.98166623e-01
9.98157583e-01
9.98149832e-01
9.98143108e-01
9.98137414e-01
9.98132997e-01
9.98129396e-01
9.98126402e-01
9.98124652e-01
9.98123660e-01
9.98123675e-01
1.00228760e+00
1.00228888e+00
1.00229104e+00
1.00229317e+00
1.00229610e+00
1.00230015e+00
1.00230436e+00
1.00230890e+00
1.00231405e+00
1.00231939e+00
1.00232468e+00
1.00232993e+00
1.00233500e+00
1.00233964e+00
1.00234370e+00
1.00234705e+00
1.00234951e+00
1.00235091e+00
1.00235110e+00
1.00234994e+00
1.00234728e+00
1.00234301e+00
1.00233699e+00
1.00232914e+00
1.00231937e+00
1.00230761e+00
1.00229380e+00
1.00227791e+00
1.00225992e+00
1.00223981e+00
1.00221760e+00
1.00219331e+00
1.00216698e+00
1.00213865e+00
1.00210839e+00
1.00207626e+00
1.00204235e+00
1.00200673e+00
1.00196950e+00
1.00193074e+00
1.00189056e+00
1.00184905e+00
1.00180630e+00
1.00176239e+00
1.00171743e+00
1.00167148e+00
1.00162463e+00
1.00157694e+00
1.00152848e+00
1.00147930e+00
1.00142945e+00
1.00137897e+00
1.00132788e+00
1.00127622e+00
1.00122400e+00
1.00117123e+00
1.00111792e+00
1.00106407e+00
1.00100968e+00
1.00095473e+00
1.00089923e+00
1.00084316e+00
1.00078652e+00
1.00072929e+00
1.00067148e+00
1.00061308e+00
1.00055409e+00
1.00049453e+00
1.00043440e+00
1.00037372e+00
1.00031252e+00
1.00025083e+00
1.00018869e+00
1.00012615e+00
1.00006327e+00
1.00000009e+00
9.99936695e-01
9.99873155e-01
9.99809549e-01
9.99745962e-01
9.99682484e-01
9.99619208e-01
9.99556229e-01
9.99493646e-01
9.99431558e-01
9.99370066e-01
9.99309271e-01
9.99249272e-01
9.99190167e-01
9.99132054e-01
9.99075027e-01
9.99019179e-01
9.98964598e-01
9.98911371e-01
9.98859580e-01
9.98809302e-01
9.98760611e-01
9.98713578e-01
9.98668265e-01
9.98624732e-01
9.98583031e-01
9.98543208e-01
9.98505302e-01
9.98469345e-01
9.98435359e-01
9.98403360e-01
9.98373351e-01
9.98345328e-01
9.98319277e-01
9.98295172e-01
9.98272977e-01
9.98252647e-01
9.98234132e-01
9.98217363e-01
9.98202258e-01
9.98188761e-01
9.98176801e-01
9.98166234e-01
9.98156975e-01
9.98149064e-01
9.98142345e-01
9.98136486e-01
9.98131717e-01
9.98128229e-01
9.98125234e-01
9.98122976e-01
9.98122181e-01
9.98122000e-01
1.00229430e+00
1.00229510e+00
1.00229661e+00
1.00229888e+00
1.00230192e+00
1.00230534e+00
1.00230929e+00
1.00231390e+00
1.00231875e+00
1.00232367e+00
1.00232875e+00
1.00233377e+00
1.00233850e+00
1.00234281e+00
1.00234658e+00
1.00234962e+00
1.00235176e+00
1.00235285e+00
1.00235275e+00
1.00235129e+00
1.00234834e+00
1.00234379e+00
1.00233752e+00
1.00232943e+00
1.00231943e+00
1.00230747e+00
1.00229347e+00
1.00227740e+00
1.00225925e+00
1.00223901e+00
1.00221668e+00
1.00219229e+00
1.00216586e+00
1.00213746e+00
1.00210714e+00
1.00207496e+00
1.00204101e+00
1.00200536e+00
1.00196811e+00
1.00192934e+00
1.00188915e+00
1.00184764e+00
1.00180488e+00
1.00176097e+00
1.00171601e+00
1.00167006e+00
1.00162320e+00
1.00157551e+00
1.00152704e+00
1.00147784e+00
1.00142797e+00
1.00137747e+00
1.00132636e+00
1.00127467e+00
1.00122242e+00
1.00116962e+00
1.00111628e+00
1.00106240e+00
1.00100797e+00
1.00095300e+00
1.00089747e+00
1.00084139e+00
1.00078473e+00
1.00072750e+00
1.00066969e+00
1.00061131e+00
1.00055234e+00
1.00049282e+00
1.00043274e+00
1.00037212e+00
1.00031100e+00
1.00024940e+00
1.00018737e+00
1.00012494e+00
1.00006218e+00
9.99999147e-01
9.99935902e-01
9.99872522e-01
9.99809083e-01
9.99745670e-01
9.99682369e-01
9.99619272e-01
9.99556474e-01
9.99494070e-01
9.99432158e-01
9.99370837e-01
9.99310205e-01
9.99250362e-01
9.99191403e-01
9.99133425e-01
9.99076520e-01
9.99020780e-01
9.98966293e-01
9.98913145e-01
9.98861415e-01
9.98811183e-01
9.98762521e-01
9.98715499e-01
9.98670180e-01
9.98626623e-01
9.98584880e-01
9.98544997e-01
9.98507015e-01
9.98470964e-01
9.98436869e-01
9.98404744e-01
9.98374595e-01
9.98346418e-01
9.98320199e-01
9.98295917e-01
9.98273537e-01
9.98253011e-01
9.98234289e-01
9.98217318e-01
9.98202022e-01
9.98188304e-01
9.98176110e-01
9.98165390e-01
9.98155987e-01
9.98147773e-01
9.98140828e-01
9.98135048e-01
9.98130083e-01
9.98126088e-01
9.98123185e-01
9.98121035e-01
9.98119672e-01
9.98119113e-01
1.00230149e+00
1.00230209e+00
1.00230335e+00
1.00230553e+00
1.00230826e+00
1.00231140e+00
1.00231527e+00
1.00231957e+00
1.00232404e+00
1.00232875e+00
1.00233356e+00
1.00233821e+00
1.00234260e+00
1.00234660e+00
1.00235004e+00
1.00235272e+00
1.00235452e+00
1.00235528e+00
1.00235484e+00
1.00235306e+00
1.00234981e+00
1.00234496e+00
1.00233841e+00
1.00233005e+00
1.00231981e+00
1.00230761e+00
1.00229340e+00
1.00227714e+00
1.00225882e+00
1.00223842e+00
1.00221595e+00
1.00219143e+00
1.00216490e+00
1.00213641e+00
1.00210601e+00
1.00207377e+00
1.00203976e+00
1.00200407e+00
1.00196678e+00
1.00192799e+00
1.00188777e+00
1.00184623e+00
1.00180346e+00
1.00175954e+00
1.00171456e+00
1.00166859e+00
1.00162171e+00
1.00157400e+00
1.00152550e+00
1.00147628e+00
1.00142638e+00
1.00137585e+00
1.00132470e+00
1.00127297e+00
1.00122068e+00
1.00116784e+00
1.00111446e+00
1.00106053e+00
1.00100607e+00
1.00095106e+00
1.00089550e+00
1.00083939e+00
1.00078271e+00
1.00072547e+00
1.00066766e+00
1.00060929e+00
1.00055035e+00
1.00049086e+00
1.00043083e+00
1.00037028e+00
1.00030924e+00
1.00024773e+00
1.00018581e+00
1.00012350e+00
1.00006088e+00
9.99997994e-01
9.99934909e-01
9.99871698e-01
9.99808437e-01
9.99745209e-01
9.99682097e-01
9.99619193e-01
9.99556588e-01
9.99494376e-01
9.99432654e-01
9.99371517e-01
9.99311063e-01
9.99251388e-01
9.99192588e-01
9.99134755e-01
9.99077984e-01
9.99022362e-01
9.98967978e-01
9.98914914e-01
9.98863253e-01
9.98813070e-01
9.98764439e-01
9.98717427e-01
9.98672100e-01
9.98628514e-01
9.98586723e-01
9.98546772e-01
9.98508702e-01
9.98472544e-01
9.98438323e-01
9.98406054e-01
9.98375744e-01
9.98347391e-01
9.98320981e-01
9.98296493e-01
9.98273896e-01
9.98253149e-01
9.98234195e-01
9.98216977e-01
9.98201441e-01
9.98187504e-01
9.98175061e-01
9.98164066e-01
9.98154470e-01
9.98146096e-01
9.98138852e-01
9.98132826e-01
9.98127816e-01
9.98123590e-01
9.98120412e-01
9.98118208e-01
9.98116649e-01
9.98115898e-01
1.00230931e+00
1.00230985e+00
1.00231108e+00
1.00231288e+00
1.00231527e+00
1.00231837e+00
1.00232197e+00
1.00232584e+00
1.00233008e+00
1.00233454e+00
1.00233895e+00
1.00234324e+00
1.00234731e+00
1.00235096e+00
1.00235401e+00
1.00235633e+00
1.00235777e+00
1.00235817e+00
1.00235737e+00
1.00235525e+00
1.00235167e+00
1.00234650e+00
1.00233964e+00
1.00233100e+00
1.00232049e+00
1.00230804e+00
1.00229360e+00
1.00227713e+00
1.00225861e+00
1.00223804e+00
1.00221541e+00
1.00219076e+00
1.00216411e+00
1.00213550e+00
1.00210501e+00
1.00207269e+00
1.00203861e+00
1.00200287e+00
1.00196553e+00
1.00192669e+00
1.00188643e+00
1.00184486e+00
1.00180205e+00
1.00175810e+00
1.00171309e+00
1.00166709e+00
1.00162018e+00
1.00157243e+00
1.00152390e+00
1.00147464e+00
1.00142469e+00
1.00137411e+00
1.00132291e+00
1.00127114e+00
1.00121879e+00
1.00116590e+00
1.00111246e+00
1.00105848e+00
1.00100397e+00
1.00094891e+00
1.00089332e+00
1.00083717e+00
1.00078047e+00
1.00072321e+00
1.00066540e+00
1.00060704e+00
1.00054812e+00
1.00048866e+00
1.00042868e+00
1.00036820e+00
1.00030723e+00
1.00024583e+00
1.00018401e+00
1.00012184e+00
1.00005936e+00
9.99996626e-01
9.99933709e-01
9.99870676e-01
9.99807603e-01
9.99744570e-01
9.99681659e-01
9.99618960e-01
9.99556560e-01
9.99494554e-01
9.99433033e-01
9.99372094e-01
9.99311830e-01
9.99252336e-01
9.99193706e-01
9.99136032e-01
9.99079403e-01
9.99023910e-01
9.98969636e-01
9.98916666e-01
9.98865078e-01
9.98814950e-01
9.98766352e-01
9.98719352e-01
9.98674015e-01
9.98630397e-01
9.98588552e-01
9.98548526e-01
9.98510358e-01
9.98474081e-01
9.98439720e-01
9.98407291e-01
9.98376801e-01
9.98348250e-01
9.98321627e-01
9.98296911e-01
9.98274069e-01
9.98253067e-01
9.98233858e-01
9.98216374e-01
9.98200551e-01
9.98186341e-01
9.98173658e-01
9.98162382e-01
9.98152471e-01
9.98143898e-01
9.98136472e-01
9.98130096e-01
9.98124855e-01
9.98120594e-01
9.98117140e-01
9.98114611e-01
9.98113003e-01
9.98112199e-01
1.00231799e+00
1.00231832e+00
1.00231935e+00
1.00232093e+00
1.00232315e+00
1.00232598e+00
1.00232921e+00
1.00233284e+00
1.00233681e+00
1.00234087e+00
1.00234492e+00
1.00234888e+00
1.00235257e+00
1.00235581e+00
1.00235848e+00
1.00236042e+00
1.00236147e+00
1.00236148e+00
1.00236032e+00
1.00235783e+00
1.00235390e+00
1.00234839e+00
1.00234121e+00
1.00233227e+00
1.00232147e+00
1.00230875e+00
1.00229406e+00
1.00227736e+00
1.00225864e+00
1.00223787e+00
1.00221508e+00
1.00219027e+00
1.00216348e+00
1.00213476e+00
1.00210416e+00
1.00207174e+00
1.00203758e+00
1.00200176e+00
1.00196435e+00
1.00192545e+00
1.00188515e+00
1.00184352e+00
1.00180067e+00
1.00175667e+00
1.00171161e+00
1.00166557e+00
1.00161861e+00
1.00157081e+00
1.00152223e+00
1.00147291e+00
1.00142291e+00
1.00137227e+00
1.00132101e+00
1.00126917e+00
1.00121676e+00
1.00116380e+00
1.00111030e+00
1.00105626e+00
1.00100168e+00
1.00094658e+00
1.00089093e+00
1.00083474e+00
1.00077801e+00
1.00072073e+00
1.00066291e+00
1.00060455e+00
1.00054565e+00
1.00048622e+00
1.00042629e+00
1.00036587e+00
1.00030499e+00
1.00024368e+00
1.00018198e+00
1.00011994e+00
1.00005761e+00
9.99995036e-01
9.99932294e-01
9.99869447e-01
9.99806571e-01
9.99743742e-01
9.99681043e-01
9.99618558e-01
9.99556376e-01
9.99494586e-01
9.99433279e-01
9.99372549e-01
9.99312487e-01
9.99253186e-01
9.99194737e-01
9.99137231e-01
9.99080756e-01
9.99025399e-01
9.98971245e-01
9.98918374e-01
9.98866866e-01
9.98816794e-01
9.98768232e-01
9.98721245e-01
9.98675897e-01
9.98632245e-01
9.98590341e-01
9.98550232e-01
9.98511957e-01
9.98475549e-01
9.98441034e-01
9.98408430e-01
9.98377744e-01
9.98348975e-01
9.98322116e-01
9.98297149e-01
9.98274043e-01
9.98252759e-01
9.98233256e-01
9.98215484e-01
9.98199368e-01
9.98184839e-01
9.98171849e-01
9.98160311e-01
9.98150105e-01
9.98141198e-01
9.98133541e-01
9.98126960e-01
9.98121409e-01
9.98116915e-01
9.98113312e-01
9.98110585e-01
9.98108811e-01
9.98107832e-01
1.00232735e+00
1.00232747e+00
1.00232824e+00
1.00232966e+00
1.00233166e+00
1.00233414e+00
1.00233710e+00
1.00234048e+00
1.00234405e+00
1.00234773e+00
1.00235146e+00
1.00235504e+00
1.00235830e+00
1.00236115e+00
1.00236342e+00
1.00236495e+00
1.00236559e+00
1.00236521e+00
1.00236365e+00
1.00236078e+00
1.00235648e+00
1.00235062e+00
1.00234311e+00
1.00233384e+00
1.00232274e+00
1.00230974e+00
1.00229479e+00
1.00227785e+00
1.00225890e+00
1.00223793e+00
1.00221495e+00
1.00218997e+00
1.00216303e+00
1.00213418e+00
1.00210345e+00
1.00207093e+00
1.00203667e+00
1.00200076e+00
1.00196327e+00
1.00192430e+00
1.00188393e+00
1.00184224e+00
1.00179932e+00
1.00175527e+00
1.00171015e+00
1.00166404e+00
1.00161702e+00
1.00156916e+00
1.00152051e+00
1.00147112e+00
1.00142105e+00
1.00137033e+00
1.00131900e+00
1.00126708e+00
1.00121459e+00
1.00116155e+00
1.00110797e+00
1.00105386e+00
1.00099922e+00
1.00094405e+00
1.00088834e+00
1.00083211e+00
1.00077534e+00
1.00071803e+00
1.00066019e+00
1.00060183e+00
1.00054294e+00
1.00048355e+00
1.00042366e+00
1.00036331e+00
1.00030251e+00
1.00024130e+00
1.00017972e+00
1.00011781e+00
1.00005562e+00
9.99993219e-01
9.99930657e-01
9.99868004e-01
9.99805332e-01
9.99742716e-01
9.99680237e-01
9.99617977e-01
9.99556022e-01
9.99494459e-01
9.99433378e-01
9.99372868e-01
9.99313019e-01
9.99253921e-01
9.99195665e-01
9.99138338e-01
9.99082026e-01
9.99026815e-01
9.98972788e-01
9.98920024e-01
9.98868601e-01
9.98818592e-01
9.98770068e-01
9.98723096e-01
9.98677736e-01
9.98634047e-01
9.98592081e-01
9.98551883e-01
9.98513494e-01
9.98476947e-01
9.98442267e-01
9.98409473e-01
9.98378575e-01
9.98349573e-01
9.98322460e-01
9.98297218e-01
9.98273825e-01
9.98252243e-01
9.98232424e-01
9.98214324e-01
9.98197891e-01
9.98183041e-01
9.98169704e-01
9.98157839e-01
9.98147352e-01
9.98138126e-01
9.98130134e-01
9.98123324e-01
9.98117536e-01
9.98112736e-01
9.98108938e-01
9.98106064e-01
9.98104064e-01
9.98102911e-01
1.00233720e+00
1.00233716e+00
1.00233775e+00
1.00233894e+00
1.00234066e+00
1.00234288e+00
1.00234557e+00
1.00234858e+00
1.00235179e+00
1.00235514e+00
1.00235848e+00
1.00236163e+00
1.00236450e+00
1.00236694e+00
1.00236878e+00
1.00236988e+00
1.00237011e+00
1.00236931e+00
1.00236735e+00
1.00236408e+00
1.00235940e+00
1.00235317e+00
1.00234531e+00
1.00233571e+00
1.00232429e+00
1.00231100e+00
1.00229577e+00
1.00227858e+00
1.00225940e+00
1.00223821e+00
1.00221503e+00
1.00218988e+00
1.00216277e+00
1.00213377e+00
1.00210291e+00
1.00207027e+00
1.00203590e+00
1.00199989e+00
1.00196231e+00
1.00192325e+00
1.00188279e+00
1.00184102e+00
1.00179803e+00
1.00175390e+00
1.00170870e+00
1.00166252e+00
1.00161543e+00
1.00156748e+00
1.00151875e+00
1.00146928e+00
1.00141912e+00
1.00136831e+00
1.00131689e+00
1.00126488e+00
1.00121230e+00
1.00115917e+00
1.00110550e+00
1.00105131e+00
1.00099658e+00
1.00094134e+00
1.00088556e+00
1.00082927e+00
1.00077245e+00
1.00071511e+00
1.00065725e+00
1.00059888e+00
1.00054000e+00
1.00048063e+00
1.00042079e+00
1.00036050e+00
1.00029978e+00
1.00023867e+00
1.00017720e+00
1.00011543e+00
1.00005340e+00
9.99991168e-01
9.99928792e-01
9.99866337e-01
9.99803876e-01
9.99741480e-01
9.99679229e-01
9.99617203e-01
9.99555484e-01
9.99494158e-01
9.99433311e-01
9.99373031e-01
9.99313406e-01
9.99254522e-01
9.99196467e-01
9.99139328e-01
9.99083188e-01
9.99028132e-01
9.98974239e-01
9.98921588e-01
9.98870255e-01
9.98820313e-01
9.98771830e-01
9.98724873e-01
9.98679503e-01
9.98635775e-01
9.98593743e-01
9.98553451e-01
9.98514941e-01
9.98478245e-01
9.98443390e-01
9.98410394e-01
9.98379269e-01
9.98350018e-01
9.98322635e-01
9.98297103e-01
9.98273399e-01
9.98251495e-01
9.98231346e-01
9.98212900e-01
9.98196108e-01
9.98180916e-01
9.98167240e-01
9.98155008e-01
9.98144178e-01
9.98134657e-01
9.98126344e-01
9.98119207e-01
9.98113173e-01
9.98108137e-01
9.98104087e-01
9.98101008e-01
9.98098847e-01
9.98097561e-01
1.00234754e+00
1.00234735e+00
1.00234777e+00
1.00234870e+00
1.00235016e+00
1.00235212e+00
1.00235448e+00
1.00235713e+00
1.00236001e+00
1.00236299e+00
1.00236590e+00
1.00236865e+00
1.00237111e+00
1.00237311e+00
1.00237451e+00
1.00237519e+00
1.00237499e+00
1.00237376e+00
1.00237138e+00
1.00236771e+00
1.00236263e+00
1.00235603e+00
1.00234780e+00
1.00233786e+00
1.00232612e+00
1.00231252e+00
1.00229701e+00
1.00227955e+00
1.00226013e+00
1.00223872e+00
1.00221533e+00
1.00218998e+00
1.00216271e+00
1.00213354e+00
1.00210254e+00
1.00206976e+00
1.00203527e+00
1.00199914e+00
1.00196146e+00
1.00192230e+00
1.00188175e+00
1.00183989e+00
1.00179680e+00
1.00175258e+00
1.00170729e+00
1.00166102e+00
1.00161383e+00
1.00156579e+00
1.00151696e+00
1.00146739e+00
1.00141713e+00
1.00136622e+00
1.00131469e+00
1.00126258e+00
1.00120989e+00
1.00115666e+00
1.00110289e+00
1.00104860e+00
1.00099378e+00
1.00093845e+00
1.00088260e+00
1.00082624e+00
1.00076936e+00
1.00071198e+00
1.00065409e+00
1.00059571e+00
1.00053683e+00
1.00047749e+00
1.00041768e+00
1.00035745e+00
1.00029681e+00
1.00023579e+00
1.00017445e+00
1.00011281e+00
1.00005094e+00
9.99988878e-01
9.99926691e-01
9.99864440e-01
9.99802194e-01
9.99740026e-01
9.99678010e-01
9.99616224e-01
9.99554750e-01
9.99493670e-01
9.99433067e-01
9.99373027e-01
9.99313634e-01
9.99254974e-01
9.99197131e-01
9.99140189e-01
9.99084231e-01
9.99029337e-01
9.98975586e-01
9.98923055e-01
9.98871819e-01
9.98821948e-01
9.98773511e-01
9.98726572e-01
9.98681192e-01
9.98637426e-01
9.98595325e-01
9.98554937e-01
9.98516300e-01
9.98479448e-01
9.98444410e-01
9.98411203e-01
9.98379841e-01
9.98350327e-01
9.98322658e-01
9.98296820e-01
9.98272792e-01
9.98250543e-01
9.98230041e-01
9.98211237e-01
9.98194073e-01
9.98178499e-01
9.98164461e-01
9.98151871e-01
9.98140665e-01
9.98130799e-01
9.98122179e-01
9.98114717e-01
9.98108381e-01
9.98103107e-01
9.98098818e-01
9.98095511e-01
9.98093183e-01
9.98091764e-01
1.00235833e+00
1.00235796e+00
1.00235816e+00
1.00235888e+00
1.00236009e+00
1.00236175e+00
1.00236378e+00
1.00236611e+00
1.00236862e+00
1.00237119e+00
1.00237370e+00
1.00237604e+00
1.00237806e+00
1.00237962e+00
1.00238059e+00
1.00238083e+00
1.00238018e+00
1.00237852e+00
1.00237571e+00
1.00237163e+00
1.00236615e+00
1.00235916e+00
1.00235057e+00
1.00234027e+00
1.00232820e+00
1.00231430e+00
1.00229850e+00
1.00228077e+00
1.00226109e+00
1.00223944e+00
1.00221584e+00
1.00219030e+00
1.00216284e+00
1.00213350e+00
1.00210235e+00
1.00206942e+00
1.00203480e+00
1.00199855e+00
1.00196074e+00
1.00192147e+00
1.00188080e+00
1.00183884e+00
1.00179565e+00
1.00175132e+00
1.00170593e+00
1.00165955e+00
1.00161225e+00
1.00156410e+00
1.00151516e+00
1.00146548e+00
1.00141510e+00
1.00136407e+00
1.00131242e+00
1.00126019e+00
1.00120738e+00
1.00115403e+00
1.00110015e+00
1.00104575e+00
1.00099083e+00
1.00093540e+00
1.00087946e+00
1.00082302e+00
1.00076608e+00
1.00070864e+00
1.00065072e+00
1.00059231e+00
1.00053343e+00
1.00047410e+00
1.00041433e+00
1.00035415e+00
1.00029359e+00
1.00023267e+00
1.00017145e+00
1.00010995e+00
1.00004823e+00
9.99986343e-01
9.99924347e-01
9.99862304e-01
9.99800279e-01
9.99738342e-01
9.99676567e-01
9.99615030e-01
9.99553807e-01
9.99492981e-01
9.99432630e-01
9.99372838e-01
9.99313686e-01
9.99255258e-01
9.99197635e-01
9.99140899e-01
9.99085129e-01
9.99030405e-01
9.98976804e-01
9.98924400e-01
9.98873265e-01
9.98823470e-01
9.98775082e-01
9.98728163e-01
9.98682774e-01
9.98638968e-01
9.98596799e-01
9.98556310e-01
9.98517542e-01
9.98480529e-01
9.98445299e-01
9.98411872e-01
9.98380263e-01
9.98350475e-01
9.98322507e-01
9.98296348e-01
9.98271981e-01
9.98249377e-01
9.98228500e-01
9.98209316e-01
9.98191771e-01
9.98175805e-01
9.98161369e-01
9.98148406e-01
9.98136833e-01
9.98126590e-01
9.98117627e-01
9.98109859e-01
9.98103216e-01
9.98097660e-01
9.98093140e-01
9.98089628e-01
9.98087114e-01
9.98085543e-01
1.00236944e+00
1.00236890e+00
1.00236890e+00
1.00236939e+00
1.00237035e+00
1.00237171e+00
1.00237342e+00
1.00237541e+00
1.00237754e+00
1.00237971e+00
1.00238183e+00
1.00238374e+00
1.00238531e+00
1.00238643e+00
1.00238696e+00
1.00238674e+00
1.00238565e+00
1.00238355e+00
1.00238032e+00
1.00237581e+00
1.00236993e+00
1.00236255e+00
1.00235358e+00
1.00234294e+00
1.00233053e+00
1.00231631e+00
1.00230021e+00
1.00228220e+00
1.00226227e+00
1.00224038e+00
1.00221656e+00
1.00219081e+00
1.00216316e+00
1.00213365e+00
1.00210233e+00
1.00206925e+00
1.00203448e+00
1.00199809e+00
1.00196016e+00
1.00192076e+00
1.00187997e+00
1.00183789e+00
1.00179458e+00
1.00175013e+00
1.00170462e+00
1.00165812e+00
1.00161070e+00
1.00156242e+00
1.00151335e+00
1.00146354e+00
1.00141303e+00
1.00136187e+00
1.00131008e+00
1.00125771e+00
1.00120478e+00
1.00115130e+00
1.00109729e+00
1.00104276e+00
1.00098772e+00
1.00093218e+00
1.00087614e+00
1.00081962e+00
1.00076260e+00
1.00070510e+00
1.00064713e+00