# vtk DataFile Version 2.0
LBM Flow Field - Timestep 540
ASCII
DATASET STRUCTURED_POINTS
DIMENSIONS 128 128 1
ORIGIN 0.0 0.0 0.0
SPACING 1.0 1.0 1.0
POINT_DATA 16384
SCALARS density double 1
LOOKUP_TABLE default
9.96429341e-01
9.96423527e-01
9.96417589e-01
9.96418610e-01
9.96421786e-01
9.96425857e-01
9.96432179e-01
9.96441403e-01
9.96453587e-01
9.96469690e-01
9.96491275e-01
9.96519652e-01
9.96556295e-01
9.96603125e-01
9.96662107e-01
9.96734997e-01
9.96823463e-01
9.96928922e-01
9.97052247e-01
9.97193669e-01
9.97352748e-01
9.97528269e-01
9.97718221e-01
9.97919886e-01
9.98129953e-01
9.98344677e-01
9.98560070e-01
9.98772123e-01
9.98977018e-01
9.99171315e-01
9.99352115e-01
9.99517174e-01
9.99664960e-01
9.99794669e-01
9.99906185e-01
1.00000000e+00
1.00007711e+00
1.00013890e+00
1.00018699e+00
1.00022315e+00
1.00024916e+00
1.00026674e+00
1.00027748e+00
1.00028281e+00
1.00028394e+00
1.00028191e+00
1.00027753e+00
1.00027148e+00
1.00026425e+00
1.00025622e+00
1.00024767e+00
1.00023879e+00
1.00022971e+00
1.00022053e+00
1.00021129e+00
1.00020204e+00
1.00019280e+00
1.00018359e+00
1.00017441e+00
1.00016526e+00
1.00015615e+00
1.00014709e+00
1.00013807e+00
1.00012909e+00
1.00012016e+00
1.00011127e+00
1.00010242e+00
1.00009362e+00
1.00008485e+00
1.00007613e+00
1.00006745e+00
1.00005881e+00
1.00005021e+00
1.00004165e+00
1.00003313e+00
1.00002465e+00
1.00001624e+00
1.00000791e+00
9.99999708e-01
9.99991692e-01
9.99983969e-01
9.99976695e-01
9.99970097e-01
9.99964494e-01
9.99960319e-01
9.99958149e-01
9.99958723e-01
9.99962968e-01
9.99972012e-01
9.99987185e-01
1.00001001e+00
1.00004218e+00
1.00008548e+00
1.00014174e+00
1.00021271e+00
1.00029995e+00
1.00040466e+00
1.00052760e+00
1.00066888e+00
1.00082793e+00
1.00100339e+00
1.00119312e+00
1.00139425e+00
1.00160336e+00
1.00181657e+00
1.00202987e+00
1.00223930e+00
1.00244124e+00
1.00263256e+00
1.00281084e+00
1.00297442e+00
1.00312235e+00
1.00325441e+00
1.00337107e+00
1.00347314e+00
1.00356163e+00
1.00363792e+00
1.00370354e+00
1.00375947e+00
1.00380657e+00
1.00384650e+00
1.00388029e+00
1.00390687e+00
1.00392695e+00
1.00394421e+00
1.00395600e+00
1.00394887e+00
1.00393964e+00
9.96425200e-01
9.96423425e-01
9.96421101e-01
9.96422678e-01
9.96425655e-01
9.96430332e-01
9.96437358e-01
9.96447149e-01
9.96460231e-01
9.96477492e-01
9.96500263e-01
9.96529865e-01
9.96567822e-01
9.96615853e-01
9.96675773e-01
9.96749283e-01
9.96837939e-01
9.96943003e-01
9.97065288e-01
9.97205025e-01
9.97361779e-01
9.97534398e-01
9.97721002e-01
9.97919034e-01
9.98125365e-01
9.98336441e-01
9.98548464e-01
9.98757593e-01
9.98960137e-01
9.99152744e-01
9.99332555e-01
9.99497315e-01
9.99645443e-01
9.99776048e-01
9.99888903e-01
9.99984378e-01
1.00006335e+00
1.00012707e+00
1.00017708e+00
1.00021505e+00
1.00024272e+00
1.00026176e+00
1.00027376e+00
1.00028012e+00
1.00028209e+00
1.00028071e+00
1.00027683e+00
1.00027114e+00
1.00026418e+00
1.00025633e+00
1.00024790e+00
1.00023909e+00
1.00023005e+00
1.00022088e+00
1.00021164e+00
1.00020238e+00
1.00019312e+00
1.00018389e+00
1.00017468e+00
1.00016550e+00
1.00015637e+00
1.00014728e+00
1.00013822e+00
1.00012922e+00
1.00012025e+00
1.00011133e+00
1.00010245e+00
1.00009361e+00
1.00008481e+00
1.00007606e+00
1.00006734e+00
1.00005867e+00
1.00005003e+00
1.00004144e+00
1.00003289e+00
1.00002440e+00
1.00001597e+00
1.00000764e+00
9.99999460e-01
9.99991493e-01
9.99983859e-01
9.99976729e-01
9.99970349e-01
9.99965057e-01
9.99961312e-01
9.99959713e-01
9.99961027e-01
9.99966200e-01
9.99976376e-01
9.99992892e-01
1.00001726e+00
1.00005115e+00
1.00009630e+00
1.00015447e+00
1.00022730e+00
1.00031625e+00
1.00042238e+00
1.00054631e+00
1.00068804e+00
1.00084688e+00
1.00102141e+00
1.00120946e+00
1.00140822e+00
1.00161436e+00
1.00182417e+00
1.00203382e+00
1.00223959e+00
1.00243806e+00
1.00262631e+00
1.00280204e+00
1.00296367e+00
1.00311030e+00
1.00324169e+00
1.00335818e+00
1.00346047e+00
1.00354958e+00
1.00362671e+00
1.00369311e+00
1.00374988e+00
1.00379806e+00
1.00383875e+00
1.00387278e+00
1.00390014e+00
1.00392153e+00
1.00393769e+00
1.00394898e+00
1.00394846e+00
1.00394814e+00
9.96420544e-01
9.96422344e-01
9.96425508e-01
9.96426674e-01
9.96429342e-01
9.96435352e-01
9.96443442e-01
9.96453821e-01
9.96467946e-01
9.96486714e-01
9.96510852e-01
9.96541767e-01
9.96581157e-01
9.96630503e-01
9.96691367e-01
9.96765438e-01
9.96854184e-01
9.96958698e-01
9.97079724e-01
9.97217510e-01
9.97371648e-01
9.97541058e-01
9.97724002e-01
9.97918102e-01
9.98120423e-01
9.98327614e-01
9.98536077e-01
9.98742136e-01
9.98942232e-01
9.99133098e-01
9.99311908e-01
9.99476394e-01
9.99624914e-01
9.99756484e-01
9.99870760e-01
9.99967984e-01
1.00004890e+00
1.00011465e+00
1.00016666e+00
1.00020653e+00
1.00023592e+00
1.00025649e+00
1.00026979e+00
1.00027723e+00
1.00028008e+00
1.00027939e+00
1.00027604e+00
1.00027075e+00
1.00026406e+00
1.00025641e+00
1.00024811e+00
1.00023938e+00
1.00023039e+00
1.00022124e+00
1.00021201e+00
1.00020274e+00
1.00019347e+00
1.00018421e+00
1.00017497e+00
1.00016577e+00
1.00015661e+00
1.00014748e+00
1.00013840e+00
1.00012936e+00
1.00012036e+00
1.00011140e+00
1.00010249e+00
1.00009361e+00
1.00008478e+00
1.00007599e+00
1.00006724e+00
1.00005853e+00
1.00004986e+00
1.00004124e+00
1.00003267e+00
1.00002416e+00
1.00001572e+00
1.00000740e+00
9.99999247e-01
9.99991342e-01
9.99983815e-01
9.99976851e-01
9.99970713e-01
9.99965762e-01
9.99962481e-01
9.99961493e-01
9.99963588e-01
9.99969736e-01
9.99981095e-01
9.99999007e-01
1.00002498e+00
1.00006064e+00
1.00010770e+00
1.00016782e+00
1.00024256e+00
1.00033325e+00
1.00044083e+00
1.00056577e+00
1.00070794e+00
1.00086654e+00
1.00104008e+00
1.00122638e+00
1.00142267e+00
1.00162571e+00
1.00183195e+00
1.00203777e+00
1.00223966e+00
1.00243442e+00
1.00261934e+00
1.00279227e+00
1.00295170e+00
1.00309682e+00
1.00322738e+00
1.00334355e+00
1.00344599e+00
1.00353574e+00
1.00361376e+00
1.00368096e+00
1.00373874e+00
1.00378837e+00
1.00382993e+00
1.00386403e+00
1.00389292e+00
1.00391670e+00
1.00393130e+00
1.00394007e+00
1.00395155e+00
1.00395755e+00
9.96420123e-01
9.96421925e-01
9.96425494e-01
9.96428665e-01
9.96433265e-01
9.96439633e-01
9.96448403e-01
9.96460317e-01
9.96475924e-01
9.96496089e-01
9.96521963e-01
9.96554820e-01
9.96596015e-01
9.96647039e-01
9.96709416e-01
9.96784585e-01
9.96873826e-01
9.96978168e-01
9.97098262e-01
9.97234268e-01
9.97385799e-01
9.97551867e-01
9.97730859e-01
9.97920575e-01
9.98118303e-01
9.98320930e-01
9.98525084e-01
9.98727302e-01
9.98924198e-01
9.99112625e-01
9.99289825e-01
9.99453535e-01
9.99602071e-01
9.99734361e-01
9.99849939e-01
9.99948906e-01
1.00003186e+00
1.00009980e+00
1.00015403e+00
1.00019605e+00
1.00022744e+00
1.00024979e+00
1.00026465e+00
1.00027341e+00
1.00027733e+00
1.00027750e+00
1.00027482e+00
1.00027003e+00
1.00026372e+00
1.00025633e+00
1.00024821e+00
1.00023960e+00
1.00023068e+00
1.00022157e+00
1.00021235e+00
1.00020309e+00
1.00019380e+00
1.00018453e+00
1.00017527e+00
1.00016604e+00
1.00015685e+00
1.00014770e+00
1.00013858e+00
1.00012951e+00
1.00012048e+00
1.00011149e+00
1.00010254e+00
1.00009363e+00
1.00008477e+00
1.00007594e+00
1.00006716e+00
1.00005841e+00
1.00004971e+00
1.00004106e+00
1.00003247e+00
1.00002395e+00
1.00001552e+00
1.00000722e+00
9.99999124e-01
9.99991317e-01
9.99983944e-01
9.99977210e-01
9.99971398e-01
9.99966894e-01
9.99964207e-01
9.99963989e-01
9.99967054e-01
9.99974393e-01
9.99987175e-01
1.00000674e+00
1.00003457e+00
1.00007227e+00
1.00012145e+00
1.00018370e+00
1.00026045e+00
1.00035288e+00
1.00046179e+00
1.00058749e+00
1.00072970e+00
1.00088755e+00
1.00105947e+00
1.00124331e+00
1.00143636e+00
1.00163555e+00
1.00183752e+00
1.00203890e+00
1.00223643e+00
1.00242716e+00
1.00260857e+00
1.00277868e+00
1.00293607e+00
1.00307990e+00
1.00320986e+00
1.00332614e+00
1.00342920e+00
1.00351983e+00
1.00359899e+00
1.00366770e+00
1.00372685e+00
1.00377745e+00
1.00382050e+00
1.00385650e+00
1.00388570e+00
1.00390916e+00
1.00392740e+00
1.00393966e+00
1.00394993e+00
1.00395473e+00
9.96419801e-01
9.96421872e-01
9.96424936e-01
9.96429860e-01
9.96435985e-01
9.96443120e-01
9.96453207e-01
9.96466894e-01
9.96484275e-01
9.96506360e-01
9.96534533e-01
9.96569846e-01
9.96613421e-01
9.96666723e-01
9.96731155e-01
9.96807890e-01
9.96898017e-01
9.97002449e-01
9.97121700e-01
9.97255848e-01
9.97404522e-01
9.97566818e-01
9.97741269e-01
9.97925885e-01
9.98118212e-01
9.98315415e-01
9.98514397e-01
9.98711948e-01
9.98904892e-01
9.99090236e-01
9.99265307e-01
9.99427864e-01
9.99576182e-01
9.99709090e-01
9.99825989e-01
9.99926820e-01
1.00001201e+00
1.00008240e+00
1.00013914e+00
1.00018361e+00
1.00021729e+00
1.00024171e+00
1.00025838e+00
1.00026868e+00
1.00027387e+00
1.00027506e+00
1.00027318e+00
1.00026901e+00
1.00026315e+00
1.00025608e+00
1.00024819e+00
1.00023973e+00
1.00023091e+00
1.00022186e+00
1.00021267e+00
1.00020342e+00
1.00019413e+00
1.00018484e+00
1.00017557e+00
1.00016632e+00
1.00015710e+00
1.00014792e+00
1.00013878e+00
1.00012968e+00
1.00012061e+00
1.00011159e+00
1.00010261e+00
1.00009367e+00
1.00008477e+00
1.00007591e+00
1.00006710e+00
1.00005833e+00
1.00004960e+00
1.00004093e+00
1.00003232e+00
1.00002380e+00
1.00001539e+00
1.00000714e+00
9.99999125e-01
9.99991452e-01
9.99984280e-01
9.99977837e-01
9.99972430e-01
9.99968472e-01
9.99966503e-01
9.99967205e-01
9.99971420e-01
9.99980159e-01
9.99994602e-01
1.00001608e+00
1.00004606e+00
1.00008607e+00
1.00013765e+00
1.00020228e+00
1.00028124e+00
1.00037553e+00
1.00048579e+00
1.00061215e+00
1.00075418e+00
1.00091090e+00
1.00108069e+00
1.00126142e+00
1.00145050e+00
1.00164503e+00
1.00184190e+00
1.00203803e+00
1.00223047e+00
1.00241655e+00
1.00259396e+00
1.00276092e+00
1.00291611e+00
1.00305866e+00
1.00318820e+00
1.00330483e+00
1.00340888e+00
1.00350085e+00
1.00358159e+00
1.00365217e+00
1.00371325e+00
1.00376537e+00
1.00380993e+00
1.00384798e+00
1.00387872e+00
1.00390236e+00
1.00392261e+00
1.00393832e+00
1.00394673e+00
1.00395130e+00
9.96418894e-01
9.96421434e-01
9.96425489e-01
9.96430874e-01
9.96437718e-01
9.96446816e-01
9.96458730e-01
9.96473921e-01
9.96493443e-01
9.96518184e-01
9.96548982e-01
9.96586983e-01
9.96633449e-01
9.96689521e-01
9.96756297e-01
9.96834871e-01
9.96926164e-01
9.97030824e-01
9.97149227e-01
9.97281418e-01
9.97427015e-01
9.97585177e-01
9.97754605e-01
9.97933546e-01
9.98119820e-01
9.98310895e-01
9.98503985e-01
9.98696167e-01
9.98884504e-01
9.99066182e-01
9.99238638e-01
9.99399667e-01
9.99547504e-01
9.99680887e-01
9.99799073e-01
9.99901830e-01
9.99989403e-01
1.00006244e+00
1.00012194e+00
1.00016913e+00
1.00020538e+00
1.00023215e+00
1.00025088e+00
1.00026295e+00
1.00026962e+00
1.00027200e+00
1.00027107e+00
1.00026762e+00
1.00026230e+00
1.00025564e+00
1.00024803e+00
1.00023977e+00
1.00023107e+00
1.00022210e+00
1.00021296e+00
1.00020372e+00
1.00019444e+00
1.00018515e+00
1.00017586e+00
1.00016659e+00
1.00015735e+00
1.00014815e+00
1.00013898e+00
1.00012985e+00
1.00012076e+00
1.00011171e+00
1.00010270e+00
1.00009373e+00
1.00008480e+00
1.00007592e+00
1.00006708e+00
1.00005828e+00
1.00004954e+00
1.00004086e+00
1.00003225e+00
1.00002374e+00
1.00001537e+00
1.00000719e+00
9.99999292e-01
9.99991795e-01
9.99984880e-01
9.99978796e-01
9.99973880e-01
9.99970576e-01
9.99969456e-01
9.99971234e-01
9.99976780e-01
9.99987128e-01
1.00000346e+00
1.00002711e+00
1.00005948e+00
1.00010206e+00
1.00015627e+00
1.00022346e+00
1.00030475e+00
1.00040096e+00
1.00051253e+00
1.00063939e+00
1.00078097e+00
1.00093617e+00
1.00110335e+00
1.00128041e+00
1.00146490e+00
1.00165411e+00
1.00184525e+00
1.00203552e+00
1.00222231e+00
1.00240326e+00
1.00257633e+00
1.00273988e+00
1.00289268e+00
1.00303391e+00
1.00316313e+00
1.00328018e+00
1.00338531e+00
1.00347898e+00
1.00356171e+00
1.00363416e+00
1.00369729e+00
1.00375190e+00
1.00379834e+00
1.00383736e+00
1.00387022e+00
1.00389675e+00
1.00391716e+00
1.00393283e+00
1.00394329e+00
1.00394915e+00
9.96418771e-01
9.96421481e-01
9.96426145e-01
9.96432061e-01
9.96440007e-01
9.96450853e-01
9.96464556e-01
9.96481828e-01
9.96503865e-01
9.96531393e-01
9.96565181e-01
9.96606367e-01
9.96656069e-01
9.96715194e-01
9.96784665e-01
9.96865380e-01
9.96958006e-01
9.97062985e-01
9.97180561e-01
9.97310693e-01
9.97452978e-01
9.97606664e-01
9.97770629e-01
9.97943357e-01
9.98122968e-01
9.98307263e-01
9.98493796e-01
9.98679955e-01
9.98863072e-01
9.99040540e-01
9.99209923e-01
9.99369064e-01
9.99516171e-01
9.99649885e-01
9.99769315e-01
9.99874048e-01
9.99964127e-01
1.00004001e+00
1.00010249e+00
1.00015265e+00
1.00019174e+00
1.00022111e+00
1.00024216e+00
1.00025622e+00
1.00026456e+00
1.00026831e+00
1.00026846e+00
1.00026585e+00
1.00026118e+00
1.00025499e+00
1.00024772e+00
1.00023969e+00
1.00023115e+00
1.00022229e+00
1.00021321e+00
1.00020400e+00
1.00019474e+00
1.00018544e+00
1.00017615e+00
1.00016686e+00
1.00015761e+00
1.00014838e+00
1.00013919e+00
1.00013004e+00
1.00012092e+00
1.00011184e+00
1.00010281e+00
1.00009381e+00
1.00008486e+00
1.00007595e+00
1.00006709e+00
1.00005828e+00
1.00004953e+00
1.00004085e+00
1.00003226e+00
1.00002379e+00
1.00001547e+00
1.00000739e+00
9.99999644e-01
9.99992366e-01
9.99985762e-01
9.99980105e-01
9.99975764e-01
9.99973217e-01
9.99973069e-01
9.99976068e-01
9.99983116e-01
9.99995263e-01
1.00001370e+00
1.00003973e+00
1.00007473e+00
1.00012009e+00
1.00017713e+00
1.00024704e+00
1.00033077e+00
1.00042893e+00
1.00054175e+00
1.00066897e+00
1.00080986e+00
1.00096320e+00
1.00112732e+00
1.00130021e+00
1.00147954e+00
1.00166287e+00
1.00184768e+00
1.00203155e+00
1.00221220e+00
1.00238760e+00
1.00255598e+00
1.00271588e+00
1.00286615e+00
1.00300598e+00
1.00313486e+00
1.00325250e+00
1.00335889e+00
1.00345434e+00
1.00353928e+00
1.00361407e+00
1.00367943e+00
1.00373633e+00
1.00378513e+00
1.00382603e+00
1.00386038e+00
1.00388898e+00
1.00391072e+00
1.00392667e+00
1.00393837e+00
1.00394458e+00
9.96419044e-01
9.96421625e-01
9.96426577e-01
9.96433698e-01
9.96443093e-01
9.96455213e-01
9.96470865e-01
9.96490816e-01
9.96515568e-01
9.96545998e-01
9.96583189e-01
9.96627973e-01
9.96681137e-01
9.96743574e-01
9.96816053e-01
9.96899115e-01
9.96993184e-01
9.97098563e-01
9.97215322e-01
9.97343288e-01
9.97482066e-01
9.97631002e-01
9.97789135e-01
9.97955198e-01
9.98127631e-01
9.98304589e-01
9.98483979e-01
9.98663528e-01
9.98840864e-01
9.99013606e-01
9.99179465e-01
9.99336348e-01
9.99482446e-01
9.99616309e-01
9.99736897e-01
9.99843608e-01
9.99936275e-01
1.00001514e+00
1.00008080e+00
1.00013416e+00
1.00017633e+00
1.00020855e+00
1.00023215e+00
1.00024843e+00
1.00025865e+00
1.00026394e+00
1.00026533e+00
1.00026369e+00
1.00025975e+00
1.00025411e+00
1.00024724e+00
1.00023950e+00
1.00023115e+00
1.00022241e+00
1.00021341e+00
1.00020426e+00
1.00019501e+00
1.00018572e+00
1.00017642e+00
1.00016713e+00
1.00015786e+00
1.00014861e+00
1.00013940e+00
1.00013022e+00
1.00012109e+00
1.00011199e+00
1.00010293e+00
1.00009392e+00
1.00008495e+00
1.00007602e+00
1.00006715e+00
1.00005834e+00
1.00004959e+00
1.00004092e+00
1.00003236e+00
1.00002394e+00
1.00001571e+00
1.00000776e+00
1.00000020e+00
9.99993186e-01
9.99986949e-01
9.99981791e-01
9.99978111e-01
9.99976424e-01
9.99977371e-01
9.99981737e-01
9.99990450e-01
1.00000458e+00
1.00002531e+00
1.00005393e+00
1.00009176e+00
1.00014008e+00
1.00020011e+00
1.00027286e+00
1.00035908e+00
1.00045918e+00
1.00057314e+00
1.00070053e+00
1.00084045e+00
1.00099159e+00
1.00115226e+00
1.00132051e+00
1.00149421e+00
1.00167116e+00
1.00184918e+00
1.00202621e+00
1.00220034e+00
1.00236986e+00
1.00253328e+00
1.00268933e+00
1.00283697e+00
1.00297535e+00
1.00310384e+00
1.00322211e+00
1.00332995e+00
1.00342729e+00
1.00351444e+00
1.00359187e+00
1.00365988e+00
1.00371892e+00
1.00376994e+00
1.00381354e+00
1.00384964e+00
1.00387907e+00
1.00390262e+00
1.00392021e+00
1.00393193e+00
1.00393789e+00
9.96419193e-01
9.96422114e-01
9.96427544e-01
9.96435643e-01
9.96446425e-01
9.96460307e-01
9.96478196e-01
9.96500732e-01
9.96528459e-01
9.96562288e-01
9.96603120e-01
9.96651659e-01
9.96708612e-01
9.96774663e-01
9.96850293e-01
9.96935816e-01
9.97031452e-01
9.97137268e-01
9.97253143e-01
9.97378827e-01
9.97513927e-01
9.97657855e-01
9.97809822e-01
9.97968833e-01
9.98133648e-01
9.98302783e-01
9.98474521e-01
9.98646948e-01
9.98818003e-01
9.98985549e-01
9.99147467e-01
9.99301741e-01
9.99446555e-01
9.99580373e-01
9.99702011e-01
9.99810673e-01
9.99905975e-01
9.99987934e-01
1.00005694e+00
1.00011370e+00
1.00015917e+00
1.00019447e+00
1.00022085e+00
1.00023957e+00
1.00025186e+00
1.00025886e+00
1.00026164e+00
1.00026110e+00
1.00025800e+00
1.00025300e+00
1.00024659e+00
1.00023918e+00
1.00023107e+00
1.00022248e+00
1.00021358e+00
1.00020448e+00
1.00019527e+00
1.00018599e+00
1.00017669e+00
1.00016739e+00
1.00015811e+00
1.00014884e+00
1.00013961e+00
1.00013042e+00
1.00012126e+00
1.00011215e+00
1.00010308e+00
1.00009405e+00
1.00008507e+00
1.00007613e+00
1.00006726e+00
1.00005845e+00
1.00004971e+00
1.00004107e+00
1.00003256e+00
1.00002422e+00
1.00001610e+00
1.00000831e+00
1.00000097e+00
9.99994274e-01
9.99988463e-01
9.99983873e-01
9.99980940e-01
9.99980214e-01
9.99982376e-01
9.99988244e-01
9.99998776e-01
1.00001505e+00
1.00003826e+00
1.00006965e+00
1.00011047e+00
1.00016191e+00
1.00022505e+00
1.00030072e+00
1.00038945e+00
1.00049143e+00
1.00060643e+00
1.00073380e+00
1.00087249e+00
1.00102111e+00
1.00117796e+00
1.00134118e+00
1.00150885e+00
1.00167903e+00
1.00184990e+00
1.00201974e+00
1.00218704e+00
1.00235042e+00
1.00250866e+00
1.00266067e+00
1.00280552e+00
1.00294237e+00
1.00307048e+00
1.00318933e+00
1.00329859e+00
1.00339802e+00
1.00348757e+00
1.00356753e+00
1.00363826e+00
1.00369999e+00
1.00375329e+00
1.00379900e+00
1.00383724e+00
1.00386822e+00
1.00389302e+00
1.00391174e+00
1.00392396e+00
1.00393042e+00
9.96419405e-01
9.96422752e-01
9.96429079e-01
9.96438102e-01
9.96450267e-01
9.96466276e-01
9.96486561e-01
9.96511749e-01
9.96542754e-01
9.96580285e-01
9.96624931e-01
9.96677437e-01
9.96738426e-01
9.96808242e-01
9.96887114e-01
9.96975194e-01
9.97072443e-01
9.97178658e-01
9.97293581e-01
9.97416887e-01
9.97548146e-01
9.97686849e-01
9.97832396e-01
9.97984050e-01
9.98140895e-01
9.98301815e-01
9.98465482e-01
9.98630350e-01
9.98794684e-01
9.98956612e-01
9.99114195e-01
9.99265512e-01
9.99408753e-01
9.99542310e-01
9.99664854e-01
9.99775399e-01
9.99873342e-01
9.99958469e-01
1.00003094e+00
1.00009127e+00
1.00014024e+00
1.00017884e+00
1.00020822e+00
1.00022958e+00
1.00024414e+00
1.00025304e+00
1.00025736e+00
1.00025804e+00
1.00025590e+00
1.00025162e+00
1.00024574e+00
1.00023872e+00
1.00023088e+00
1.00022247e+00
1.00021369e+00
1.00020467e+00
1.00019550e+00
1.00018625e+00
1.00017695e+00
1.00016765e+00
1.00015835e+00
1.00014908e+00
1.00013984e+00
1.00013063e+00
1.00012146e+00
1.00011233e+00
1.00010324e+00
1.00009421e+00
1.00008522e+00
1.00007629e+00
1.00006742e+00
1.00005863e+00
1.00004992e+00
1.00004133e+00
1.00003289e+00
1.00002464e+00
1.00001666e+00
1.00000906e+00
1.00000199e+00
9.99995655e-01
9.99990328e-01
9.99986379e-01
9.99984277e-01
9.99984613e-01
9.99988106e-01
9.99995609e-01
1.00000811e+00
1.00002669e+00
1.00005253e+00
1.00008684e+00
1.00013080e+00
1.00018549e+00
1.00025181e+00
1.00033042e+00
1.00042165e+00
1.00052543e+00
1.00064131e+00
1.00076846e+00
1.00090567e+00
1.00105146e+00
1.00120418e+00
1.00136206e+00
1.00152338e+00
1.00168649e+00
1.00184993e+00
1.00201235e+00
1.00217260e+00
1.00232964e+00
1.00248254e+00
1.00263039e+00
1.00277231e+00
1.00290749e+00
1.00303517e+00
1.00315460e+00
1.00326521e+00
1.00336669e+00
1.00345878e+00
1.00354135e+00
1.00361468e+00
1.00367922e+00
1.00373511e+00
1.00378273e+00
1.00382292e+00
1.00385594e+00
1.00388184e+00
1.00390125e+00
1.00391456e+00
1.00392167e+00
9.96420266e-01
9.96423981e-01
9.96431054e-01
9.96441262e-01
9.96455060e-01
9.96473125e-01
9.96495943e-01
9.96524199e-01
9.96558655e-01
9.96599937e-01
9.96648658e-01
9.96705389e-01
9.96770485e-01
9.96844119e-01
9.96926334e-01
9.97016991e-01
9.97115781e-01
9.97222330e-01
9.97336225e-01
9.97457021e-01
9.97584279e-01
9.97717586e-01
9.97856514e-01
9.98000574e-01
9.98149178e-01
9.98301585e-01
9.98456852e-01
9.98613805e-01
9.98771050e-01
9.98926989e-01
9.99079881e-01
9.99227913e-01
9.99369296e-01
9.99502358e-01
9.99625640e-01
9.99737969e-01
9.99838520e-01
9.99926846e-01
1.00000288e+00
1.00006691e+00
1.00011954e+00
1.00016164e+00
1.00019422e+00
1.00021843e+00
1.00023545e+00
1.00024643e+00
1.00025245e+00
1.00025449e+00
1.00025342e+00
1.00024995e+00
1.00024469e+00
1.00023810e+00
1.00023058e+00
1.00022239e+00
1.00021376e+00
1.00020483e+00
1.00019571e+00
1.00018649e+00
1.00017721e+00
1.00016790e+00
1.00015860e+00
1.00014932e+00
1.00014007e+00
1.00013085e+00
1.00012167e+00
1.00011253e+00
1.00010345e+00
1.00009441e+00
1.00008543e+00
1.00007651e+00
1.00006766e+00
1.00005890e+00
1.00005023e+00
1.00004171e+00
1.00003335e+00
1.00002522e+00
1.00001741e+00
1.00001004e+00
1.00000328e+00
9.99997350e-01
9.99992567e-01
9.99989328e-01
9.99988142e-01
9.99989638e-01
9.99994574e-01
1.00000384e+00
1.00001843e+00
1.00003946e+00
1.00006808e+00
1.00010545e+00
1.00015266e+00
1.00021067e+00
1.00028024e+00
1.00036179e+00
1.00045545e+00
1.00056092e+00
1.00067753e+00
1.00080424e+00
1.00093972e+00
1.00108243e+00
1.00123074e+00
1.00138302e+00
1.00153776e+00
1.00169361e+00
1.00184943e+00
1.00200428e+00
1.00215736e+00
1.00230794e+00
1.00245536e+00
1.00259890e+00
1.00273779e+00
1.00287119e+00
1.00299826e+00
1.00311817e+00
1.00323014e+00
1.00333355e+00
1.00342804e+00
1.00351336e+00
1.00358942e+00
1.00365650e+00
1.00371492e+00
1.00376488e+00
1.00380689e+00
1.00384149e+00
1.00386877e+00
1.00388918e+00
1.00390318e+00
1.00391067e+00
9.96421791e-01
9.96425894e-01
9.96433715e-01
9.96445290e-01
9.96460895e-01
9.96481083e-01
9.96506614e-01
9.96538150e-01
9.96576196e-01
9.96621404e-01
9.96674375e-01
9.96735416e-01
9.96804667e-01
9.96882167e-01
9.96967707e-01
9.97060853e-01
9.97161097e-01
9.97267883e-01
9.97380620e-01
9.97498767e-01
9.97621900e-01
9.97749683e-01
9.97881844e-01
9.98018150e-01
9.98158337e-01
9.98302023e-01
9.98448646e-01
9.98597412e-01
9.98747269e-01
9.98896903e-01
9.99044780e-01
9.99189214e-01
9.99328450e-01
9.99460769e-01
9.99584591e-01
9.99698566e-01
9.99801653e-01
9.99893169e-01
9.99972810e-01
1.00004065e+00
1.00009710e+00
1.00014285e+00
1.00017882e+00
1.00020607e+00
1.00022575e+00
1.00023898e+00
1.00024686e+00
1.00025041e+00
1.00025052e+00
1.00024797e+00
1.00024339e+00
1.00023732e+00
1.00023016e+00
1.00022222e+00
1.00021376e+00
1.00020494e+00
1.00019590e+00
1.00018672e+00
1.00017746e+00
1.00016816e+00
1.00015886e+00
1.00014958e+00
1.00014032e+00
1.00013109e+00
1.00012191e+00
1.00011278e+00
1.00010369e+00
1.00009466e+00
1.00008570e+00
1.00007680e+00
1.00006798e+00
1.00005926e+00
1.00005066e+00
1.00004221e+00
1.00003396e+00
1.00002598e+00
1.00001837e+00
1.00001126e+00
1.00000484e+00
9.99999372e-01
9.99995192e-01
9.99992734e-01
9.99992546e-01
9.99995297e-01
1.00000178e+00
1.00001293e+00
1.00002975e+00
1.00005336e+00
1.00008488e+00
1.00012541e+00
1.00017597e+00
1.00023737e+00
1.00031018e+00
1.00039464e+00
1.00049065e+00
1.00059767e+00
1.00071481e+00
1.00084087e+00
1.00097438e+00
1.00111378e+00
1.00125746e+00
1.00140395e+00
1.00155196e+00
1.00170043e+00
1.00184857e+00
1.00199578e+00
1.00214162e+00
1.00228569e+00
1.00242756e+00
1.00256668e+00
1.00270240e+00
1.00283389e+00
1.00296020e+00
1.00308040e+00
1.00319358e+00
1.00329887e+00
1.00339563e+00
1.00348355e+00
1.00356237e+00
1.00363200e+00
1.00369278e+00
1.00374507e+00
1.00378899e+00
1.00382497e+00
1.00385359e+00
1.00387511e+00
1.00388965e+00
1.00389749e+00
9.96424040e-01
9.96428691e-01
9.96437444e-01
9.96450341e-01
9.96467793e-01
9.96490405e-01
9.96518830e-01
9.96553666e-01
9.96595485e-01
9.96644840e-01
9.96702100e-01
9.96767450e-01
9.96840907e-01
9.96922238e-01
9.97010966e-01
9.97106473e-01
9.97208043e-01
9.97314898e-01
9.97426308e-01
9.97541679e-01
9.97660576e-01
9.97782727e-01
9.97908033e-01
9.98036506e-01
9.98168180e-01
9.98303024e-01
9.98440853e-01
9.98581246e-01
9.98723488e-01
9.98866555e-01
9.99009136e-01
9.99149681e-01
9.99286486e-01
9.99417803e-01
9.99541944e-01
9.99657395e-01
9.99762905e-01
9.99857562e-01
9.99940823e-01
1.00001254e+00
1.00007291e+00
1.00012247e+00
1.00016200e+00
1.00019248e+00
1.00021499e+00
1.00023065e+00
1.00024056e+00
1.00024576e+00
1.00024718e+00
1.00024565e+00
1.00024185e+00
1.00023635e+00
1.00022960e+00
1.00022196e+00
1.00021370e+00
1.00020502e+00
1.00019606e+00
1.00018693e+00
1.00017770e+00
1.00016843e+00
1.00015914e+00
1.00014985e+00
1.00014060e+00
1.00013137e+00
1.00012220e+00
1.00011307e+00
1.00010400e+00
1.00009499e+00
1.00008605e+00
1.00007718e+00
1.00006841e+00
1.00005975e+00
1.00005122e+00
1.00004287e+00
1.00003475e+00
1.00002693e+00
1.00001954e+00
1.00001272e+00
1.00000669e+00
1.00000173e+00
9.99998207e-01
9.99996598e-01
9.99997488e-01
1.00000159e+00
1.00000973e+00
1.00002287e+00
1.00004204e+00
1.00006834e+00
1.00010287e+00
1.00014667e+00
1.00020063e+00
1.00026543e+00
1.00034147e+00
1.00042879e+00
1.00052702e+00
1.00063542e+00
1.00075291e+00
1.00087810e+00
1.00100943e+00
1.00114530e+00
1.00128420e+00
1.00142478e+00
1.00156598e+00
1.00170704e+00
1.00184750e+00
1.00198710e+00
1.00212572e+00
1.00226327e+00
1.00239955e+00
1.00253417e+00
1.00266658e+00
1.00279596e+00
1.00292135e+00
1.00304164e+00
1.00315577e+00
1.00326276e+00
1.00336172e+00
1.00345204e+00
1.00353341e+00
1.00360565e+00
1.00366878e+00
1.00372309e+00
1.00376889e+00
1.00380645e+00
1.00383622e+00
1.00385857e+00
1.00387381e+00
1.00388214e+00
9.96427299e-01
9.96432497e-01
9.96442302e-01
9.96456633e-01
9.96476048e-01
9.96501227e-01
9.96532673e-01
9.96570961e-01
9.96616692e-01
9.96670249e-01
9.96731827e-01
9.96801508e-01
9.96879100e-01
9.96964111e-01
9.97055869e-01
9.97153560e-01
9.97256236e-01
9.97362948e-01
9.97472865e-01
9.97585322e-01
9.97699872e-01
9.97816329e-01
9.97934755e-01
9.98055380e-01
9.98178525e-01
9.98304497e-01
9.98433471e-01
9.98565382e-01
9.98699852e-01
9.98836151e-01
9.98973194e-01
9.99109580e-01
9.99243676e-01
9.99373720e-01
9.99497936e-01
9.99614660e-01
9.99722446e-01
9.99820153e-01
9.99907007e-01
9.99982622e-01
1.00004700e+00
1.00010049e+00
1.00014373e+00
1.00017761e+00
1.00020313e+00
1.00022139e+00
1.00023349e+00
1.00024049e+00
1.00024336e+00
1.00024295e+00
1.00024002e+00
1.00023517e+00
1.00022890e+00
1.00022160e+00
1.00021358e+00
1.00020506e+00
1.00019621e+00
1.00018714e+00
1.00017796e+00
1.00016871e+00
1.00015943e+00
1.00015016e+00
1.00014091e+00
1.00013170e+00
1.00012254e+00
1.00011343e+00
1.00010437e+00
1.00009539e+00
1.00008649e+00
1.00007767e+00
1.00006895e+00
1.00006036e+00
1.00005192e+00
1.00004368e+00
1.00003570e+00
1.00002807e+00
1.00002093e+00
1.00001443e+00
1.00000882e+00
1.00000441e+00
1.00000161e+00
1.00000091e+00
1.00000296e+00
1.00000850e+00
1.00001840e+00
1.00003364e+00
1.00005527e+00
1.00008437e+00
1.00012200e+00
1.00016913e+00
1.00022654e+00
1.00029475e+00
1.00037398e+00
1.00046404e+00
1.00056435e+00
1.00067397e+00
1.00079159e+00
1.00091569e+00
1.00104465e+00
1.00117684e+00
1.00131083e+00
1.00144544e+00
1.00157984e+00
1.00171354e+00
1.00184640e+00
1.00197848e+00
1.00210997e+00
1.00224103e+00
1.00237170e+00
1.00250177e+00
1.00263073e+00
1.00275781e+00
1.00288202e+00
1.00300216e+00
1.00311700e+00
1.00322539e+00
1.00332633e+00
1.00341892e+00
1.00350265e+00
1.00357730e+00
1.00364273e+00
1.00369900e+00
1.00374652e+00
1.00378559e+00
1.00381646e+00
1.00383959e+00
1.00385554e+00
1.00386428e+00
9.96431818e-01
9.96437569e-01
9.96448406e-01
9.96464348e-01
9.96485903e-01
9.96513697e-01
9.96548291e-01
9.96590225e-01
9.96639928e-01
9.96697680e-01
9.96763601e-01
9.96837555e-01
9.96919108e-01
9.97007607e-01
9.97102187e-01
9.97201793e-01
9.97305301e-01
9.97411642e-01
9.97519870e-01
9.97629256e-01
9.97739370e-01
9.97850112e-01
9.97961676e-01
9.98074501e-01
9.98189183e-01
9.98306338e-01
9.98426476e-01
9.98549877e-01
9.98676493e-01
9.98805879e-01
9.98937183e-01
9.99069168e-01
9.99200287e-01
9.99328782e-01
9.99452811e-01
9.99570578e-01
9.99680454e-01
9.99781085e-01
9.99871463e-01
9.99950974e-01
1.00001941e+00
1.00007692e+00
1.00012401e+00
1.00016144e+00
1.00019014e+00
1.00021117e+00
1.00022562e+00
1.00023457e+00
1.00023902e+00
1.00023986e+00
1.00023789e+00
1.00023377e+00
1.00022803e+00
1.00022113e+00
1.00021338e+00
1.00020505e+00
1.00019633e+00
1.00018735e+00
1.00017822e+00
1.00016901e+00
1.00015976e+00
1.00015051e+00
1.00014128e+00
1.00013209e+00
1.00012294e+00
1.00011385e+00
1.00010483e+00
1.00009589e+00
1.00008703e+00
1.00007826e+00
1.00006961e+00
1.00006110e+00
1.00005276e+00
1.00004464e+00
1.00003682e+00
1.00002940e+00
1.00002252e+00
1.00001638e+00
1.00001123e+00
1.00000741e+00
1.00000537e+00
1.00000566e+00
1.00000894e+00
1.00001601e+00
1.00002777e+00
1.00004521e+00
1.00006940e+00
1.00010140e+00
1.00014221e+00
1.00019273e+00
1.00025360e+00
1.00032520e+00
1.00040754e+00
1.00050022e+00
1.00060247e+00
1.00071310e+00
1.00083065e+00
1.00095347e+00
1.00107987e+00
1.00120825e+00
1.00133727e+00
1.00146591e+00
1.00159357e+00
1.00172004e+00
1.00184545e+00
1.00197017e+00
1.00209466e+00
1.00221933e+00
1.00234440e+00
1.00246983e+00
1.00259521e+00
1.00271978e+00
1.00284253e+00
1.00296221e+00
1.00307747e+00
1.00318697e+00
1.00328953e+00
1.00338417e+00
1.00347012e+00
1.00354693e+00
1.00361446e+00
1.00367270e+00
1.00372183e+00
1.00376221e+00
1.00379417e+00
1.00381814e+00
1.00383462e+00
1.00384368e+00
9.96437675e-01
9.96444051e-01
9.96456018e-01
9.96473664e-01
9.96497476e-01
9.96528033e-01
9.96565908e-01
9.96611556e-01
9.96665270e-01
9.96727243e-01
9.96797437e-01
9.96875497e-01
9.96960819e-01
9.97052569e-01
9.97149659e-01
9.97250854e-01
9.97354901e-01
9.97460599e-01
9.97566908e-01
9.97673071e-01
9.97778685e-01
9.97883712e-01
9.97988478e-01
9.98093621e-01
9.98199976e-01
9.98308443e-01
9.98419844e-01
9.98534786e-01
9.98653529e-01
9.98775914e-01
9.98901323e-01
9.99028693e-01
9.99156577e-01
9.99283246e-01
9.99406811e-01
9.99525365e-01
9.99637114e-01
9.99740502e-01
9.99834299e-01
9.99917664e-01
9.99990165e-01
1.00005177e+00
1.00010282e+00
1.00014393e+00
1.00017597e+00
1.00019994e+00
1.00021691e+00
1.00022796e+00
1.00023412e+00
1.00023633e+00
1.00023543e+00
1.00023212e+00
1.00022700e+00
1.00022054e+00
1.00021311e+00
1.00020500e+00
1.00019644e+00
1.00018757e+00
1.00017851e+00
1.00016934e+00
1.00016013e+00
1.00015091e+00
1.00014170e+00
1.00013254e+00
1.00012342e+00