# vtk DataFile Version 2.0
LBM Flow Field - Timestep 2180
ASCII
DATASET STRUCTURED_POINTS
DIMENSIONS 128 128 1
ORIGIN 0.0 0.0 0.0
SPACING 1.0 1.0 1.0
POINT_DATA 16384
SCALARS density double 1
LOOKUP_TABLE default
1.00217999e+00
1.00217954e+00
1.00217876e+00
1.00217600e+00
1.00217248e+00
1.00216862e+00
1.00216377e+00
1.00215786e+00
1.00215099e+00
1.00214293e+00
1.00213335e+00
1.00212211e+00
1.00210902e+00
1.00209387e+00
1.00207645e+00
1.00205661e+00
1.00203422e+00
1.00200914e+00
1.00198129e+00
1.00195063e+00
1.00191715e+00
1.00188087e+00
1.00184187e+00
1.00180024e+00
1.00175614e+00
1.00170975e+00
1.00166127e+00
1.00161095e+00
1.00155905e+00
1.00150585e+00
1.00145164e+00
1.00139674e+00
1.00134143e+00
1.00128603e+00
1.00123083e+00
1.00117609e+00
1.00112210e+00
1.00106908e+00
1.00101726e+00
1.00096683e+00
1.00091796e+00
1.00087077e+00
1.00082539e+00
1.00078190e+00
1.00074034e+00
1.00070075e+00
1.00066314e+00
1.00062748e+00
1.00059373e+00
1.00056185e+00
1.00053175e+00
1.00050336e+00
1.00047656e+00
1.00045126e+00
1.00042734e+00
1.00040467e+00
1.00038314e+00
1.00036259e+00
1.00034292e+00
1.00032397e+00
1.00030563e+00
1.00028775e+00
1.00027022e+00
1.00025290e+00
1.00023568e+00
1.00021844e+00
1.00020106e+00
1.00018344e+00
1.00016548e+00
1.00014708e+00
1.00012816e+00
1.00010863e+00
1.00008843e+00
1.00006748e+00
1.00004575e+00
1.00002317e+00
9.99999730e-01
9.99975396e-01
9.99950163e-01
9.99924037e-01
9.99897036e-01
9.99869194e-01
9.99840559e-01
9.99811193e-01
9.99781171e-01
9.99750581e-01
9.99719523e-01
9.99688106e-01
9.99656448e-01
9.99624671e-01
9.99592900e-01
9.99561261e-01
9.99529876e-01
9.99498863e-01
9.99468332e-01
9.99438380e-01
9.99409094e-01
9.99380546e-01
9.99352793e-01
9.99325876e-01
9.99299820e-01
9.99274637e-01
9.99250322e-01
9.99226860e-01
9.99204224e-01
9.99182383e-01
9.99161295e-01
9.99140923e-01
9.99121226e-01
9.99102169e-01
9.99083720e-01
9.99065862e-01
9.99048587e-01
9.99031886e-01
9.99015776e-01
9.99000310e-01
9.98985514e-01
9.98971395e-01
9.98958083e-01
9.98945738e-01
9.98934251e-01
9.98923603e-01
9.98914430e-01
9.98906861e-01
9.98899829e-01
9.98894267e-01
9.98893995e-01
9.98894782e-01
1.00217944e+00
1.00217788e+00
1.00217633e+00
1.00217382e+00
1.00217035e+00
1.00216635e+00
1.00216146e+00
1.00215559e+00
1.00214861e+00
1.00214040e+00
1.00213071e+00
1.00211935e+00
1.00210612e+00
1.00209084e+00
1.00207330e+00
1.00205336e+00
1.00203088e+00
1.00200574e+00
1.00197785e+00
1.00194718e+00
1.00191372e+00
1.00187749e+00
1.00183855e+00
1.00179703e+00
1.00175306e+00
1.00170681e+00
1.00165850e+00
1.00160836e+00
1.00155665e+00
1.00150365e+00
1.00144966e+00
1.00139496e+00
1.00133986e+00
1.00128465e+00
1.00122964e+00
1.00117508e+00
1.00112125e+00
1.00106838e+00
1.00101669e+00
1.00096637e+00
1.00091759e+00
1.00087049e+00
1.00082518e+00
1.00078173e+00
1.00074021e+00
1.00070065e+00
1.00066305e+00
1.00062740e+00
1.00059366e+00
1.00056177e+00
1.00053167e+00
1.00050327e+00
1.00047647e+00
1.00045117e+00
1.00042725e+00
1.00040458e+00
1.00038306e+00
1.00036253e+00
1.00034288e+00
1.00032397e+00
1.00030567e+00
1.00028784e+00
1.00027037e+00
1.00025312e+00
1.00023597e+00
1.00021881e+00
1.00020153e+00
1.00018401e+00
1.00016615e+00
1.00014786e+00
1.00012905e+00
1.00010965e+00
1.00008956e+00
1.00006874e+00
1.00004713e+00
1.00002468e+00
1.00000136e+00
9.99977141e-01
9.99952023e-01
9.99926008e-01
9.99899113e-01
9.99871371e-01
9.99842828e-01
9.99813544e-01
9.99783595e-01
9.99753066e-01
9.99722058e-01
9.99690677e-01
9.99659040e-01
9.99627269e-01
9.99595488e-01
9.99563822e-01
9.99532394e-01
9.99501321e-01
9.99470713e-01
9.99440668e-01
9.99411275e-01
9.99382606e-01
9.99354721e-01
9.99327662e-01
9.99301459e-01
9.99276122e-01
9.99251653e-01
9.99228038e-01
9.99205254e-01
9.99183271e-01
9.99162053e-01
9.99141564e-01
9.99121764e-01
9.99102623e-01
9.99084111e-01
9.99066210e-01
9.99048910e-01
9.99032215e-01
9.99016139e-01
9.99000714e-01
9.98985975e-01
9.98971976e-01
9.98958796e-01
9.98946510e-01
9.98935156e-01
9.98924841e-01
9.98915815e-01
9.98908109e-01
9.98901590e-01
9.98896696e-01
9.98894973e-01
9.98893463e-01
1.00217755e+00
1.00217501e+00
1.00217191e+00
1.00216953e+00
1.00216647e+00
1.00216221e+00
1.00215718e+00
1.00215136e+00
1.00214433e+00
1.00213597e+00
1.00212619e+00
1.00211476e+00
1.00210142e+00
1.00208604e+00
1.00206843e+00
1.00204842e+00
1.00202588e+00
1.00200071e+00
1.00197282e+00
1.00194216e+00
1.00190874e+00
1.00187257e+00
1.00183372e+00
1.00179231e+00
1.00174846e+00
1.00170236e+00
1.00165422e+00
1.00160425e+00
1.00155273e+00
1.00149992e+00
1.00144612e+00
1.00139161e+00
1.00133670e+00
1.00128168e+00
1.00122683e+00
1.00117244e+00
1.00111875e+00
1.00106602e+00
1.00101446e+00
1.00096425e+00
1.00091557e+00
1.00086855e+00
1.00082331e+00
1.00077993e+00
1.00073847e+00
1.00069896e+00
1.00066141e+00
1.00062580e+00
1.00059210e+00
1.00056026e+00
1.00053021e+00
1.00050186e+00
1.00047512e+00
1.00044989e+00
1.00042605e+00
1.00040347e+00
1.00038205e+00
1.00036164e+00
1.00034211e+00
1.00032334e+00
1.00030519e+00
1.00028754e+00
1.00027024e+00
1.00025318e+00
1.00023624e+00
1.00021929e+00
1.00020223e+00
1.00018493e+00
1.00016731e+00
1.00014926e+00
1.00013070e+00
1.00011153e+00
1.00009169e+00
1.00007111e+00
1.00004973e+00
1.00002751e+00
1.00000441e+00
9.99980402e-01
9.99955483e-01
9.99929654e-01
9.99902929e-01
9.99875342e-01
9.99846936e-01
9.99817772e-01
9.99787923e-01
9.99757476e-01
9.99726527e-01
9.99695184e-01
9.99663565e-01
9.99631789e-01
9.99599982e-01
9.99568270e-01
9.99536775e-01
9.99505615e-01
9.99474903e-01
9.99444737e-01
9.99415208e-01
9.99386391e-01
9.99358347e-01
9.99331122e-01
9.99304746e-01
9.99279235e-01
9.99254592e-01
9.99230806e-01
9.99207857e-01
9.99185717e-01
9.99164354e-01
9.99143733e-01
9.99123817e-01
9.99104577e-01
9.99085987e-01
9.99068026e-01
9.99050684e-01
9.99033975e-01
9.99017910e-01
9.99002496e-01
9.98987792e-01
9.98973893e-01
9.98960797e-01
9.98948501e-01
9.98937288e-01
9.98927320e-01
9.98918198e-01
9.98910111e-01
9.98904451e-01
9.98900448e-01
9.98895597e-01
9.98892546e-01
1.00217191e+00
1.00216937e+00
1.00216659e+00
1.00216370e+00
1.00216023e+00
1.00215607e+00
1.00215109e+00
1.00214511e+00
1.00213800e+00
1.00212962e+00
1.00211976e+00
1.00210822e+00
1.00209483e+00
1.00207939e+00
1.00206172e+00
1.00204167e+00
1.00201912e+00
1.00199394e+00
1.00196607e+00
1.00193545e+00
1.00190209e+00
1.00186601e+00
1.00182727e+00
1.00178599e+00
1.00174229e+00
1.00169636e+00
1.00164839e+00
1.00159862e+00
1.00154729e+00
1.00149469e+00
1.00144109e+00
1.00138678e+00
1.00133207e+00
1.00127724e+00
1.00122257e+00
1.00116835e+00
1.00111483e+00
1.00106224e+00
1.00101081e+00
1.00096073e+00
1.00091215e+00
1.00086524e+00
1.00082009e+00
1.00077679e+00
1.00073540e+00
1.00069596e+00
1.00065848e+00
1.00062295e+00
1.00058932e+00
1.00055757e+00
1.00052760e+00
1.00049936e+00
1.00047273e+00
1.00044762e+00
1.00042392e+00
1.00040151e+00
1.00038026e+00
1.00036004e+00
1.00034073e+00
1.00032218e+00
1.00030428e+00
1.00028689e+00
1.00026987e+00
1.00025311e+00
1.00023647e+00
1.00021985e+00
1.00020311e+00
1.00018616e+00
1.00016888e+00
1.00015117e+00
1.00013295e+00
1.00011413e+00
1.00009463e+00
1.00007438e+00
1.00005332e+00
1.00003140e+00
1.00000860e+00
9.99984871e-01
9.99960213e-01
9.99934625e-01
9.99908122e-01
9.99880734e-01
9.99852505e-01
9.99823494e-01
9.99793774e-01
9.99763431e-01
9.99732562e-01
9.99701275e-01
9.99669687e-01
9.99637919e-01
9.99606096e-01
9.99574346e-01
9.99542791e-01
9.99511552e-01
9.99480740e-01
9.99450459e-01
9.99420799e-01
9.99391838e-01
9.99363639e-01
9.99336250e-01
9.99309704e-01
9.99284020e-01
9.99259202e-01
9.99235243e-01
9.99212126e-01
9.99189825e-01
9.99168310e-01
9.99147548e-01
9.99127507e-01
9.99108156e-01
9.99089471e-01
9.99071435e-01
9.99054041e-01
9.99037290e-01
9.99021200e-01
9.99005803e-01
9.98991125e-01
9.98977219e-01
9.98964172e-01
9.98952033e-01
9.98940830e-01
9.98930725e-01
9.98921885e-01
9.98914225e-01
9.98907831e-01
9.98903063e-01
9.98899006e-01
9.98896364e-01
1.00216424e+00
1.00216179e+00
1.00215923e+00
1.00215588e+00
1.00215216e+00
1.00214808e+00
1.00214304e+00
1.00213690e+00
1.00212973e+00
1.00212132e+00
1.00211137e+00
1.00209976e+00
1.00208631e+00
1.00207082e+00
1.00205310e+00
1.00203303e+00
1.00201047e+00
1.00198531e+00
1.00195748e+00
1.00192693e+00
1.00189366e+00
1.00185769e+00
1.00181909e+00
1.00177796e+00
1.00173445e+00
1.00168871e+00
1.00164095e+00
1.00159140e+00
1.00154031e+00
1.00148794e+00
1.00143457e+00
1.00138050e+00
1.00132601e+00
1.00127139e+00
1.00121694e+00
1.00116291e+00
1.00110956e+00
1.00105715e+00
1.00100587e+00
1.00095592e+00
1.00090747e+00
1.00086067e+00
1.00081563e+00
1.00077243e+00
1.00073114e+00
1.00069179e+00
1.00065440e+00
1.00061897e+00
1.00058545e+00
1.00055380e+00
1.00052396e+00
1.00049586e+00
1.00046939e+00
1.00044446e+00
1.00042095e+00
1.00039875e+00
1.00037774e+00
1.00035778e+00
1.00033875e+00
1.00032051e+00
1.00030294e+00
1.00028590e+00
1.00026925e+00
1.00025287e+00
1.00023664e+00
1.00022043e+00
1.00020412e+00
1.00018761e+00
1.00017077e+00
1.00015351e+00
1.00013573e+00
1.00011734e+00
1.00009827e+00
1.00007844e+00
1.00005779e+00
1.00003626e+00
1.00001382e+00
9.99990448e-01
9.99966118e-01
9.99940832e-01
9.99914606e-01
9.99887468e-01
9.99859461e-01
9.99830644e-01
9.99801090e-01
9.99770884e-01
9.99740123e-01
9.99708917e-01
9.99677381e-01
9.99645639e-01
9.99613816e-01
9.99582040e-01
9.99550437e-01
9.99519126e-01
9.99488223e-01
9.99457832e-01
9.99428044e-01
9.99398941e-01
9.99370587e-01
9.99343034e-01
9.99316316e-01
9.99290454e-01
9.99265457e-01
9.99241319e-01
9.99218026e-01
9.99195556e-01
9.99173879e-01
9.99152967e-01
9.99132788e-01
9.99113314e-01
9.99094520e-01
9.99076395e-01
9.99058932e-01
9.99042128e-01
9.99025996e-01
9.99010586e-01
9.98995925e-01
9.98982015e-01
9.98968960e-01
9.98956916e-01
9.98945801e-01
9.98935572e-01
9.98926716e-01
9.98919416e-01
9.98912780e-01
9.98907215e-01
9.98903830e-01
9.98901407e-01
1.00215504e+00
1.00215233e+00
1.00214940e+00
1.00214618e+00
1.00214252e+00
1.00213813e+00
1.00213293e+00
1.00212684e+00
1.00211961e+00
1.00211106e+00
1.00210105e+00
1.00208940e+00
1.00207589e+00
1.00206034e+00
1.00204261e+00
1.00202253e+00
1.00199998e+00
1.00197486e+00
1.00194708e+00
1.00191662e+00
1.00188346e+00
1.00184763e+00
1.00180919e+00
1.00176825e+00
1.00172494e+00
1.00167943e+00
1.00163191e+00
1.00158261e+00
1.00153178e+00
1.00147967e+00
1.00142656e+00
1.00137275e+00
1.00131851e+00
1.00126413e+00
1.00120991e+00
1.00115610e+00
1.00110295e+00
1.00105072e+00
1.00099961e+00
1.00094983e+00
1.00090153e+00
1.00085486e+00
1.00080994e+00
1.00076686e+00
1.00072568e+00
1.00068645e+00
1.00064918e+00
1.00061386e+00
1.00058048e+00
1.00054898e+00
1.00051930e+00
1.00049137e+00
1.00046511e+00
1.00044040e+00
1.00041714e+00
1.00039521e+00
1.00037450e+00
1.00035487e+00
1.00033620e+00
1.00031835e+00
1.00030118e+00
1.00028457e+00
1.00026838e+00
1.00025249e+00
1.00023675e+00
1.00022105e+00
1.00020527e+00
1.00018929e+00
1.00017299e+00
1.00015627e+00
1.00013902e+00
1.00012117e+00
1.00010262e+00
1.00008330e+00
1.00006314e+00
1.00004208e+00
1.00002009e+00
9.99997138e-01
9.99973201e-01
9.99948280e-01
9.99922388e-01
9.99895551e-01
9.99867813e-01
9.99839232e-01
9.99809879e-01
9.99779841e-01
9.99749217e-01
9.99718114e-01
9.99686650e-01
9.99654950e-01
9.99623140e-01
9.99591349e-01
9.99559704e-01
9.99528328e-01
9.99497337e-01
9.99466837e-01
9.99436922e-01
9.99407675e-01
9.99379164e-01
9.99351442e-01
9.99324547e-01
9.99298502e-01
9.99273319e-01
9.99248995e-01
9.99225518e-01
9.99202868e-01
9.99181021e-01
9.99159947e-01
9.99139618e-01
9.99120009e-01
9.99101099e-01
9.99082869e-01
9.99065316e-01
9.99048451e-01
9.99032280e-01
9.99016818e-01
9.99002127e-01
9.98988264e-01
9.98975226e-01
9.98963078e-01
9.98952006e-01
9.98942028e-01
9.98933026e-01
9.98925282e-01
9.98918952e-01
9.98913720e-01
9.98909751e-01
9.98906882e-01
1.00214374e+00
1.00214093e+00
1.00213781e+00
1.00213462e+00
1.00213086e+00
1.00212632e+00
1.00212107e+00
1.00211492e+00
1.00210758e+00
1.00209896e+00
1.00208890e+00
1.00207719e+00
1.00206362e+00
1.00204804e+00
1.00203030e+00
1.00201022e+00
1.00198769e+00
1.00196262e+00
1.00193492e+00
1.00190456e+00
1.00187153e+00
1.00183586e+00
1.00179761e+00
1.00175688e+00
1.00171380e+00
1.00166854e+00
1.00162128e+00
1.00157226e+00
1.00152170e+00
1.00146988e+00
1.00141706e+00
1.00136352e+00
1.00130956e+00
1.00125545e+00
1.00120147e+00
1.00114790e+00
1.00109498e+00
1.00104295e+00
1.00099204e+00
1.00094242e+00
1.00089429e+00
1.00084777e+00
1.00080299e+00
1.00076005e+00
1.00071901e+00
1.00067992e+00
1.00064279e+00
1.00060763e+00
1.00057441e+00
1.00054309e+00
1.00051361e+00
1.00048590e+00
1.00045988e+00
1.00043545e+00
1.00041249e+00
1.00039090e+00
1.00037055e+00
1.00035132e+00
1.00033308e+00
1.00031569e+00
1.00029901e+00
1.00028292e+00
1.00026728e+00
1.00025196e+00
1.00023682e+00
1.00022173e+00
1.00020657e+00
1.00019121e+00
1.00017555e+00
1.00015947e+00
1.00014286e+00
1.00012563e+00
1.00010769e+00
1.00008897e+00
1.00006938e+00
1.00004888e+00
1.00002741e+00
1.00000495e+00
9.99981472e-01
9.99956977e-01
9.99931473e-01
9.99904988e-01
9.99877564e-01
9.99849257e-01
9.99820141e-01
9.99790302e-01
9.99759839e-01
9.99728861e-01
9.99697487e-01
9.99665842e-01
9.99634056e-01
9.99602258e-01
9.99570577e-01
9.99539139e-01
9.99508060e-01
9.99477450e-01
9.99447405e-01
9.99418011e-01
9.99389337e-01
9.99361439e-01
9.99334360e-01
9.99308124e-01
9.99282745e-01
9.99258224e-01
9.99234552e-01
9.99211712e-01
9.99189682e-01
9.99168435e-01
9.99147944e-01
9.99128186e-01
9.99109143e-01
9.99090800e-01
9.99073148e-01
9.99056196e-01
9.99039967e-01
9.99024468e-01
9.99009726e-01
9.98995832e-01
9.98982829e-01
9.98970686e-01
9.98959528e-01
9.98949573e-01
9.98940674e-01
9.98932763e-01
9.98926353e-01
9.98921279e-01
9.98916985e-01
9.98913973e-01
1.00213037e+00
1.00212761e+00
1.00212457e+00
1.00212119e+00
1.00211728e+00
1.00211279e+00
1.00210748e+00
1.00210116e+00
1.00209376e+00
1.00208511e+00
1.00207498e+00
1.00206318e+00
1.00204958e+00
1.00203399e+00
1.00201623e+00
1.00199616e+00
1.00197367e+00
1.00194866e+00
1.00192105e+00
1.00189081e+00
1.00185793e+00
1.00182243e+00
1.00178438e+00
1.00174388e+00
1.00170105e+00
1.00165605e+00
1.00160908e+00
1.00156035e+00
1.00151010e+00
1.00145858e+00
1.00140607e+00
1.00135283e+00
1.00129916e+00
1.00124534e+00
1.00119163e+00
1.00113831e+00
1.00108563e+00
1.00103383e+00
1.00098312e+00
1.00093370e+00
1.00088574e+00
1.00083940e+00
1.00079479e+00
1.00075200e+00
1.00071112e+00
1.00067219e+00
1.00063523e+00
1.00060025e+00
1.00056723e+00
1.00053612e+00
1.00050689e+00
1.00047945e+00
1.00045372e+00
1.00042961e+00
1.00040701e+00
1.00038582e+00
1.00036590e+00
1.00034714e+00
1.00032940e+00
1.00031255e+00
1.00029646e+00
1.00028097e+00
1.00026597e+00
1.00025131e+00
1.00023685e+00
1.00022247e+00
1.00020802e+00
1.00019340e+00
1.00017847e+00
1.00016312e+00
1.00014724e+00
1.00013073e+00
1.00011349e+00
1.00009545e+00
1.00007652e+00
1.00005664e+00
1.00003578e+00
1.00001387e+00
9.99990922e-01
9.99966910e-01
9.99941848e-01
9.99915762e-01
9.99888694e-01
9.99860700e-01
9.99831853e-01
9.99802241e-01
9.99771963e-01
9.99741130e-01
9.99709862e-01
9.99678285e-01
9.99646532e-01
9.99614734e-01
9.99583021e-01
9.99551522e-01
9.99520356e-01
9.99489633e-01
9.99459455e-01
9.99429908e-01
9.99401066e-01
9.99372986e-01
9.99345713e-01
9.99319276e-01
9.99293692e-01
9.99268964e-01
9.99245086e-01
9.99222044e-01
9.99199818e-01
9.99178385e-01
9.99157721e-01
9.99137802e-01
9.99118610e-01
9.99100138e-01
9.99082379e-01
9.99065330e-01
9.99049010e-01
9.99033463e-01
9.99018699e-01
9.99004735e-01
9.98991676e-01
9.98979602e-01
9.98968460e-01
9.98958323e-01
9.98949431e-01
9.98941725e-01
9.98935111e-01
9.98929785e-01
9.98925667e-01
9.98922724e-01
1.00211532e+00
1.00211254e+00
1.00210949e+00
1.00210603e+00
1.00210208e+00
1.00209754e+00
1.00209211e+00
1.00208573e+00
1.00207829e+00
1.00206955e+00
1.00205934e+00
1.00204751e+00
1.00203387e+00
1.00201824e+00
1.00200047e+00
1.00198043e+00
1.00195798e+00
1.00193304e+00
1.00190553e+00
1.00187542e+00
1.00184269e+00
1.00180738e+00
1.00176955e+00
1.00172929e+00
1.00168672e+00
1.00164201e+00
1.00159534e+00
1.00154692e+00
1.00149699e+00
1.00144580e+00
1.00139361e+00
1.00134069e+00
1.00128733e+00
1.00123381e+00
1.00118039e+00
1.00112734e+00
1.00107492e+00
1.00102335e+00
1.00097287e+00
1.00092366e+00
1.00087591e+00
1.00082975e+00
1.00078532e+00
1.00074272e+00
1.00070202e+00
1.00066328e+00
1.00062652e+00
1.00059175e+00
1.00055895e+00
1.00052810e+00
1.00049915e+00
1.00047202e+00
1.00044663e+00
1.00042291e+00
1.00040073e+00
1.00037999e+00
1.00036058e+00
1.00034235e+00
1.00032520e+00
1.00030897e+00
1.00029353e+00
1.00027874e+00
1.00026446e+00
1.00025055e+00
1.00023687e+00
1.00022328e+00
1.00020966e+00
1.00019585e+00
1.00018175e+00
1.00016723e+00
1.00015217e+00
1.00013646e+00
1.00012001e+00
1.00010273e+00
1.00008454e+00
1.00006537e+00
1.00004517e+00
1.00002389e+00
1.00000153e+00
9.99978053e-01
9.99953485e-01
9.99927844e-01
9.99901173e-01
9.99873527e-01
9.99844982e-01
9.99815623e-01
9.99785553e-01
9.99754883e-01
9.99723736e-01
9.99692240e-01
9.99660528e-01
9.99628735e-01
9.99596994e-01
9.99565435e-01
9.99534179e-01
9.99503342e-01
9.99473026e-01
9.99443320e-01
9.99414300e-01
9.99386029e-01
9.99358554e-01
9.99331906e-01
9.99306105e-01
9.99281158e-01
9.99257061e-01
9.99233805e-01
9.99211370e-01
9.99189737e-01
9.99168884e-01
9.99148792e-01
9.99129443e-01
9.99110824e-01
9.99092939e-01
9.99075790e-01
9.99059380e-01
9.99043742e-01
9.99028927e-01
9.99014949e-01
9.99001832e-01
9.98989693e-01
9.98978584e-01
9.98968455e-01
9.98959456e-01
9.98951749e-01
9.98945152e-01
9.98939720e-01
9.98935592e-01
9.98932588e-01
1.00209863e+00
1.00209583e+00
1.00209271e+00
1.00208927e+00
1.00208531e+00
1.00208063e+00
1.00207514e+00
1.00206874e+00
1.00206119e+00
1.00205236e+00
1.00204211e+00
1.00203023e+00
1.00201654e+00
1.00200088e+00
1.00198312e+00
1.00196309e+00
1.00194069e+00
1.00191582e+00
1.00188842e+00
1.00185844e+00
1.00182588e+00
1.00179077e+00
1.00175316e+00
1.00171315e+00
1.00167086e+00
1.00162645e+00
1.00158009e+00
1.00153200e+00
1.00148240e+00
1.00143155e+00
1.00137970e+00
1.00132712e+00
1.00127408e+00
1.00122087e+00
1.00116776e+00
1.00111500e+00
1.00106285e+00
1.00101154e+00
1.00096130e+00
1.00091232e+00
1.00086478e+00
1.00081884e+00
1.00077461e+00
1.00073221e+00
1.00069172e+00
1.00065319e+00
1.00061666e+00
1.00058213e+00
1.00054960e+00
1.00051905e+00
1.00049041e+00
1.00046364e+00
1.00043865e+00
1.00041536e+00
1.00039366e+00
1.00037344e+00
1.00035459e+00
1.00033698e+00
1.00032048e+00
1.00030495e+00
1.00029024e+00
1.00027623e+00
1.00026276e+00
1.00024970e+00
1.00023689e+00
1.00022419e+00
1.00021147e+00
1.00019858e+00
1.00018540e+00
1.00017179e+00
1.00015763e+00
1.00014282e+00
1.00012724e+00
1.00011080e+00
1.00009342e+00
1.00007503e+00
1.00005556e+00
1.00003498e+00
1.00001325e+00
9.99990372e-01
9.99966344e-01
9.99941193e-01
9.99914957e-01
9.99887695e-01
9.99859480e-01
9.99830401e-01
9.99800560e-01
9.99770072e-01
9.99739059e-01
9.99707654e-01
9.99675991e-01
9.99644209e-01
9.99612441e-01
9.99580822e-01
9.99549476e-01
9.99518520e-01
9.99488060e-01
9.99458188e-01
9.99428984e-01
9.99400513e-01
9.99372824e-01
9.99345954e-01
9.99319925e-01
9.99294747e-01
9.99270419e-01
9.99246935e-01
9.99224279e-01
9.99202434e-01
9.99181380e-01
9.99161099e-01
9.99141580e-01
9.99122809e-01
9.99104780e-01
9.99087510e-01
9.99071011e-01
9.99055288e-01
9.99040381e-01
9.99026362e-01
9.99013240e-01
9.99001028e-01
9.98989854e-01
9.98979788e-01
9.98970771e-01
9.98962919e-01
9.98956356e-01
9.98950997e-01
9.98946744e-01
9.98943641e-01
1.00208033e+00
1.00207757e+00
1.00207445e+00
1.00207099e+00
1.00206697e+00
1.00206224e+00
1.00205671e+00
1.00205021e+00
1.00204259e+00
1.00203370e+00
1.00202338e+00
1.00201143e+00
1.00199770e+00
1.00198203e+00
1.00196425e+00
1.00194424e+00
1.00192188e+00
1.00189709e+00
1.00186979e+00
1.00183995e+00
1.00180756e+00
1.00177265e+00
1.00173527e+00
1.00169552e+00
1.00165351e+00
1.00160941e+00
1.00156337e+00
1.00151562e+00
1.00146637e+00
1.00141587e+00
1.00136437e+00
1.00131214e+00
1.00125944e+00
1.00120657e+00
1.00115377e+00
1.00110131e+00
1.00104945e+00
1.00099842e+00
1.00094843e+00
1.00089970e+00
1.00085240e+00
1.00080668e+00
1.00076268e+00
1.00072051e+00
1.00068025e+00
1.00064196e+00
1.00060568e+00
1.00057144e+00
1.00053921e+00
1.00050899e+00
1.00048072e+00
1.00045435e+00
1.00042981e+00
1.00040700e+00
1.00038584e+00
1.00036621e+00
1.00034799e+00
1.00033106e+00
1.00031528e+00
1.00030052e+00
1.00028664e+00
1.00027349e+00
1.00026091e+00
1.00024877e+00
1.00023692e+00
1.00022520e+00
1.00021347e+00
1.00020158e+00
1.00018940e+00
1.00017679e+00
1.00016363e+00
1.00014979e+00
1.00013516e+00
1.00011964e+00
1.00010314e+00
1.00008559e+00
1.00006692e+00
1.00004709e+00
1.00002606e+00
1.00000382e+00
9.99980382e-01
9.99955760e-01
9.99929997e-01
9.99903151e-01
9.99875295e-01
9.99846519e-01
9.99816927e-01
9.99786637e-01
9.99755772e-01
9.99724468e-01
9.99692861e-01
9.99661092e-01
9.99629300e-01
9.99597620e-01
9.99566181e-01
9.99535102e-01
9.99504491e-01
9.99474446e-01
9.99445049e-01
9.99416368e-01
9.99388455e-01
9.99361351e-01
9.99335082e-01
9.99309660e-01
9.99285089e-01
9.99261364e-01
9.99238473e-01
9.99216403e-01
9.99195136e-01
9.99174655e-01
9.99154950e-01
9.99136014e-01
9.99117841e-01
9.99100435e-01
9.99083820e-01
9.99068018e-01
9.99053040e-01
9.99038934e-01
9.99025768e-01
9.99013557e-01
9.99002330e-01
9.98992207e-01
9.98983214e-01
9.98975352e-01
9.98968737e-01
9.98963364e-01
9.98959103e-01
9.98956016e-01
1.00206058e+00
1.00205789e+00
1.00205481e+00
1.00205130e+00
1.00204723e+00
1.00204248e+00
1.00203688e+00
1.00203029e+00
1.00202261e+00
1.00201366e+00
1.00200325e+00
1.00199124e+00
1.00197746e+00
1.00196175e+00
1.00194396e+00
1.00192396e+00
1.00190165e+00
1.00187692e+00
1.00184973e+00
1.00182002e+00
1.00178780e+00
1.00175309e+00
1.00171595e+00
1.00167646e+00
1.00163474e+00
1.00159094e+00
1.00154524e+00
1.00149783e+00
1.00144894e+00
1.00139880e+00
1.00134766e+00
1.00129579e+00
1.00124345e+00
1.00119091e+00
1.00113845e+00
1.00108631e+00
1.00103475e+00
1.00098400e+00
1.00093430e+00
1.00088583e+00
1.00083878e+00
1.00079331e+00
1.00074956e+00
1.00070764e+00
1.00066764e+00
1.00062962e+00
1.00059363e+00
1.00055970e+00
1.00052781e+00
1.00049796e+00
1.00047010e+00
1.00044419e+00
1.00042014e+00
1.00039788e+00
1.00037731e+00
1.00035832e+00
1.00034080e+00
1.00032462e+00
1.00030964e+00
1.00029573e+00
1.00028274e+00
1.00027052e+00
1.00025893e+00
1.00024780e+00
1.00023698e+00
1.00022632e+00
1.00021566e+00
1.00020486e+00
1.00019377e+00
1.00018224e+00
1.00017014e+00
1.00015735e+00
1.00014374e+00
1.00012921e+00
1.00011366e+00
1.00009702e+00
1.00007920e+00
1.00006018e+00
1.00003990e+00
1.00001835e+00
9.99995542e-01
9.99971489e-01
9.99946234e-01
9.99919833e-01
9.99892362e-01
9.99863912e-01
9.99834589e-01
9.99804511e-01
9.99773806e-01
9.99742612e-01
9.99711067e-01
9.99679316e-01
9.99647501e-01
9.99615759e-01
9.99584223e-01
9.99553016e-01
9.99522250e-01
9.99492024e-01
9.99462424e-01
9.99433523e-01
9.99405376e-01
9.99378027e-01
9.99351505e-01
9.99325827e-01
9.99301000e-01
9.99277022e-01
9.99253885e-01
9.99231576e-01
9.99210084e-01
9.99189394e-01
9.99169492e-01
9.99150376e-01
9.99132049e-01
9.99114509e-01
9.99097767e-01
9.99081860e-01
9.99066815e-01
9.99052645e-01
9.99039403e-01
9.99027166e-01
9.99015939e-01
9.99005757e-01
9.98996735e-01
9.98988911e-01
9.98982268e-01
9.98976850e-01
9.98972632e-01
9.98969578e-01
1.00203958e+00
1.00203694e+00
1.00203387e+00
1.00203036e+00
1.00202627e+00
1.00202146e+00
1.00201578e+00
1.00200913e+00
1.00200137e+00
1.00199232e+00
1.00198184e+00
1.00196976e+00
1.00195592e+00
1.00194017e+00
1.00192236e+00
1.00190237e+00
1.00188008e+00
1.00185542e+00
1.00182832e+00
1.00179874e+00
1.00176669e+00
1.00173217e+00
1.00169526e+00
1.00165603e+00
1.00161460e+00
1.00157112e+00
1.00152575e+00
1.00147869e+00
1.00143016e+00
1.00138038e+00
1.00132962e+00
1.00127811e+00
1.00122614e+00
1.00117396e+00
1.00112183e+00
1.00107003e+00
1.00101878e+00
1.00096835e+00
1.00091893e+00
1.00087074e+00
1.00082397e+00
1.00077877e+00
1.00073529e+00
1.00069364e+00
1.00065393e+00
1.00061621e+00
1.00058054e+00
1.00054696e+00
1.00051545e+00
1.00048601e+00
1.00045861e+00
1.00043319e+00
1.00040969e+00
1.00038803e+00
1.00036811e+00
1.00034983e+00
1.00033307e+00
1.00031770e+00
1.00030359e+00
1.00029060e+00
1.00027858e+00
1.00026737e+00
1.00025683e+00
1.00024678e+00
1.00023708e+00
1.00022756e+00
1.00021806e+00
1.00020842e+00
1.00019848e+00
1.00018811e+00
1.00017715e+00
1.00016548e+00
1.00015296e+00
1.00013948e+00
1.00012495e+00
1.00010927e+00
1.00009237e+00
1.00007420e+00
1.00005471e+00
1.00003390e+00
1.00001176e+00
9.99988315e-01
9.99963598e-01
9.99937671e-01
9.99910609e-01
9.99882506e-01
9.99853469e-01
9.99823618e-01
9.99793085e-01
9.99762008e-01
9.99730531e-01
9.99698801e-01
9.99666963e-01
9.99635158e-01
9.99603522e-01
9.99572182e-01
9.99541253e-01
9.99510838e-01
9.99481027e-01
9.99451895e-01
9.99423503e-01
9.99395897e-01
9.99369111e-01
9.99343164e-01
9.99318068e-01
9.99293825e-01
9.99270429e-01
9.99247872e-01
9.99226142e-01
9.99205230e-01
9.99185126e-01
9.99165824e-01
9.99147325e-01
9.99129642e-01
9.99112783e-01
9.99096762e-01
9.99081623e-01
9.99067400e-01
9.99054109e-01
9.99041809e-01
9.99030562e-01
9.99020386e-01
9.99011333e-01
9.99003489e-01
9.98996865e-01
9.98991460e-01
9.98987245e-01
9.98984198e-01
1.00201743e+00
1.00201485e+00
1.00201181e+00
1.00200830e+00
1.00200419e+00
1.00199931e+00
1.00199357e+00
1.00198685e+00
1.00197898e+00
1.00196984e+00
1.00195928e+00
1.00194712e+00
1.00193320e+00
1.00191739e+00
1.00189955e+00
1.00187955e+00
1.00185728e+00
1.00183267e+00
1.00180565e+00
1.00177620e+00
1.00174430e+00
1.00170998e+00
1.00167329e+00
1.00163432e+00
1.00159317e+00
1.00155000e+00
1.00150497e+00
1.00145826e+00
1.00141009e+00
1.00136069e+00
1.00131030e+00
1.00125917e+00
1.00120757e+00
1.00115575e+00
1.00110398e+00
1.00105252e+00
1.00100160e+00
1.00095149e+00
1.00090238e+00
1.00085449e+00
1.00080801e+00
1.00076311e+00
1.00071992e+00
1.00067858e+00
1.00063917e+00
1.00060179e+00
1.00056648e+00
1.00053327e+00
1.00050218e+00
1.00047319e+00
1.00044629e+00
1.00042142e+00
1.00039852e+00
1.00037751e+00
1.00035829e+00
1.00034078e+00
1.00032484e+00
1.00031035e+00
1.00029717e+00
1.00028517e+00
1.00027418e+00
1.00026406e+00
1.00025464e+00
1.00024575e+00
1.00023724e+00
1.00022893e+00
1.00022065e+00
1.00021224e+00
1.00020354e+00
1.00019439e+00
1.00018464e+00
1.00017415e+00
1.00016278e+00
1.00015042e+00
1.00013696e+00
1.00012229e+00
1.00010636e+00
1.00008909e+00
1.00007044e+00
1.00005041e+00
1.00002897e+00
1.00000616e+00
9.99982013e-01
9.99956585e-01
9.99929955e-01
9.99902218e-01
9.99873483e-01
9.99843872e-01
9.99813520e-01
9.99782569e-01
9.99751166e-01
9.99719460e-01
9.99687599e-01
9.99655731e-01
9.99623992e-01
9.99592514e-01
9.99561415e-01
9.99530804e-01
9.99500773e-01
9.99471402e-01
9.99442754e-01
9.99414881e-01
9.99387819e-01
9.99361593e-01
9.99336218e-01
9.99311698e-01
9.99288032e-01
9.99265216e-01
9.99243239e-01
9.99222095e-01
9.99201778e-01
9.99182284e-01
9.99163613e-01
9.99145773e-01
9.99128786e-01
9.99112663e-01
9.99097428e-01
9.99083128e-01
9.99069799e-01
9.99057460e-01
9.99046171e-01
9.99035994e-01
9.99026945e-01
9.99019082e-01
9.99012468e-01
9.99007097e-01
9.99002895e-01
9.98999867e-01
1.00199427e+00
1.00199178e+00
1.00198877e+00
1.00198526e+00
1.00198111e+00
1.00197618e+00
1.00197037e+00
1.00196355e+00
1.00195559e+00
1.00194636e+00
1.00193568e+00
1.00192342e+00
1.00190942e+00
1.00189354e+00
1.00187564e+00
1.00185562e+00
1.00183336e+00
1.00180878e+00
1.00178184e+00
1.00175249e+00
1.00172073e+00
1.00168659e+00
1.00165012e+00
1.00161140e+00
1.00157053e+00
1.00152767e+00
1.00148297e+00
1.00143661e+00
1.00138880e+00
1.00133978e+00
1.00128976e+00
1.00123902e+00
1.00118779e+00
1.00113635e+00
1.00108494e+00
1.00103383e+00
1.00098327e+00
1.00093348e+00
1.00088470e+00
1.00083714e+00
1.00079097e+00
1.00074638e+00
1.00070351e+00
1.00066249e+00
1.00062343e+00
1.00058641e+00
1.00055149e+00
1.00051870e+00
1.00048806e+00
1.00045957e+00
1.00043321e+00
1.00040893e+00
1.00038668e+00
1.00036637e+00
1.00034792e+00
1.00033122e+00
1.00031616e+00
1.00030261e+00
1.00029043e+00
1.00027948e+00
1.00026959e+00
1.00026062e+00
1.00025239e+00
1.00024473e+00
1.00023747e+00
1.00023043e+00
1.00022344e+00
1.00021633e+00
1.00020893e+00
1.00020106e+00
1.00019258e+00
1.00018333e+00
1.00017317e+00
1.00016197e+00
1.00014963e+00
1.00013603e+00
1.00012110e+00
1.00010477e+00
1.00008701e+00
1.00006778e+00
1.00004709e+00
1.00002494e+00
1.00000139e+00
9.99976484e-01
9.99950307e-01
9.99922953e-01
9.99894535e-01
9.99865177e-01
9.99835016e-01
9.99804198e-01
9.99772873e-01
9.99741193e-01
9.99709312e-01
9.99677378e-01
9.99645533e-01
9.99613913e-01
9.99582640e-01
9.99551825e-01
9.99521566e-01
9.99491945e-01
9.99463033e-01
9.99434882e-01
9.99407534e-01
9.99381018e-01
9.99355352e-01
9.99330545e-01
9.99306600e-01
9.99283514e-01
9.99261283e-01
9.99239900e-01
9.99219361e-01
9.99199667e-01
9.99180820e-01
9.99162826e-01
9.99145699e-01
9.99129469e-01
9.99114151e-01
9.99099775e-01
9.99086388e-01
9.99074027e-01
9.99062718e-01
9.99052518e-01
9.99043477e-01
9.99035632e-01
9.99029027e-01
9.99023674e-01
9.99019514e-01
9.99016536e-01
1.00197026e+00
1.00196786e+00
1.00196490e+00
1.00196138e+00
1.00195720e+00
1.00195221e+00
1.00194632e+00
1.00193940e+00
1.00193133e+00
1.00192198e+00
1.00191118e+00
1.00189881e+00
1.00188470e+00
1.00186873e+00
1.00185077e+00
1.00183070e+00
1.00180842e+00
1.00178386e+00
1.00175697e+00
1.00172771e+00
1.00169609e+00
1.00166211e+00
1.00162584e+00
1.00158736e+00
1.00154677e+00
1.00150421e+00
1.00145983e+00
1.00141382e+00
1.00136637e+00
1.00131772e+00
1.00126809e+00
1.00121773e+00
1.00116689e+00
1.00111583e+00
1.00106480e+00
1.00101405e+00
1.00096385e+00
1.00091441e+00
1.00086597e+00
1.00081874e+00
1.00077291e+00
1.00072866e+00
1.00068614e+00
1.00064547e+00
1.00060678e+00
1.00057015e+00
1.00053565e+00
1.00050331e+00
1.00047317e+00
1.00044522e+00
1.00041944e+00
1.00039580e+00
1.00037424e+00
1.00035468e+00
1.00033705e+00
1.00032122e+00
1.00030710e+00
1.00029454e+00
1.00028341e+00
1.00027357e+00
1.00026484e+00
1.00025708e+00
1.00025009e+00
1.00024372e+00
1.00023777e+00