# vtk DataFile Version 2.0
LBM Flow Field - Timestep 870
ASCII
DATASET STRUCTURED_POINTS
DIMENSIONS 128 128 1
ORIGIN 0.0 0.0 0.0
SPACING 1.0 1.0 1.0
POINT_DATA 16384
SCALARS density double 1
LOOKUP_TABLE default
1.00114016e+00
1.00113747e+00
1.00113376e+00
1.00113147e+00
1.00112812e+00
1.00112333e+00
1.00111753e+00
1.00111021e+00
1.00110062e+00
1.00108835e+00
1.00107300e+00
1.00105396e+00
1.00103059e+00
1.00100226e+00
1.00096837e+00
1.00092825e+00
1.00088135e+00
1.00082719e+00
1.00076541e+00
1.00069579e+00
1.00061830e+00
1.00053312e+00
1.00044063e+00
1.00034144e+00
1.00023640e+00
1.00012654e+00
1.00001307e+00
9.99897361e-01
9.99780863e-01
9.99665075e-01
9.99551488e-01
9.99441535e-01
9.99336538e-01
9.99237673e-01
9.99145938e-01
9.99062133e-01
9.98986860e-01
9.98920523e-01
9.98863354e-01
9.98815432e-01
9.98776725e-01
9.98747114e-01
9.98726438e-01
9.98714517e-01
9.98711182e-01
9.98716285e-01
9.98729713e-01
9.98751385e-01
9.98781242e-01
9.98819237e-01
9.98865316e-01
9.98919401e-01
9.98981368e-01
9.99051032e-01
9.99128138e-01
9.99212346e-01
9.99303235e-01
9.99400299e-01
9.99502958e-01
9.99610568e-01
9.99722433e-01
9.99837825e-01
9.99955996e-01
1.00007619e+00
1.00019768e+00
1.00031972e+00
1.00044162e+00
1.00056269e+00
1.00068227e+00
1.00079970e+00
1.00091431e+00
1.00102540e+00
1.00113225e+00
1.00123409e+00
1.00133006e+00
1.00141926e+00
1.00150073e+00
1.00157343e+00
1.00163630e+00
1.00168826e+00
1.00172823e+00
1.00175521e+00
1.00176826e+00
1.00176660e+00
1.00174964e+00
1.00171701e+00
1.00166863e+00
1.00160472e+00
1.00152586e+00
1.00143297e+00
1.00132731e+00
1.00121049e+00
1.00108441e+00
1.00095118e+00
1.00081311e+00
1.00067255e+00
1.00053189e+00
1.00039338e+00
1.00025912e+00
1.00013095e+00
1.00001044e+00
9.99898787e-01
9.99796854e-01
9.99705152e-01
9.99623863e-01
9.99552872e-01
9.99491812e-01
9.99440110e-01
9.99397039e-01
9.99361775e-01
9.99333434e-01
9.99311110e-01
9.99293918e-01
9.99281030e-01
9.99271667e-01
9.99265101e-01
9.99260727e-01
9.99258058e-01
9.99256592e-01
9.99255887e-01
9.99255827e-01
9.99256258e-01
9.99256460e-01
9.99256132e-01
9.99256285e-01
9.99256409e-01
9.99252515e-01
9.99249063e-01
1.00113728e+00
1.00113636e+00
1.00113393e+00
1.00113145e+00
1.00112808e+00
1.00112339e+00
1.00111739e+00
1.00110966e+00
1.00109977e+00
1.00108716e+00
1.00107137e+00
1.00105183e+00
1.00102792e+00
1.00099902e+00
1.00096452e+00
1.00092380e+00
1.00087633e+00
1.00082166e+00
1.00075946e+00
1.00068953e+00
1.00061189e+00
1.00052672e+00
1.00043444e+00
1.00033567e+00
1.00023124e+00
1.00012219e+00
1.00000972e+00
9.99895163e-01
9.99779944e-01
9.99665523e-01
9.99553350e-01
9.99444813e-01
9.99341195e-01
9.99243635e-01
9.99153102e-01
9.99070375e-01
9.98996041e-01
9.98930504e-01
9.98873996e-01
9.98826611e-01
9.98788328e-01
9.98759050e-01
9.98738629e-01
9.98726904e-01
9.98723712e-01
9.98728915e-01
9.98742399e-01
9.98764075e-01
9.98793877e-01
9.98831746e-01
9.98877613e-01
9.98931385e-01
9.98992925e-01
9.99062042e-01
9.99138472e-01
9.99221877e-01
9.99311837e-01
9.99407856e-01
9.99509367e-01
9.99615740e-01
9.99726299e-01
9.99840333e-01
9.99957113e-01
1.00007590e+00
1.00019598e+00
1.00031663e+00
1.00043715e+00
1.00055689e+00
1.00067516e+00
1.00079132e+00
1.00090470e+00
1.00101461e+00
1.00112033e+00
1.00122109e+00
1.00131606e+00
1.00140434e+00
1.00148499e+00
1.00155699e+00
1.00161931e+00
1.00167087e+00
1.00171065e+00
1.00173764e+00
1.00175095e+00
1.00174981e+00
1.00173362e+00
1.00170205e+00
1.00165499e+00
1.00159267e+00
1.00151562e+00
1.00142473e+00
1.00132122e+00
1.00120664e+00
1.00108282e+00
1.00095181e+00
1.00081583e+00
1.00067719e+00
1.00053820e+00
1.00040108e+00
1.00026790e+00
1.00014049e+00
1.00002040e+00
9.99908856e-01
9.99806754e-01
9.99714641e-01
9.99632743e-01
9.99560993e-01
9.99499070e-01
9.99446446e-01
9.99402438e-01
9.99366249e-01
9.99337024e-01
9.99313882e-01
9.99295954e-01
9.99282409e-01
9.99272474e-01
9.99265441e-01
9.99260701e-01
9.99257709e-01
9.99256003e-01
9.99255197e-01
9.99255032e-01
9.99255201e-01
9.99255381e-01
9.99255419e-01
9.99255485e-01
9.99255379e-01
9.99253456e-01
9.99252766e-01
1.00113449e+00
1.00113483e+00
1.00113477e+00
1.00113208e+00
1.00112834e+00
1.00112383e+00
1.00111774e+00
1.00110968e+00
1.00109951e+00
1.00108666e+00
1.00107051e+00
1.00105054e+00
1.00102618e+00
1.00099680e+00
1.00096178e+00
1.00092056e+00
1.00087261e+00
1.00081752e+00
1.00075498e+00
1.00068483e+00
1.00060711e+00
1.00052202e+00
1.00043001e+00
1.00033170e+00
1.00022795e+00
1.00011978e+00
1.00000839e+00
9.99895082e-01
9.99781262e-01
9.99668354e-01
9.99557771e-01
9.99450861e-01
9.99348869e-01
9.99252898e-01
9.99163882e-01
9.99082576e-01
9.99009550e-01
9.98945195e-01
9.98889740e-01
9.98843280e-01
9.98805799e-01
9.98777206e-01
9.98757363e-01
9.98746111e-01
9.98743294e-01
9.98748767e-01
9.98762412e-01
9.98784130e-01
9.98813840e-01
9.98851467e-01
9.98896925e-01
9.98950106e-01
9.99010862e-01
9.99078991e-01
9.99154228e-01
9.99236236e-01
9.99324606e-01
9.99418857e-01
9.99518442e-01
9.99622755e-01
9.99731150e-01
9.99842944e-01
9.99957440e-01
1.00007393e+00
1.00019173e+00
1.00031013e+00
1.00042848e+00
1.00054612e+00
1.00066240e+00
1.00077668e+00
1.00088830e+00
1.00099660e+00
1.00110086e+00
1.00120031e+00
1.00129414e+00
1.00138148e+00
1.00146138e+00
1.00153285e+00
1.00159487e+00
1.00164639e+00
1.00168638e+00
1.00171385e+00
1.00172793e+00
1.00172784e+00
1.00171299e+00
1.00168302e+00
1.00163783e+00
1.00157759e+00
1.00150281e+00
1.00141433e+00
1.00131332e+00
1.00120125e+00
1.00107989e+00
1.00095124e+00
1.00081744e+00
1.00068074e+00
1.00054342e+00
1.00040766e+00
1.00027550e+00
1.00014879e+00
1.00002907e+00
9.99917603e-01
9.99815310e-01
9.99722782e-01
9.99640291e-01
9.99567816e-01
9.99505081e-01
9.99451602e-01
9.99406730e-01
9.99369700e-01
9.99339677e-01
9.99315804e-01
9.99297224e-01
9.99283101e-01
9.99272668e-01
9.99265245e-01
9.99260191e-01
9.99256918e-01
9.99255027e-01
9.99254195e-01
9.99253920e-01
9.99253837e-01
9.99254162e-01
9.99254705e-01
9.99254268e-01
9.99253624e-01
9.99255400e-01
9.99256535e-01
1.00113504e+00
1.00113528e+00
1.00113467e+00
1.00113246e+00
1.00112915e+00
1.00112440e+00
1.00111806e+00
1.00110992e+00
1.00109950e+00
1.00108629e+00
1.00106979e+00
1.00104944e+00
1.00102465e+00
1.00099481e+00
1.00095935e+00
1.00091770e+00
1.00086938e+00
1.00081398e+00
1.00075125e+00
1.00068104e+00
1.00060342e+00
1.00051863e+00
1.00042712e+00
1.00032954e+00
1.00022673e+00
1.00011972e+00
1.00000969e+00
9.99897929e-01
9.99785799e-01
9.99674695e-01
9.99565989e-01
9.99460989e-01
9.99360901e-01
9.99266792e-01
9.99179567e-01
9.99099956e-01
9.99028513e-01
9.98965617e-01
9.98911495e-01
9.98866240e-01
9.98829839e-01
9.98802205e-01
9.98783199e-01
9.98772661e-01
9.98770427e-01
9.98776341e-01
9.98790268e-01
9.98812087e-01
9.98841695e-01
9.98878990e-01
9.98923865e-01
9.98976191e-01
9.99035803e-01
9.99102490e-01
9.99175987e-01
9.99255963e-01
9.99342025e-01
9.99433716e-01
9.99530520e-01
9.99631871e-01
9.99737165e-01
9.99845767e-01
9.99957025e-01
1.00007028e+00
1.00018489e+00
1.00030020e+00
1.00041557e+00
1.00053039e+00
1.00064403e+00
1.00075587e+00
1.00086527e+00
1.00097158e+00
1.00107408e+00
1.00117203e+00
1.00126461e+00
1.00135095e+00
1.00143012e+00
1.00150113e+00
1.00156298e+00
1.00161461e+00
1.00165502e+00
1.00168321e+00
1.00169830e+00
1.00169953e+00
1.00168629e+00
1.00165822e+00
1.00161518e+00
1.00155732e+00
1.00148511e+00
1.00139934e+00
1.00130113e+00
1.00119188e+00
1.00107330e+00
1.00094732e+00
1.00081601e+00
1.00068159e+00
1.00054625e+00
1.00041215e+00
1.00028132e+00
1.00015558e+00
1.00003649e+00
9.99925333e-01
9.99823056e-01
9.99730291e-01
9.99647356e-01
9.99574276e-01
9.99510825e-01
9.99456560e-01
9.99410871e-01
9.99373031e-01
9.99342234e-01
9.99317635e-01
9.99298394e-01
9.99283698e-01
9.99272777e-01
9.99264926e-01
9.99259527e-01
9.99256036e-01
9.99253956e-01
9.99252904e-01
9.99252585e-01
9.99252659e-01
9.99252811e-01
9.99253102e-01
9.99253543e-01
9.99253744e-01
9.99254728e-01
9.99255554e-01
1.00113631e+00
1.00113615e+00
1.00113503e+00
1.00113331e+00
1.00113010e+00
1.00112507e+00
1.00111860e+00
1.00111033e+00
1.00109963e+00
1.00108608e+00
1.00106924e+00
1.00104852e+00
1.00102330e+00
1.00099303e+00
1.00095715e+00
1.00091513e+00
1.00086649e+00
1.00081088e+00
1.00074806e+00
1.00067793e+00
1.00060059e+00
1.00051630e+00
1.00042552e+00
1.00032892e+00
1.00022735e+00
1.00012182e+00
1.00001350e+00
9.99903643e-01
9.99793581e-01
9.99684663e-01
9.99578219e-01
9.99475512e-01
9.99377701e-01
9.99285816e-01
9.99200727e-01
9.99123138e-01
9.99053585e-01
9.98992436e-01
9.98939913e-01
9.98896109e-01
9.98861013e-01
9.98834539e-01
9.98816547e-01
9.98806873e-01
9.98805340e-01
9.98811775e-01
9.98826021e-01
9.98847929e-01
9.98877364e-01
9.98914194e-01
9.98958281e-01
9.99009471e-01
9.99067580e-01
9.99132388e-01
9.99203627e-01
9.99280978e-01
9.99364069e-01
9.99452474e-01
9.99545720e-01
9.99643290e-01
9.99744633e-01
9.99849175e-01
9.99956327e-01
1.00006549e+00
1.00017607e+00
1.00028747e+00
1.00039910e+00
1.00051038e+00
1.00062072e+00
1.00072952e+00
1.00083616e+00
1.00094000e+00
1.00104034e+00
1.00113643e+00
1.00122747e+00
1.00131259e+00
1.00139087e+00
1.00146133e+00
1.00152295e+00
1.00157470e+00
1.00161557e+00
1.00164459e+00
1.00166085e+00
1.00166360e+00
1.00165224e+00
1.00162635e+00
1.00158580e+00
1.00153070e+00
1.00146148e+00
1.00137887e+00
1.00128392e+00
1.00117799e+00
1.00106268e+00
1.00093985e+00
1.00081152e+00
1.00067981e+00
1.00054688e+00
1.00041484e+00
1.00028568e+00
1.00016122e+00
1.00004303e+00
9.99932389e-01
9.99830301e-01
9.99737433e-01
9.99654151e-01
9.99580534e-01
9.99516408e-01
9.99461380e-01
9.99414884e-01
9.99376230e-01
9.99344646e-01
9.99319309e-01
9.99299392e-01
9.99284102e-01
9.99272677e-01
9.99264395e-01
9.99258638e-01
9.99254896e-01
9.99252648e-01
9.99251409e-01
9.99250968e-01
9.99251148e-01
9.99251363e-01
9.99251393e-01
9.99252134e-01
9.99253217e-01
9.99253502e-01
9.99253880e-01
1.00113776e+00
1.00113751e+00
1.00113650e+00
1.00113446e+00
1.00113095e+00
1.00112606e+00
1.00111952e+00
1.00111091e+00
1.00109994e+00
1.00108615e+00
1.00106895e+00
1.00104782e+00
1.00102222e+00
1.00099157e+00
1.00095532e+00
1.00091297e+00
1.00086411e+00
1.00080839e+00
1.00074561e+00
1.00067572e+00
1.00059883e+00
1.00051524e+00
1.00042543e+00
1.00033008e+00
1.00023003e+00
1.00012629e+00
1.00001999e+00
9.99912370e-01
9.99804715e-01
9.99698331e-01
9.99594497e-01
9.99494427e-01
9.99399233e-01
9.99309900e-01
9.99227264e-01
9.99152001e-01
9.99084625e-01
9.99025493e-01
9.98974820e-01
9.98932698e-01
9.98899115e-01
9.98873983e-01
9.98857161e-01
9.98848474e-01
9.98847729e-01
9.98854734e-01
9.98869300e-01
9.98891250e-01
9.98920411e-01
9.98956617e-01
9.98999696e-01
9.99049465e-01
9.99105722e-01
9.99168234e-01
9.99236736e-01
9.99310921e-01
9.99390443e-01
9.99474914e-01
9.99563909e-01
9.99656968e-01
9.99753607e-01
9.99853319e-01
9.99955584e-01
1.00005988e+00
1.00016566e+00
1.00027241e+00
1.00037958e+00
1.00048664e+00
1.00059304e+00
1.00069821e+00
1.00080155e+00
1.00090243e+00
1.00100016e+00
1.00109401e+00
1.00118318e+00
1.00126681e+00
1.00134398e+00
1.00141372e+00
1.00147501e+00
1.00152684e+00
1.00156819e+00
1.00159809e+00
1.00161565e+00
1.00162010e+00
1.00161083e+00
1.00158741e+00
1.00154967e+00
1.00149769e+00
1.00143184e+00
1.00135281e+00
1.00126156e+00
1.00115938e+00
1.00104779e+00
1.00092857e+00
1.00080366e+00
1.00067509e+00
1.00054498e+00
1.00041537e+00
1.00028822e+00
1.00016535e+00
1.00004832e+00
9.99938435e-01
9.99836729e-01
9.99743914e-01
9.99660411e-01
9.99586352e-01
9.99521619e-01
9.99465872e-01
9.99418597e-01
9.99379143e-01
9.99346770e-01
9.99320691e-01
9.99300100e-01
9.99284198e-01
9.99272240e-01
9.99263537e-01
9.99257439e-01
9.99253375e-01
9.99250909e-01
9.99249632e-01
9.99249087e-01
9.99249020e-01
9.99249392e-01
9.99249866e-01
9.99250318e-01
9.99251073e-01
9.99251743e-01
9.99252244e-01
1.00113983e+00
1.00113939e+00
1.00113832e+00
1.00113600e+00
1.00113240e+00
1.00112746e+00
1.00112069e+00
1.00111186e+00
1.00110066e+00
1.00108657e+00
1.00106902e+00
1.00104753e+00
1.00102157e+00
1.00099056e+00
1.00095399e+00
1.00091140e+00
1.00086240e+00
1.00080668e+00
1.00074408e+00
1.00067458e+00
1.00059833e+00
1.00051565e+00
1.00042704e+00
1.00033319e+00
1.00023493e+00
1.00013327e+00
1.00002930e+00
9.99924238e-01
9.99819317e-01
9.99715794e-01
9.99614896e-01
9.99517780e-01
9.99425511e-01
9.99339025e-01
9.99259121e-01
9.99186444e-01
9.99121486e-01
9.99064591e-01
9.99015966e-01
9.98975701e-01
9.98943783e-01
9.98920122e-01
9.98904569e-01
9.98896940e-01
9.98897024e-01
9.98904604e-01
9.98919460e-01
9.98941378e-01
9.98970148e-01
9.99005564e-01
9.99047418e-01
9.99095498e-01
9.99149581e-01
9.99209423e-01
9.99274762e-01
9.99345306e-01
9.99420739e-01
9.99500715e-01
9.99584864e-01
9.99672790e-01
9.99764080e-01
9.99858303e-01
9.99955017e-01
1.00005377e+00
1.00015410e+00
1.00025555e+00
1.00035764e+00
1.00045988e+00
1.00056176e+00
1.00066274e+00
1.00076226e+00
1.00085969e+00
1.00095438e+00
1.00104559e+00
1.00113253e+00
1.00121435e+00
1.00129013e+00
1.00135892e+00
1.00141971e+00
1.00147149e+00
1.00151325e+00
1.00154402e+00
1.00156292e+00
1.00156916e+00
1.00156213e+00
1.00154137e+00
1.00150669e+00
1.00145813e+00
1.00139599e+00
1.00132090e+00
1.00123376e+00
1.00113575e+00
1.00102833e+00
1.00091316e+00
1.00079210e+00
1.00066711e+00
1.00054021e+00
1.00041342e+00
1.00028864e+00
1.00016767e+00
1.00005208e+00
9.99943197e-01
9.99842076e-01
9.99749483e-01
9.99665890e-01
9.99591491e-01
9.99526226e-01
9.99469814e-01
9.99421794e-01
9.99381561e-01
9.99348413e-01
9.99321591e-01
9.99300318e-01
9.99283809e-01
9.99271314e-01
9.99262158e-01
9.99255711e-01
9.99251372e-01
9.99248660e-01
9.99247231e-01
9.99246667e-01
9.99246533e-01
9.99246799e-01
9.99247440e-01
9.99247951e-01
9.99248477e-01
9.99249270e-01
9.99249697e-01
1.00114247e+00
1.00114181e+00
1.00114046e+00
1.00113811e+00
1.00113445e+00
1.00112922e+00
1.00112225e+00
1.00111330e+00
1.00110184e+00
1.00108740e+00
1.00106955e+00
1.00104775e+00
1.00102145e+00
1.00099013e+00
1.00095332e+00
1.00091057e+00
1.00086153e+00
1.00080593e+00
1.00074366e+00
1.00067472e+00
1.00059930e+00
1.00051775e+00
1.00043058e+00
1.00033847e+00
1.00024229e+00
1.00014299e+00
1.00004165e+00
9.99939445e-01
9.99837559e-01
9.99737196e-01
9.99639524e-01
9.99545644e-01
9.99456564e-01
9.99373174e-01
9.99296230e-01
9.99226347e-01
9.99163993e-01
9.99109499e-01
9.99063063e-01
9.99024772e-01
9.98994611e-01
9.98972488e-01
9.98958248e-01
9.98951692e-01
9.98952592e-01
9.98960705e-01
9.98975777e-01
9.98997557e-01
9.99025794e-01
9.99060241e-01
9.99100656e-01
9.99146794e-01
9.99198412e-01
9.99255257e-01
9.99317068e-01
9.99383574e-01
9.99454490e-01
9.99529516e-01
9.99608338e-01
9.99690631e-01
9.99776054e-01
9.99864260e-01
9.99954885e-01
1.00004756e+00
1.00014190e+00
1.00023752e+00
1.00033398e+00
1.00043087e+00
1.00052772e+00
1.00062402e+00
1.00071923e+00
1.00081276e+00
1.00090395e+00
1.00099209e+00
1.00107640e+00
1.00115605e+00
1.00123012e+00
1.00129767e+00
1.00135770e+00
1.00140922e+00
1.00145123e+00
1.00148276e+00
1.00150294e+00
1.00151097e+00
1.00150623e+00
1.00148826e+00
1.00145681e+00
1.00141187e+00
1.00135372e+00
1.00128289e+00
1.00120020e+00
1.00110675e+00
1.00100389e+00
1.00089319e+00
1.00077640e+00
1.00065540e+00
1.00053213e+00
1.00040854e+00
1.00028650e+00
1.00016778e+00
1.00005393e+00
9.99946309e-01
9.99846005e-01
9.99753828e-01
9.99670307e-01
9.99595696e-01
9.99530000e-01
9.99472999e-01
9.99424285e-01
9.99383308e-01
9.99349410e-01
9.99321860e-01
9.99299901e-01
9.99282783e-01
9.99269768e-01
9.99260148e-01
9.99253310e-01
9.99248713e-01
9.99245812e-01
9.99244150e-01
9.99243462e-01
9.99243436e-01
9.99243658e-01
9.99244082e-01
9.99244732e-01
9.99245418e-01
9.99245970e-01
9.99246217e-01
1.00114540e+00
1.00114465e+00
1.00114319e+00
1.00114076e+00
1.00113692e+00
1.00113152e+00
1.00112442e+00
1.00111524e+00
1.00110350e+00
1.00108881e+00
1.00107067e+00
1.00104856e+00
1.00102197e+00
1.00099042e+00
1.00095344e+00
1.00091063e+00
1.00086166e+00
1.00080632e+00
1.00074453e+00
1.00067633e+00
1.00060194e+00
1.00052173e+00
1.00043624e+00
1.00034615e+00
1.00025230e+00
1.00015564e+00
1.00005722e+00
9.99958156e-01
9.99859588e-01
9.99762660e-01
9.99668477e-01
9.99578081e-01
9.99492421e-01
9.99412335e-01
9.99338538e-01
9.99271609e-01
9.99211994e-01
9.99160008e-01
9.99115842e-01
9.99079579e-01
9.99051204e-01
9.99030621e-01
9.99017670e-01
9.99012141e-01
9.99013786e-01
9.99022335e-01
9.99037503e-01
9.99059001e-01
9.99086537e-01
9.99119826e-01
9.99158589e-01
9.99202551e-01
9.99251447e-01
9.99305018e-01
9.99363007e-01
9.99425162e-01
9.99491230e-01
9.99560961e-01
9.99634099e-01
9.99710387e-01
9.99789564e-01
9.99871359e-01
9.99955496e-01
1.00004168e+00
1.00012961e+00
1.00021896e+00
1.00030938e+00
1.00040048e+00
1.00049184e+00
1.00058301e+00
1.00067345e+00
1.00076262e+00
1.00084986e+00
1.00093449e+00
1.00101574e+00
1.00109278e+00
1.00116474e+00
1.00123067e+00
1.00128961e+00
1.00134057e+00
1.00138256e+00
1.00141465e+00
1.00143596e+00
1.00144569e+00
1.00144322e+00
1.00142805e+00
1.00139992e+00
1.00135877e+00
1.00130481e+00
1.00123850e+00
1.00116057e+00
1.00107202e+00
1.00097409e+00
1.00086826e+00
1.00075615e+00
1.00063956e+00
1.00052033e+00
1.00040034e+00
1.00028141e+00
1.00016527e+00
1.00005349e+00
9.99947421e-01
9.99848185e-01
9.99756639e-01
9.99673370e-01
9.99598695e-01
9.99532685e-01
9.99475186e-01
9.99425852e-01
9.99384181e-01
9.99349565e-01
9.99321314e-01
9.99298692e-01
9.99280964e-01
9.99267419e-01
9.99257361e-01
9.99250147e-01
9.99245231e-01
9.99242125e-01
9.99240337e-01
9.99239498e-01
9.99239387e-01
9.99239654e-01
9.99240042e-01
9.99240642e-01
9.99241376e-01
9.99241907e-01
9.99242173e-01
1.00114873e+00
1.00114799e+00
1.00114654e+00
1.00114394e+00
1.00113994e+00
1.00113445e+00
1.00112717e+00
1.00111774e+00
1.00110579e+00
1.00109088e+00
1.00107247e+00
1.00105010e+00
1.00102330e+00
1.00099158e+00
1.00095452e+00
1.00091174e+00
1.00086298e+00
1.00080806e+00
1.00074691e+00
1.00067965e+00
1.00060650e+00
1.00052786e+00
1.00044428e+00
1.00035646e+00
1.00026520e+00
1.00017145e+00
1.00007622e+00
9.99980557e-01
9.99885563e-01
9.99792313e-01
9.99701847e-01
9.99615142e-01
9.99533086e-01
9.99456465e-01
9.99385947e-01
9.99322078e-01
9.99265280e-01
9.99215851e-01
9.99173976e-01
9.99139735e-01
9.99113113e-01
9.99094012e-01
9.99082268e-01
9.99077660e-01
9.99079925e-01
9.99088767e-01
9.99103872e-01
9.99124913e-01
9.99151562e-01
9.99183496e-01
9.99220399e-01
9.99261971e-01
9.99307927e-01
9.99357999e-01
9.99411939e-01
9.99469512e-01
9.99530501e-01
9.99594700e-01
9.99661915e-01
9.99731954e-01
9.99804632e-01
9.99879758e-01
9.99957135e-01
1.00003655e+00
1.00011777e+00
1.00020054e+00
1.00028456e+00
1.00036951e+00
1.00045501e+00
1.00054063e+00
1.00062590e+00
1.00071025e+00
1.00079309e+00
1.00087375e+00
1.00095147e+00
1.00102545e+00
1.00109484e+00
1.00115872e+00
1.00121614e+00
1.00126616e+00
1.00130781e+00
1.00134016e+00
1.00136234e+00
1.00137360e+00
1.00137326e+00
1.00136085e+00
1.00133604e+00
1.00129875e+00
1.00124910e+00
1.00118750e+00
1.00111457e+00
1.00103122e+00
1.00093856e+00
1.00083795e+00
1.00073091e+00
1.00061912e+00
1.00050433e+00
1.00038834e+00
1.00027290e+00
1.00015972e+00
1.00005034e+00
9.99946132e-01
9.99848239e-01
9.99757565e-01
9.99674754e-01
9.99600190e-01
9.99534010e-01
9.99476127e-01
9.99426262e-01
9.99383971e-01
9.99348688e-01
9.99319768e-01
9.99296516e-01
9.99278204e-01
9.99264128e-01
9.99253628e-01
9.99246067e-01
9.99240844e-01
9.99237480e-01
9.99235568e-01
9.99234652e-01
9.99234394e-01
9.99234624e-01
9.99235104e-01
9.99235646e-01
9.99236292e-01
9.99236959e-01
9.99237337e-01
1.00115268e+00
1.00115194e+00
1.00115045e+00
1.00114775e+00
1.00114367e+00
1.00113804e+00
1.00113058e+00
1.00112098e+00
1.00110884e+00
1.00109369e+00
1.00107507e+00
1.00105253e+00
1.00102557e+00
1.00099377e+00
1.00095673e+00
1.00091413e+00
1.00086571e+00
1.00081135e+00
1.00075104e+00
1.00068490e+00
1.00061321e+00
1.00053637e+00
1.00045494e+00
1.00036963e+00
1.00028122e+00
1.00019063e+00
1.00009882e+00
1.00000681e+00
9.99915611e-01
9.99826247e-01
9.99739687e-01
9.99656839e-01
9.99578528e-01
9.99505484e-01
9.99438329e-01
9.99377573e-01
9.99323613e-01
9.99276734e-01
9.99237112e-01
9.99204826e-01
9.99179863e-01
9.99162126e-01
9.99151449e-01
9.99147604e-01
9.99150312e-01
9.99159259e-01
9.99174103e-01
9.99194485e-01
9.99220042e-01
9.99250417e-01
9.99285263e-01
9.99324255e-01
9.99367090e-01
9.99413495e-01
9.99463226e-01
9.99516071e-01
9.99571843e-01
9.99630383e-01
9.99691550e-01
9.99755219e-01
9.99821273e-01
9.99889598e-01
9.99960068e-01
1.00003255e+00
1.00010687e+00
1.00018284e+00
1.00026023e+00
1.00033875e+00
1.00041807e+00
1.00049780e+00
1.00057749e+00
1.00065663e+00
1.00073462e+00
1.00081082e+00
1.00088452e+00
1.00095495e+00
1.00102127e+00
1.00108260e+00
1.00113804e+00
1.00118667e+00
1.00122754e+00
1.00125978e+00
1.00128253e+00
1.00129502e+00
1.00129662e+00
1.00128681e+00
1.00126525e+00
1.00123180e+00
1.00118653e+00
1.00112976e+00
1.00106202e+00
1.00098409e+00
1.00089698e+00
1.00080192e+00
1.00070031e+00
1.00059369e+00
1.00048373e+00
1.00037212e+00
1.00026056e+00
1.00015070e+00
1.00004407e+00
9.99942041e-01
9.99845783e-01
9.99756242e-01
9.99674117e-01
9.99599858e-01
9.99533674e-01
9.99475546e-01
9.99425260e-01
9.99382435e-01
9.99346560e-01
9.99317025e-01
9.99293172e-01
9.99274311e-01
9.99259743e-01
9.99248802e-01
9.99240879e-01
9.99235390e-01
9.99231802e-01
9.99229694e-01
9.99228686e-01
9.99228388e-01
9.99228544e-01
9.99229001e-01
9.99229573e-01
9.99230225e-01
9.99230934e-01
9.99231370e-01
1.00115733e+00
1.00115659e+00
1.00115505e+00
1.00115232e+00
1.00114815e+00
1.00114238e+00
1.00113479e+00
1.00112506e+00
1.00111275e+00
1.00109742e+00
1.00107866e+00
1.00105599e+00
1.00102897e+00
1.00099719e+00
1.00096030e+00
1.00091800e+00
1.00087008e+00
1.00081646e+00
1.00075717e+00
1.00069236e+00
1.00062232e+00
1.00054751e+00
1.00046847e+00
1.00038590e+00
1.00030058e+00
1.00021337e+00
1.00012521e+00
1.00003704e+00
9.99949837e-01
9.99864529e-01
9.99782021e-01
9.99703148e-01
9.99628673e-01
9.99559267e-01
9.99495505e-01
9.99437860e-01
9.99386704e-01
9.99342309e-01
9.99304845e-01
9.99274392e-01
9.99250939e-01
9.99234394e-01
9.99224591e-01
9.99221300e-01
9.99224233e-01
9.99233059e-01
9.99247414e-01
9.99266913e-01
9.99291164e-01
9.99319777e-01
9.99352381e-01
9.99388627e-01
9.99428199e-01
9.99470819e-01
9.99516251e-01
9.99564299e-01
9.99614808e-01
9.99667658e-01
9.99722762e-01
9.99780052e-01
9.99839475e-01
9.99900983e-01
9.99964518e-01
1.00003001e+00
1.00009735e+00
1.00016641e+00
1.00023701e+00
1.00030890e+00
1.00038179e+00
1.00045534e+00
1.00052912e+00
1.00060264e+00
1.00067536e+00
1.00074665e+00
1.00081584e+00
1.00088219e+00
1.00094491e+00
1.00100317e+00
1.00105610e+00
1.00110283e+00
1.00114245e+00
1.00117413e+00
1.00119703e+00
1.00121042e+00
1.00121366e+00
1.00120622e+00
1.00118774e+00
1.00115805e+00
1.00111714e+00
1.00106523e+00
1.00100278e+00
1.00093045e+00
1.00084912e+00
1.00075988e+00
1.00066400e+00
1.00056290e+00
1.00045812e+00
1.00035126e+00
1.00024396e+00
1.00013779e+00
1.00003426e+00
9.99934740e-01
9.99840424e-01
9.99752294e-01
9.99671105e-01
9.99597370e-01
9.99531369e-01
9.99473155e-01
9.99422581e-01
9.99379330e-01
9.99342948e-01
9.99312874e-01
9.99288476e-01
9.99269099e-01
9.99254073e-01
9.99242732e-01
9.99234454e-01
9.99228690e-01
9.99224912e-01
9.99222632e-01
9.99221490e-01
9.99221159e-01
9.99221289e-01
9.99221681e-01
9.99222271e-01
9.99222976e-01
9.99223693e-01
9.99224177e-01
1.00116274e+00
1.00116204e+00
1.00116051e+00
1.00115772e+00
1.00115347e+00
1.00114762e+00
1.00113995e+00
1.00113009e+00
1.00111766e+00
1.00110224e+00
1.00108339e+00
1.00106068e+00
1.00103370e+00
1.00100206e+00
1.00096544e+00
1.00092358e+00
1.00087633e+00
1.00082363e+00
1.00076554e+00
1.00070226e+00
1.00063410e+00
1.00056153e+00
1.00048509e+00
1.00040548e+00
1.00032345e+00
1.00023984e+00
1.00015551e+00
1.00007137e+00
9.99988301e-01
9.99907176e-01
9.99828819e-01
9.99753995e-01
9.99683396e-01
9.99617638e-01
9.99557245e-01
9.99502657e-01
9.99454219e-01
9.99412190e-01
9.99376738e-01
9.99347942e-01
9.99325800e-01
9.99310227e-01
9.99301062e-01
9.99298076e-01
9.99300978e-01
9.99309427e-01
9.99323042e-01
9.99341418e-01
9.99364139e-01
9.99390794e-01
9.99420986e-01
9.99454348e-01
9.99490555e-01
9.99529324e-01
9.99570426e-01
9.99613681e-01
9.99658963e-01
9.99706187e-01
9.99755309e-01
9.99806313e-01
9.99859202e-01
9.99913983e-01
9.99970660e-01
1.00002921e+00
1.00008960e+00
1.00015172e+00
1.00021545e+00
1.00028059e+00
1.00034688e+00
1.00041400e+00
1.00048157e+00
1.00054913e+00
1.00061616e+00
1.00068210e+00
1.00074629e+00
1.00080805e+00
1.00086664e+00
1.00092127e+00
1.00097114e+00
1.00101541e+00
1.00105326e+00
1.00108387e+00
1.00110647e+00
1.00112033e+00
1.00112484e+00
1.00111947e+00
1.00110384e+00
1.00107772e+00
1.00104106e+00
1.00099399e+00
1.00093687e+00
1.00087023e+00
1.00079483e+00
1.00071162e+00
1.00062173e+00
1.00052644e+00
1.00042717e+00
1.00032541e+00
1.00022271e+00
1.00012058e+00
1.00002051e+00
9.99923836e-01
9.99831778e-01
9.99745351e-01
9.99665362e-01
9.99592387e-01
9.99526775e-01
9.99468653e-01
9.99417946e-01
9.99374398e-01
9.99337613e-01
9.99307084e-01
9.99282220e-01
9.99262384e-01
9.99246933e-01
9.99235228e-01
9.99226645e-01
9.99220613e-01
9.99216632e-01
9.99214228e-01
9.99212979e-01
9.99212560e-01
9.99212673e-01
9.99213065e-01
9.99213637e-01
9.99214346e-01
9.99215114e-01
9.99215670e-01
1.00116908e+00
1.00116843e+00
1.00116692e+00
1.00116409e+00
1.00115979e+00
1.00115390e+00
1.00114616e+00
1.00113624e+00
1.00112376e+00
1.00110831e+00
1.00108946e+00
1.00106681e+00
1.00103998e+00
1.00100860e+00
1.00097239e+00
1.00093114e+00
1.00088472e+00
1.00083312e+00
1.00077642e+00
1.00071487e+00
1.00064879e+00
1.00057866e+00
1.00050503e+00
1.00042857e+00
1.00035002e+00
1.00027017e+00
1.00018983e+00
1.00010984e+00
1.00003102e+00
9.99954156e-01
9.99880003e-01
9.99809248e-01
9.99742518e-01
9.99680365e-01
9.99623269e-01
9.99571632e-01
9.99525776e-01
9.99485948e-01
9.99452313e-01
9.99424956e-01
9.99403884e-01
9.99389023e-01
9.99380224e-01
9.99377262e-01
9.99379851e-01
9.99387644e-01
9.99400254e-01
9.99417261e-01
9.99438232e-01
9.99462738e-01
9.99490366e-01
9.99520736e-01
9.99553512e-01
9.99588411e-01
9.99625209e-01
9.99663742e-01
9.99703904e-01
9.99745641e-01
9.99788947e-01
9.99833846e-01
9.99880388e-01
9.99928625e-01
9.99978608e-01
1.00003036e+00
1.00008389e+00
1.00013914e+00
1.00019600e+00
1.00025433e+00
1.00031390e+00
1.00037442e+00
1.00043553e+00
1.00049682e+00
1.00055781e+00
1.00061797e+00
1.00067670e+00
1.00073337e+00
1.00078728e+00
1.00083774e+00
1.00088398e+00
1.00092524e+00
1.00096075e+00
1.00098976e+00
1.00101153e+00
1.00102540e+00
1.00103075e+00
1.00102707e+00
1.00101397e+00
1.00099117e+00
1.00095857e+00
1.00091623e+00
1.00086439e+00
1.00080346e+00
1.00073408e+00
1.00065704e+00
1.00057333e+00
1.00048410e+00
1.00039061e+00
1.00029426e+00
1.00019649e+00
1.00009874e+00
1.00000245e+00
9.99908961e-01
9.99819477e-01
9.99735051e-01
9.99656537e-01
9.99584573e-01
9.99519576e-01
9.99461743e-01
9.99411072e-01
9.99367376e-01
9.99330316e-01
9.99299433e-01
9.99274185e-01
9.99253969e-01
9.99238153e-01
9.99226120e-01
9.99217269e-01
9.99211017e-01
9.99206848e-01
9.99204317e-01
9.99202994e-01
9.99202507e-01
9.99202585e-01
9.99202986e-01
9.99203550e-01
9.99204253e-01
9.99205069e-01
9.99205683e-01
1.00117648e+00
1.00117588e+00
1.00117439e+00
1.00117157e+00
1.00116726e+00
1.00116135e+00
1.00115361e+00
1.00114369e+00
1.00113123e+00
1.00111582e+00
1.00109707e+00
1.00107459e+00
1.00104802e+00
1.00101704e+00
1.00098140e+00
1.00094092e+00
1.00089550e+00
1.00084517e+00
1.00079006e+00
1.00073042e+00
1.00066661e+00
1.00059910e+00
1.00052846e+00
1.00045533e+00
1.00038041e+00
1.00030444e+00
1.00022821e+00
1.00015246e+00
1.00007794e+00
1.00000538e+00
9.99935433e-01
9.99868721e-01
9.99805800e-01
9.99747163e-01
9.99693243e-01
9.99644406e-01
9.99600953e-01
9.99563119e-01
9.99531068e-01
9.99504895e-01
9.99484619e-01
9.99470182e-01
9.99461449e-01
9.99458211e-01
9.99460186e-01
9.99467035e-01
9.99478367e-01
9.99493757e-01
9.99512764e-01
9.99534945e-01
9.99559879e-01
9.99587174e-01
9.99616490e-01
9.99647542e-01
9.99680112e-01
9.99714046e-01
9.99749257e-01
9.99785714e-01
9.99823437e-01
9.99862485e-01
9.99902939e-01
9.99944888e-01
9.99988417e-01
1.00003359e+00
1.00008043e+00
1.00012893e+00
1.00017901e+00
1.00023054e+00
1.00028333e+00
1.00033712e+00
1.00039159e+00
1.00044636e+00
1.00050099e+00
1.00055499e+00
1.00060783e+00
1.00065892e+00
1.00070766e+00
1.00075339e+00
1.00079544e+00
1.00083312e+00
1.00086572e+00
1.00089257e+00
1.00091298e+00
1.00092633e+00
1.00093205e+00
1.00092963e+00
1.00091867e+00
1.00089887e+00
1.00087008e+00
1.00083227e+00
1.00078557e+00
1.00073030e+00
1.00066694e+00
1.00059615e+00
1.00051875e+00
1.00043575e+00
1.00034827e+00
1.00025759e+00
1.00016503e+00
1.00007197e+00
9.99979782e-01
9.99889781e-01
9.99803181e-01
9.99721055e-01
9.99644296e-01
9.99573602e-01
9.99509455e-01
9.99452125e-01
9.99401678e-01
9.99357996e-01
9.99320803e-01
9.99289691e-01
9.99264159e-01
9.99243645e-01
9.99227545e-01
9.99215246e-01
9.99206161e-01
9.99199732e-01
9.99195426e-01
9.99192778e-01
9.99191386e-01
9.99190873e-01
9.99190928e-01
9.99191314e-01
9.99191887e-01
9.99192607e-01
9.99193441e-01
9.99194085e-01
1.00118506e+00
1.00118454e+00
1.00118310e+00
1.00118030e+00
1.00117602e+00
1.00117016e+00
1.00116246e+00
1.00115262e+00
1.00114025e+00
1.00112498e+00
1.00110644e+00
1.00108425e+00
1.00105808e+00
1.00102764e+00
1.00099272e+00
1.00095316e+00
1.00090891e+00
1.00086003e+00
1.00080668e+00
1.00074913e+00
1.00068776e+00
1.00062304e+00
1.00055553e+00
1.00048585e+00
1.00041468e+00
1.00034271e+00
1.00027064e+00
1.00019917e+00
1.00012898e+00
1.00006070e+00
9.99994915e-01
9.99932170e-01
9.99872952e-01
9.99817697e-01
9.99766789e-01
9.99720561e-01
9.99679292e-01
9.99643210e-01
9.99612481e-01
9.99587210e-01
9.99567432e-01
9.99553111e-01
9.99544131e-01
9.99540301e-01
9.99541358e-01
9.99546971e-01
9.99556755e-01
9.99570289e-01
9.99587129e-01
9.99606828e-01
9.99628957e-01
9.99653123e-01
9.99678981e-01
9.99706246e-01
9.99734704e-01
9.99764208e-01
9.99794684e-01
9.99826116e-01
9.99858545e-01
9.99892048e-01
9.99926730e-01
9.99962705e-01
1.00000008e+00
1.00003894e+00
1.00007933e+00