# vtk DataFile Version 2.0
LBM Flow Field - Timestep 620
ASCII
DATASET STRUCTURED_POINTS
DIMENSIONS 128 128 1
ORIGIN 0.0 0.0 0.0
SPACING 1.0 1.0 1.0
POINT_DATA 16384
SCALARS density double 1
LOOKUP_TABLE default
9.95182740e-01
9.95181373e-01
9.95179809e-01
9.95179710e-01
9.95180050e-01
9.95180673e-01
9.95181921e-01
9.95183789e-01
9.95186081e-01
9.95188804e-01
9.95192000e-01
9.95195642e-01
9.95199713e-01
9.95204236e-01
9.95209224e-01
9.95214679e-01
9.95220610e-01
9.95227033e-01
9.95233959e-01
9.95241404e-01
9.95249388e-01
9.95257934e-01
9.95267071e-01
9.95276834e-01
9.95287262e-01
9.95298407e-01
9.95310328e-01
9.95323103e-01
9.95336823e-01
9.95351611e-01
9.95367617e-01
9.95385041e-01
9.95404141e-01
9.95425248e-01
9.95448787e-01
9.95475295e-01
9.95505438e-01
9.95540026e-01
9.95580022e-01
9.95626537e-01
9.95680826e-01
9.95744252e-01
9.95818246e-01
9.95904242e-01
9.96003602e-01
9.96117518e-01
9.96246914e-01
9.96392347e-01
9.96553908e-01
9.96731157e-01
9.96923078e-01
9.97128085e-01
9.97344069e-01
9.97568497e-01
9.97798564e-01
9.98031375e-01
9.98264151e-01
9.98494443e-01
9.98720318e-01
9.98940516e-01
9.99154539e-01
9.99362678e-01
9.99565964e-01
9.99766054e-01
9.99965049e-01
1.00016528e+00
1.00036907e+00
1.00057850e+00
1.00079520e+00
1.00102017e+00
1.00125367e+00
1.00149517e+00
1.00174338e+00
1.00199629e+00
1.00225129e+00
1.00250540e+00
1.00275536e+00
1.00299794e+00
1.00323001e+00
1.00344882e+00
1.00365208e+00
1.00383807e+00
1.00400571e+00
1.00415455e+00
1.00428475e+00
1.00439702e+00
1.00449249e+00
1.00457266e+00
1.00463921e+00
1.00469395e+00
1.00473868e+00
1.00477512e+00
1.00480485e+00
1.00482926e+00
1.00484954e+00
1.00486667e+00
1.00488141e+00
1.00489436e+00
1.00490596e+00
1.00491652e+00
1.00492626e+00
1.00493531e+00
1.00494376e+00
1.00495166e+00
1.00495905e+00
1.00496594e+00
1.00497236e+00
1.00497831e+00
1.00498382e+00
1.00498890e+00
1.00499357e+00
1.00499784e+00
1.00500175e+00
1.00500530e+00
1.00500851e+00
1.00501139e+00
1.00501395e+00
1.00501621e+00
1.00501816e+00
1.00501978e+00
1.00502108e+00
1.00502207e+00
1.00502258e+00
1.00502259e+00
1.00502240e+00
1.00502192e+00
1.00502035e+00
1.00501905e+00
9.95182142e-01
9.95181702e-01
9.95180892e-01
9.95180982e-01
9.95181441e-01
9.95182310e-01
9.95183643e-01
9.95185505e-01
9.95187814e-01
9.95190565e-01
9.95193759e-01
9.95197402e-01
9.95201485e-01
9.95206017e-01
9.95211008e-01
9.95216468e-01
9.95222405e-01
9.95228832e-01
9.95235764e-01
9.95243217e-01
9.95251210e-01
9.95259769e-01
9.95268922e-01
9.95278703e-01
9.95289156e-01
9.95300332e-01
9.95312293e-01
9.95325119e-01
9.95338909e-01
9.95353788e-01
9.95369919e-01
9.95387512e-01
9.95406837e-01
9.95428243e-01
9.95452170e-01
9.95479174e-01
9.95509937e-01
9.95545284e-01
9.95586186e-01
9.95633758e-01
9.95689245e-01
9.95753990e-01
9.95829389e-01
9.95916825e-01
9.96017596e-01
9.96132815e-01
9.96263323e-01
9.96409585e-01
9.96571614e-01
9.96748904e-01
9.96940401e-01
9.97144512e-01
9.97359164e-01
9.97581902e-01
9.97810035e-01
9.98040811e-01
9.98271614e-01
9.98500148e-01
9.98724617e-01
9.98943853e-01
9.99157402e-01
9.99365535e-01
9.99569206e-01
9.99769938e-01
9.99969668e-01
1.00017054e+00
1.00037470e+00
1.00058408e+00
1.00080018e+00
1.00102394e+00
1.00125563e+00
1.00149478e+00
1.00174018e+00
1.00198997e+00
1.00224173e+00
1.00249262e+00
1.00273960e+00
1.00297956e+00
1.00320952e+00
1.00342681e+00
1.00362918e+00
1.00381493e+00
1.00398293e+00
1.00413268e+00
1.00426424e+00
1.00437821e+00
1.00447562e+00
1.00455783e+00
1.00462644e+00
1.00468316e+00
1.00472973e+00
1.00476782e+00
1.00479897e+00
1.00482457e+00
1.00484581e+00
1.00486367e+00
1.00487896e+00
1.00489230e+00
1.00490416e+00
1.00491487e+00
1.00492469e+00
1.00493376e+00
1.00494220e+00
1.00495008e+00
1.00495743e+00
1.00496429e+00
1.00497068e+00
1.00497661e+00
1.00498211e+00
1.00498718e+00
1.00499185e+00
1.00499614e+00
1.00500005e+00
1.00500362e+00
1.00500684e+00
1.00500974e+00
1.00501232e+00
1.00501459e+00
1.00501654e+00
1.00501818e+00
1.00501951e+00
1.00502050e+00
1.00502110e+00
1.00502136e+00
1.00502133e+00
1.00502107e+00
1.00502013e+00
1.00501962e+00
9.95181681e-01
9.95181849e-01
9.95182328e-01
9.95182363e-01
9.95182776e-01
9.95183920e-01
9.95185406e-01
9.95187230e-01
9.95189548e-01
9.95192346e-01
9.95195555e-01
9.95199196e-01
9.95203294e-01
9.95207842e-01
9.95212840e-01
9.95218306e-01
9.95224253e-01
9.95230689e-01
9.95237630e-01
9.95245094e-01
9.95253101e-01
9.95261675e-01
9.95270846e-01
9.95280649e-01
9.95291129e-01
9.95302338e-01
9.95314341e-01
9.95327222e-01
9.95341083e-01
9.95356058e-01
9.95372318e-01
9.95390081e-01
9.95409632e-01
9.95431333e-01
9.95455642e-01
9.95483129e-01
9.95514494e-01
9.95550574e-01
9.95592348e-01
9.95640935e-01
9.95697573e-01
9.95763586e-01
9.95840337e-01
9.95929167e-01
9.96031311e-01
9.96147812e-01
9.96279430e-01
9.96426551e-01
9.96589111e-01
9.96766542e-01
9.96957751e-01
9.97161142e-01
9.97374669e-01
9.97595948e-01
9.97822392e-01
9.98051381e-01
9.98280441e-01
9.98507422e-01
9.98730646e-01
9.98949033e-01
9.99162161e-01
9.99370280e-01
9.99574266e-01
9.99775516e-01
9.99975806e-01
1.00017711e+00
1.00038139e+00
1.00059043e+00
1.00080564e+00
1.00102791e+00
1.00125750e+00
1.00149400e+00
1.00173632e+00
1.00198276e+00
1.00223105e+00
1.00247857e+00
1.00272243e+00
1.00295968e+00
1.00318748e+00
1.00340323e+00
1.00360474e+00
1.00379030e+00
1.00395876e+00
1.00410952e+00
1.00424257e+00
1.00435839e+00
1.00445787e+00
1.00454228e+00
1.00461310e+00
1.00467195e+00
1.00472050e+00
1.00476035e+00
1.00479303e+00
1.00481991e+00
1.00484217e+00
1.00486083e+00
1.00487671e+00
1.00489046e+00
1.00490257e+00
1.00491343e+00
1.00492330e+00
1.00493237e+00
1.00494077e+00
1.00494859e+00
1.00495588e+00
1.00496268e+00
1.00496902e+00
1.00497492e+00
1.00498040e+00
1.00498546e+00
1.00499014e+00
1.00499443e+00
1.00499837e+00
1.00500195e+00
1.00500519e+00
1.00500811e+00
1.00501072e+00
1.00501300e+00
1.00501497e+00
1.00501665e+00
1.00501799e+00
1.00501897e+00
1.00501970e+00
1.00502021e+00
1.00502020e+00
1.00501994e+00
1.00502010e+00
1.00502008e+00
9.95182770e-01
9.95182781e-01
9.95183106e-01
9.95183530e-01
9.95184346e-01
9.95185482e-01
9.95186982e-01
9.95188922e-01
9.95191298e-01
9.95194090e-01
9.95197316e-01
9.95200985e-01
9.95205094e-01
9.95209649e-01
9.95214661e-01
9.95220140e-01
9.95226097e-01
9.95232544e-01
9.95239498e-01
9.95246975e-01
9.95254998e-01
9.95263591e-01
9.95272784e-01
9.95282615e-01
9.95293129e-01
9.95304380e-01
9.95316437e-01
9.95329388e-01
9.95343341e-01
9.95358438e-01
9.95374857e-01
9.95392832e-01
9.95412659e-01
9.95434716e-01
9.95459477e-01
9.95487531e-01
9.95519590e-01
9.95556503e-01
9.95599257e-01
9.95648966e-01
9.95706854e-01
9.95774219e-01
9.95852382e-01
9.95942627e-01
9.96046118e-01
9.96163817e-01
9.96296398e-01
9.96444163e-01
9.96606973e-01
9.96784209e-01
9.96974756e-01
9.97177031e-01
9.97389048e-01
9.97608517e-01
9.97832984e-01
9.98059986e-01
9.98287213e-01
9.98512667e-01
9.98734798e-01
9.98952602e-01
9.99165681e-01
9.99374243e-01
9.99579061e-01
9.99781381e-01
9.99982786e-01
1.00018504e+00
1.00038992e+00
1.00059903e+00
1.00081365e+00
1.00103460e+00
1.00126214e+00
1.00149592e+00
1.00173496e+00
1.00197771e+00
1.00222213e+00
1.00246577e+00
1.00270597e+00
1.00293996e+00
1.00316506e+00
1.00337879e+00
1.00357902e+00
1.00376406e+00
1.00393274e+00
1.00408439e+00
1.00421890e+00
1.00433661e+00
1.00443830e+00
1.00452510e+00
1.00459835e+00
1.00465958e+00
1.00471034e+00
1.00475220e+00
1.00478662e+00
1.00481496e+00
1.00483841e+00
1.00485798e+00
1.00487453e+00
1.00488873e+00
1.00490113e+00
1.00491214e+00
1.00492206e+00
1.00493111e+00
1.00493945e+00
1.00494719e+00
1.00495440e+00
1.00496113e+00
1.00496741e+00
1.00497326e+00
1.00497871e+00
1.00498377e+00
1.00498845e+00
1.00499276e+00
1.00499671e+00
1.00500032e+00
1.00500359e+00
1.00500654e+00
1.00500917e+00
1.00501148e+00
1.00501348e+00
1.00501517e+00
1.00501656e+00
1.00501763e+00
1.00501840e+00
1.00501893e+00
1.00501926e+00
1.00501933e+00
1.00501937e+00
1.00501924e+00
9.95183866e-01
9.95183863e-01
9.95184051e-01
9.95184819e-01
9.95185822e-01
9.95186941e-01
9.95188522e-01
9.95190562e-01
9.95192959e-01
9.95195756e-01
9.95199013e-01
9.95202706e-01
9.95206824e-01
9.95211391e-01
9.95216419e-01
9.95221911e-01
9.95227879e-01
9.95234340e-01
9.95241309e-01
9.95248803e-01
9.95256845e-01
9.95265460e-01
9.95274681e-01
9.95284545e-01
9.95295098e-01
9.95306400e-01
9.95318522e-01
9.95331555e-01
9.95345617e-01
9.95360855e-01
9.95377462e-01
9.95395680e-01
9.95415824e-01
9.95438288e-01
9.95463564e-01
9.95492257e-01
9.95525097e-01
9.95562943e-01
9.95606786e-01
9.95657735e-01
9.95716996e-01
9.95785833e-01
9.95865519e-01
9.95957269e-01
9.96062167e-01
9.96181084e-01
9.96314596e-01
9.96462911e-01
9.96625815e-01
9.96802633e-01
9.96992235e-01
9.97193063e-01
9.97403205e-01
9.97620494e-01
9.97842637e-01
9.98067356e-01
9.98292536e-01
9.98516359e-01
9.98737419e-01
9.98954802e-01
9.99168129e-01
9.99377553e-01
9.99583720e-01
9.99787684e-01
9.99990799e-01
1.00019458e+00
1.00040055e+00
1.00061012e+00
1.00082439e+00
1.00104411e+00
1.00126951e+00
1.00150032e+00
1.00173568e+00
1.00197425e+00
1.00221420e+00
1.00245333e+00
1.00268923e+00
1.00291935e+00
1.00314120e+00
1.00335244e+00
1.00355103e+00
1.00373532e+00
1.00390409e+00
1.00405663e+00
1.00419268e+00
1.00431247e+00
1.00441662e+00
1.00450610e+00
1.00458210e+00
1.00464602e+00
1.00469931e+00
1.00474346e+00
1.00477988e+00
1.00480989e+00
1.00483468e+00
1.00485530e+00
1.00487260e+00
1.00488732e+00
1.00490003e+00
1.00491119e+00
1.00492115e+00
1.00493017e+00
1.00493842e+00
1.00494605e+00
1.00495314e+00
1.00495977e+00
1.00496596e+00
1.00497175e+00
1.00497716e+00
1.00498219e+00
1.00498687e+00
1.00499119e+00
1.00499517e+00
1.00499880e+00
1.00500211e+00
1.00500508e+00
1.00500773e+00
1.00501008e+00
1.00501211e+00
1.00501381e+00
1.00501522e+00
1.00501638e+00
1.00501722e+00
1.00501775e+00
1.00501825e+00
1.00501861e+00
1.00501858e+00
1.00501845e+00
9.95184757e-01
9.95184927e-01
9.95185384e-01
9.95186079e-01
9.95187028e-01
9.95188350e-01
9.95190040e-01
9.95192053e-01
9.95194475e-01
9.95197337e-01
9.95200612e-01
9.95204306e-01
9.95208445e-01
9.95213033e-01
9.95218072e-01
9.95223576e-01
9.95229561e-01
9.95236039e-01
9.95243025e-01
9.95250540e-01
9.95258605e-01
9.95267248e-01
9.95276501e-01
9.95286403e-01
9.95297005e-01
9.95308367e-01
9.95320565e-01
9.95333697e-01
9.95347886e-01
9.95363292e-01
9.95380116e-01
9.95398618e-01
9.95419128e-01
9.95442057e-01
9.95467918e-01
9.95497334e-01
9.95531050e-01
9.95569935e-01
9.95614983e-01
9.95667292e-01
9.95728047e-01
9.95798471e-01
9.95879779e-01
9.95973113e-01
9.96079465e-01
9.96199606e-01
9.96334008e-01
9.96482783e-01
9.96645637e-01
9.96821849e-01
9.97010279e-01
9.97209410e-01
9.97417421e-01
9.97632287e-01
9.97851895e-01
9.98074172e-01
9.98297213e-01
9.98519390e-01
9.98739447e-01
9.98956555e-01
9.99170348e-01
9.99380912e-01
9.99588745e-01
9.99794693e-01
9.99999853e-01
1.00020547e+00
1.00041279e+00
1.00062300e+00
1.00083703e+00
1.00105552e+00
1.00127869e+00
1.00150632e+00
1.00173771e+00
1.00197171e+00
1.00220674e+00
1.00244089e+00
1.00267199e+00
1.00289776e+00
1.00311591e+00
1.00332429e+00
1.00352094e+00
1.00370426e+00
1.00387300e+00
1.00402638e+00
1.00416403e+00
1.00428603e+00
1.00439282e+00
1.00448520e+00
1.00456422e+00
1.00463110e+00
1.00468721e+00
1.00473391e+00
1.00477257e+00
1.00480447e+00
1.00483080e+00
1.00485261e+00
1.00487079e+00
1.00488611e+00
1.00489920e+00
1.00491056e+00
1.00492058e+00
1.00492955e+00
1.00493771e+00
1.00494522e+00
1.00495218e+00
1.00495868e+00
1.00496476e+00
1.00497047e+00
1.00497582e+00
1.00498082e+00
1.00498548e+00
1.00498981e+00
1.00499380e+00
1.00499745e+00
1.00500078e+00
1.00500379e+00
1.00500647e+00
1.00500883e+00
1.00501088e+00
1.00501264e+00
1.00501407e+00
1.00501522e+00
1.00501615e+00
1.00501685e+00
1.00501730e+00
1.00501762e+00
1.00501781e+00
1.00501784e+00
9.95185930e-01
9.95186118e-01
9.95186629e-01
9.95187270e-01
9.95188276e-01
9.95189689e-01
9.95191383e-01
9.95193420e-01
9.95195897e-01
9.95198781e-01
9.95202062e-01
9.95205777e-01
9.95209938e-01
9.95214539e-01
9.95219592e-01
9.95225115e-01
9.95231118e-01
9.95237614e-01
9.95244622e-01
9.95252161e-01
9.95260254e-01
9.95268930e-01
9.95278221e-01
9.95288171e-01
9.95298830e-01
9.95310264e-01
9.95322552e-01
9.95335800e-01
9.95350139e-01
9.95365738e-01
9.95382813e-01
9.95401640e-01
9.95422565e-01
9.95446020e-01
9.95472538e-01
9.95502759e-01
9.95537446e-01
9.95577476e-01
9.95623842e-01
9.95677633e-01
9.95740003e-01
9.95812131e-01
9.95895167e-01
9.95990169e-01
9.96098031e-01
9.96219415e-01
9.96354684e-01
9.96503850e-01
9.96666537e-01
9.96841981e-01
9.97029040e-01
9.97226249e-01
9.97431894e-01
9.97644108e-01
9.97860975e-01
9.98080648e-01
9.98301443e-01
9.98521936e-01
9.98741023e-01
9.98957967e-01
9.99172407e-01
9.99384348e-01
9.99594129e-01
9.99802363e-01
1.00000987e+00
1.00021760e+00
1.00042651e+00
1.00063753e+00
1.00085140e+00
1.00106865e+00
1.00128948e+00
1.00151373e+00
1.00174087e+00
1.00196994e+00
1.00219964e+00
1.00242835e+00
1.00265420e+00
1.00287518e+00
1.00308925e+00
1.00329441e+00
1.00348884e+00
1.00367098e+00
1.00383958e+00
1.00399376e+00
1.00413305e+00
1.00425735e+00
1.00436695e+00
1.00446244e+00
1.00454470e+00
1.00461481e+00
1.00467398e+00
1.00472348e+00
1.00476461e+00
1.00479862e+00
1.00482667e+00
1.00484982e+00
1.00486901e+00
1.00488504e+00
1.00489858e+00
1.00491019e+00
1.00492030e+00
1.00492926e+00
1.00493733e+00
1.00494471e+00
1.00495153e+00
1.00495789e+00
1.00496385e+00
1.00496946e+00
1.00497474e+00
1.00497969e+00
1.00498433e+00
1.00498864e+00
1.00499264e+00
1.00499631e+00
1.00499966e+00
1.00500268e+00
1.00500539e+00
1.00500778e+00
1.00500985e+00
1.00501162e+00
1.00501310e+00
1.00501427e+00
1.00501521e+00
1.00501597e+00
1.00501648e+00
1.00501675e+00
1.00501698e+00
1.00501702e+00
9.95187309e-01
9.95187349e-01
9.95187737e-01
9.95188448e-01
9.95189508e-01
9.95190855e-01
9.95192562e-01
9.95194679e-01
9.95197169e-01
9.95200044e-01
9.95203353e-01
9.95207096e-01
9.95211265e-01
9.95215877e-01
9.95220952e-01
9.95226494e-01
9.95232515e-01
9.95239033e-01
9.95246067e-01
9.95253635e-01
9.95261762e-01
9.95270477e-01
9.95279815e-01
9.95289821e-01
9.95300548e-01
9.95312066e-01
9.95324461e-01
9.95337844e-01
9.95352356e-01
9.95368179e-01
9.95385542e-01
9.95404737e-01
9.95426130e-01
9.95450175e-01
9.95477423e-01
9.95508536e-01
9.95544289e-01
9.95585570e-01
9.95633369e-01
9.95688758e-01
9.95752859e-01
9.95826798e-01
9.95911654e-01
9.96008393e-01
9.96117804e-01
9.96240434e-01
9.96376530e-01
9.96526002e-01
9.96688398e-01
9.96862912e-01
9.97048410e-01
9.97243492e-01
9.97446565e-01
9.97655934e-01
9.97869899e-01
9.98086846e-01
9.98305328e-01
9.98524126e-01
9.98742295e-01
9.98959181e-01
9.99174424e-01
9.99387939e-01
9.99599890e-01
9.99810646e-01
1.00002073e+00
1.00023078e+00
1.00044146e+00
1.00065342e+00
1.00086720e+00
1.00108322e+00
1.00130163e+00
1.00152237e+00
1.00174503e+00
1.00196890e+00
1.00219295e+00
1.00241586e+00
1.00263608e+00
1.00285190e+00
1.00306152e+00
1.00326315e+00
1.00345510e+00
1.00363585e+00
1.00380416e+00
1.00395907e+00
1.00409998e+00
1.00422664e+00
1.00433914e+00
1.00443789e+00
1.00452358e+00
1.00459711e+00
1.00465956e+00
1.00471208e+00
1.00475590e+00
1.00479221e+00
1.00482216e+00
1.00484683e+00
1.00486717e+00
1.00488402e+00
1.00489811e+00
1.00491004e+00
1.00492030e+00
1.00492929e+00
1.00493729e+00
1.00494456e+00
1.00495124e+00
1.00495746e+00
1.00496329e+00
1.00496879e+00
1.00497397e+00
1.00497886e+00
1.00498345e+00
1.00498775e+00
1.00499173e+00
1.00499541e+00
1.00499878e+00
1.00500181e+00
1.00500454e+00
1.00500695e+00
1.00500904e+00
1.00501081e+00
1.00501230e+00
1.00501353e+00
1.00501447e+00
1.00501518e+00
1.00501572e+00
1.00501604e+00
1.00501616e+00
1.00501606e+00
9.95188616e-01
9.95188543e-01
9.95188833e-01
9.95189522e-01
9.95190543e-01
9.95191881e-01
9.95193619e-01
9.95195735e-01
9.95198218e-01
9.95201117e-01
9.95204445e-01
9.95208191e-01
9.95212371e-01
9.95217004e-01
9.95222095e-01
9.95227653e-01
9.95233696e-01
9.95240241e-01
9.95247303e-01
9.95254904e-01
9.95263070e-01
9.95271831e-01
9.95281223e-01
9.95291294e-01
9.95302101e-01
9.95313717e-01
9.95326235e-01
9.95339773e-01
9.95354483e-01
9.95370558e-01
9.95388244e-01
9.95407852e-01
9.95429766e-01
9.95454462e-01
9.95482513e-01
9.95514600e-01
9.95551513e-01
9.95594146e-01
9.95643485e-01
9.95700581e-01
9.95766520e-01
9.95842369e-01
9.95929128e-01
9.96027667e-01
9.96138661e-01
9.96262538e-01
9.96399426e-01
9.96549132e-01
9.96711130e-01
9.96884576e-01
9.97068356e-01
9.97261144e-01
9.97461479e-01
9.97667854e-01
9.97878794e-01
9.98092928e-01
9.98309052e-01
9.98526156e-01
9.98743452e-01
9.98960366e-01
9.99176532e-01
9.99391769e-01
9.99606056e-01
9.99819507e-01
1.00003234e+00
1.00024487e+00
1.00045745e+00
1.00067044e+00
1.00088418e+00
1.00109896e+00
1.00131491e+00
1.00153201e+00
1.00175003e+00
1.00196847e+00
1.00218661e+00
1.00240344e+00
1.00261774e+00
1.00282809e+00
1.00303297e+00
1.00323079e+00
1.00342001e+00
1.00359919e+00
1.00376705e+00
1.00392260e+00
1.00406510e+00
1.00419413e+00
1.00430959e+00
1.00441170e+00
1.00450095e+00
1.00457807e+00
1.00464398e+00
1.00469971e+00
1.00474641e+00
1.00478522e+00
1.00481726e+00
1.00484360e+00
1.00486524e+00
1.00488305e+00
1.00489780e+00
1.00491015e+00
1.00492063e+00
1.00492969e+00
1.00493767e+00
1.00494484e+00
1.00495139e+00
1.00495747e+00
1.00496316e+00
1.00496853e+00
1.00497361e+00
1.00497842e+00
1.00498295e+00
1.00498720e+00
1.00499117e+00
1.00499483e+00
1.00499819e+00
1.00500124e+00
1.00500397e+00
1.00500638e+00
1.00500848e+00
1.00501027e+00
1.00501176e+00
1.00501298e+00
1.00501394e+00
1.00501463e+00
1.00501512e+00
1.00501541e+00
1.00501542e+00
1.00501520e+00
9.95189740e-01
9.95189553e-01
9.95189791e-01
9.95190388e-01
9.95191348e-01
9.95192702e-01
9.95194422e-01
9.95196504e-01
9.95198999e-01
9.95201913e-01
9.95205233e-01
9.95208982e-01
9.95213179e-01
9.95217824e-01
9.95222926e-01
9.95228504e-01
9.95234572e-01
9.95241142e-01
9.95248235e-01
9.95255873e-01
9.95264083e-01
9.95272896e-01
9.95282350e-01
9.95292496e-01
9.95303393e-01
9.95315121e-01
9.95327778e-01
9.95341492e-01
9.95356424e-01
9.95372783e-01
9.95390830e-01
9.95410895e-01
9.95433384e-01
9.95458794e-01
9.95487722e-01
9.95520866e-01
9.95559032e-01
9.95603117e-01
9.95654100e-01
9.95713010e-01
9.95780887e-01
9.95858738e-01
9.95947478e-01
9.96047871e-01
9.96160476e-01
9.96285595e-01
9.96423240e-01
9.96573113e-01
9.96734616e-01
9.96906878e-01
9.97088811e-01
9.97279173e-01
9.97476650e-01
9.97679927e-01
9.97887764e-01
9.98099041e-01
9.98312793e-01
9.98528223e-01
9.98744692e-01
9.98961705e-01
9.99178882e-01
9.99395938e-01
9.99612661e-01
9.99828906e-01
1.00004459e+00
1.00025968e+00
1.00047421e+00
1.00068828e+00
1.00090202e+00
1.00111555e+00
1.00132900e+00
1.00154241e+00
1.00175568e+00
1.00196857e+00
1.00218062e+00
1.00239117e+00
1.00259932e+00
1.00280398e+00
1.00300388e+00
1.00319767e+00
1.00338395e+00
1.00356136e+00
1.00372863e+00
1.00388470e+00
1.00402870e+00
1.00416007e+00
1.00427851e+00
1.00438403e+00
1.00447693e+00
1.00455776e+00
1.00462727e+00
1.00468639e+00
1.00473614e+00
1.00477762e+00
1.00481193e+00
1.00484013e+00
1.00486322e+00
1.00488213e+00
1.00489767e+00
1.00491054e+00
1.00492134e+00
1.00493054e+00
1.00493855e+00
1.00494566e+00
1.00495211e+00
1.00495805e+00
1.00496360e+00
1.00496884e+00
1.00497380e+00
1.00497850e+00
1.00498295e+00
1.00498714e+00
1.00499106e+00
1.00499469e+00
1.00499803e+00
1.00500107e+00
1.00500379e+00
1.00500620e+00
1.00500829e+00
1.00501008e+00
1.00501156e+00
1.00501275e+00
1.00501368e+00
1.00501437e+00
1.00501480e+00
1.00501499e+00
1.00501494e+00
1.00501459e+00
9.95190611e-01
9.95190282e-01
9.95190419e-01
9.95190938e-01
9.95191854e-01
9.95193161e-01
9.95194836e-01
9.95196907e-01
9.95199394e-01
9.95202286e-01
9.95205601e-01
9.95209357e-01
9.95213555e-01
9.95218204e-01
9.95223320e-01
9.95228916e-01
9.95235004e-01
9.95241601e-01
9.95248728e-01
9.95256408e-01
9.95264665e-01
9.95273536e-01
9.95283060e-01
9.95293290e-01
9.95304289e-01
9.95316143e-01
9.95328957e-01
9.95342868e-01
9.95358049e-01
9.95374724e-01
9.95393171e-01
9.95413739e-01
9.95436857e-01
9.95463047e-01
9.95492925e-01
9.95527211e-01
9.95566721e-01
9.95612356e-01
9.95665086e-01
9.95725910e-01
9.95795824e-01
9.95875764e-01
9.95966554e-01
9.96068852e-01
9.96183094e-01
9.96309455e-01
9.96447826e-01
9.96597812e-01
9.96758745e-01
9.96929736e-01
9.97109730e-01
9.97297579e-01
9.97492122e-01
9.97692247e-01
9.97896949e-01
9.98105360e-01
9.98316756e-01
9.98530543e-01
9.98746230e-01
9.98963390e-01
9.99181625e-01
9.99400542e-01
9.99619736e-01
9.99838800e-01
1.00005734e+00
1.00027501e+00
1.00049152e+00
1.00070668e+00
1.00092040e+00
1.00113270e+00
1.00134364e+00
1.00155331e+00
1.00176179e+00
1.00196906e+00
1.00217494e+00
1.00237910e+00
1.00258096e+00
1.00277976e+00
1.00297452e+00
1.00316410e+00
1.00334726e+00
1.00352273e+00
1.00368926e+00
1.00384571e+00
1.00399113e+00
1.00412476e+00
1.00424615e+00
1.00435509e+00
1.00445169e+00
1.00453631e+00
1.00460954e+00
1.00467217e+00
1.00472513e+00
1.00476946e+00
1.00480620e+00
1.00483643e+00
1.00486116e+00
1.00488133e+00
1.00489780e+00
1.00491132e+00
1.00492254e+00
1.00493198e+00
1.00494008e+00
1.00494719e+00
1.00495356e+00
1.00495939e+00
1.00496480e+00
1.00496990e+00
1.00497472e+00
1.00497930e+00
1.00498365e+00
1.00498775e+00
1.00499159e+00
1.00499517e+00
1.00499847e+00
1.00500147e+00
1.00500416e+00
1.00500655e+00
1.00500862e+00
1.00501038e+00
1.00501184e+00
1.00501300e+00
1.00501387e+00
1.00501451e+00
1.00501488e+00
1.00501498e+00
1.00501482e+00
1.00501432e+00
9.95191039e-01
9.95190553e-01
9.95190577e-01
9.95191022e-01
9.95191870e-01
9.95193098e-01
9.95194728e-01
9.95196772e-01
9.95199218e-01
9.95202082e-01
9.95205388e-01
9.95209133e-01
9.95213322e-01
9.95217974e-01
9.95223099e-01
9.95228708e-01
9.95234815e-01
9.95241440e-01
9.95248602e-01
9.95256324e-01
9.95264635e-01
9.95273570e-01
9.95283171e-01
9.95293495e-01
9.95304610e-01
9.95316605e-01
9.95329595e-01
9.95343726e-01
9.95359185e-01
9.95376209e-01
9.95395096e-01
9.95416217e-01
9.95440023e-01
9.95467059e-01
9.95497965e-01
9.95533477e-01
9.95574423e-01
9.95621708e-01
9.95676284e-01
9.95739123e-01
9.95811166e-01
9.95893277e-01
9.95986186e-01
9.96090435e-01
9.96206337e-01
9.96333940e-01
9.96473016e-01
9.96623072e-01
9.96783383e-01
9.96953043e-01
9.97131040e-01
9.97316331e-01
9.97507911e-01
9.97704876e-01
9.97906457e-01
9.98112034e-01
9.98321116e-01
9.98533307e-01
9.98748253e-01
9.98965588e-01
9.99184891e-01
9.99405658e-01
9.99627294e-01
9.99849135e-01
1.00007049e+00
1.00029068e+00
1.00050912e+00
1.00072534e+00
1.00093904e+00
1.00115009e+00
1.00135853e+00
1.00156450e+00
1.00176822e+00
1.00196987e+00
1.00216958e+00
1.00236731e+00
1.00256284e+00
1.00275570e+00
1.00294521e+00
1.00313045e+00
1.00331035e+00
1.00348372e+00
1.00364935e+00
1.00380604e+00
1.00395273e+00
1.00408854e+00
1.00421280e+00
1.00432513e+00
1.00442543e+00
1.00451388e+00
1.00459091e+00
1.00465716e+00
1.00471348e+00
1.00476080e+00
1.00480016e+00
1.00483259e+00
1.00485913e+00
1.00488073e+00
1.00489829e+00
1.00491261e+00
1.00492437e+00
1.00493416e+00
1.00494245e+00
1.00494961e+00
1.00495596e+00
1.00496170e+00
1.00496699e+00
1.00497195e+00
1.00497663e+00
1.00498107e+00
1.00498528e+00
1.00498927e+00
1.00499301e+00
1.00499651e+00
1.00499973e+00
1.00500267e+00
1.00500531e+00
1.00500765e+00
1.00500968e+00
1.00501139e+00
1.00501279e+00
1.00501390e+00
1.00501472e+00
1.00501526e+00
1.00501555e+00
1.00501556e+00
1.00501528e+00
1.00501460e+00
9.95190825e-01
9.95190182e-01
9.95190092e-01
9.95190423e-01
9.95191172e-01
9.95192323e-01
9.95193890e-01
9.95195866e-01
9.95198261e-01
9.95201094e-01
9.95204367e-01
9.95208084e-01
9.95212260e-01
9.95216907e-01
9.95222031e-01
9.95227647e-01
9.95233773e-01
9.95240425e-01
9.95247622e-01
9.95255389e-01
9.95263757e-01
9.95272762e-01
9.95282450e-01
9.95292878e-01
9.95304122e-01
9.95316275e-01
9.95329462e-01
9.95343838e-01
9.95359604e-01
9.95377014e-01
9.95396386e-01
9.95418111e-01
9.95442665e-01
9.95470617e-01
9.95502628e-01
9.95539453e-01
9.95581931e-01
9.95630962e-01
9.95687486e-01
9.95752437e-01
9.95826700e-01
9.95911062e-01
9.96006153e-01
9.96112399e-01
9.96229986e-01
9.96358836e-01
9.96498605e-01
9.96648709e-01
9.96808367e-01
9.96976669e-01
9.97152655e-01
9.97335388e-01
9.97524028e-01
9.97717875e-01
9.97916396e-01
9.98119209e-01
9.98326049e-01
9.98536704e-01
9.98750946e-01
9.98968464e-01
9.99188809e-01
9.99411364e-01
9.99635351e-01
9.99859857e-01
1.00008390e+00
1.00030650e+00
1.00052677e+00
1.00074398e+00
1.00095763e+00
1.00116745e+00
1.00137343e+00
1.00157576e+00
1.00177478e+00
1.00197091e+00
1.00216452e+00
1.00235590e+00
1.00254512e+00
1.00273204e+00
1.00291626e+00
1.00309708e+00
1.00327361e+00
1.00344476e+00
1.00360934e+00
1.00376612e+00
1.00391395e+00
1.00405179e+00
1.00417882e+00
1.00429447e+00
1.00439844e+00
1.00449073e+00
1.00457160e+00
1.00464157e+00
1.00470135e+00
1.00475182e+00
1.00479395e+00
1.00482877e+00
1.00485729e+00
1.00488050e+00
1.00489933e+00
1.00491461e+00
1.00492706e+00
1.00493731e+00
1.00494588e+00
1.00495319e+00
1.00495957e+00
1.00496526e+00
1.00497046e+00
1.00497528e+00
1.00497982e+00
1.00498410e+00
1.00498817e+00
1.00499201e+00
1.00499563e+00
1.00499901e+00
1.00500213e+00
1.00500498e+00
1.00500754e+00
1.00500980e+00
1.00501175e+00
1.00501339e+00
1.00501472e+00
1.00501574e+00
1.00501647e+00
1.00501691e+00
1.00501708e+00
1.00501695e+00
1.00501654e+00
1.00501567e+00
9.95189758e-01
9.95188922e-01
9.95188697e-01
9.95188890e-01
9.95189519e-01
9.95190570e-01
9.95192040e-01
9.95193929e-01
9.95196260e-01
9.95199033e-01
9.95202253e-01
9.95205933e-01
9.95210084e-01
9.95214711e-01
9.95219826e-01
9.95225446e-01
9.95231584e-01
9.95238259e-01
9.95245491e-01
9.95253306e-01
9.95261736e-01
9.95270817e-01
9.95280599e-01
9.95291144e-01
9.95302530e-01
9.95314860e-01
9.95328264e-01
9.95342912e-01
9.95359018e-01
9.95376854e-01
9.95396756e-01
9.95419141e-01
9.95444507e-01
9.95473447e-01
9.95506646e-01
9.95544874e-01
9.95588979e-01
9.95639858e-01
9.95698430e-01
9.95765589e-01
9.95842164e-01
9.95928854e-01
9.96026190e-01
9.96134480e-01
9.96253782e-01
9.96383892e-01
9.96524355e-01
9.96674502e-01
9.96833505e-01
9.97000459e-01
9.97174458e-01
9.97354682e-01
9.97540452e-01
9.97731275e-01
9.97926842e-01
9.98127000e-01
9.98331695e-01
9.98540887e-01
9.98754461e-01
9.98972152e-01
9.99193477e-01
9.99417713e-01
9.99643902e-01
9.99870900e-01
1.00009745e+00
1.00032229e+00
1.00054426e+00
1.00076236e+00
1.00097591e+00
1.00118451e+00
1.00138809e+00
1.00158689e+00
1.00178138e+00
1.00197214e+00
1.00215982e+00
1.00234498e+00
1.00252801e+00
1.00270908e+00
1.00288802e+00
1.00306441e+00
1.00323751e+00
1.00340633e+00
1.00356971e+00
1.00372643e+00
1.00387522e+00
1.00401495e+00
1.00414462e+00
1.00426349e+00
1.00437106e+00
1.00446717e+00
1.00455190e+00
1.00462565e+00
1.00468900e+00
1.00474275e+00
1.00478782e+00
1.00482519e+00
1.00485588e+00
1.00488089e+00
1.00490117e+00
1.00491757e+00
1.00493086e+00
1.00494172e+00
1.00495069e+00
1.00495824e+00
1.00496473e+00
1.00497044e+00
1.00497557e+00
1.00498028e+00
1.00498467e+00
1.00498880e+00
1.00499270e+00
1.00499638e+00
1.00499984e+00
1.00500307e+00
1.00500605e+00
1.00500878e+00
1.00501122e+00
1.00501337e+00
1.00501521e+00
1.00501674e+00
1.00501796e+00
1.00501886e+00
1.00501946e+00
1.00501977e+00
1.00501979e+00
1.00501949e+00
1.00501891e+00
1.00501781e+00
9.95187563e-01
9.95186483e-01
9.95186079e-01
9.95186108e-01
9.95186591e-01
9.95187500e-01
9.95188845e-01
9.95190630e-01
9.95192864e-01
9.95195551e-01
9.95198704e-01
9.95202329e-01
9.95206434e-01
9.95211027e-01
9.95216125e-01
9.95221739e-01
9.95227883e-01
9.95234577e-01
9.95241843e-01
9.95249707e-01
9.95258201e-01
9.95267365e-01
9.95277251e-01
9.95287923e-01
9.95299467e-01
9.95311993e-01
9.95325639e-01
9.95340588e-01
9.95357069e-01
9.95375372e-01
9.95395856e-01
9.95418958e-01
9.95445204e-01
9.95475210e-01
9.95509682e-01
9.95549407e-01
9.95595238e-01
9.95648067e-01
9.95708789e-01
9.95778256e-01
9.95857231e-01
9.95946331e-01
9.96045977e-01
9.96156360e-01
9.96277411e-01
9.96408806e-01
9.96549982e-01
9.96700191e-01
9.96858569e-01
9.97024220e-01
9.97196303e-01
9.97374115e-01
9.97557140e-01
9.97745081e-01
9.97937847e-01
9.98135498e-01
9.98338175e-01
9.98545990e-01
9.98758932e-01
9.98976768e-01
9.99198982e-01
9.99424747e-01
9.99652940e-01
9.99882201e-01
1.00011103e+00
1.00033789e+00
1.00056136e+00
1.00078024e+00
1.00099363e+00
1.00120103e+00
1.00140232e+00
1.00159775e+00
1.00178790e+00
1.00197354e+00
1.00215553e+00
1.00233470e+00
1.00251175e+00
1.00268710e+00
1.00286088e+00
1.00303287e+00
1.00320250e+00
1.00336891e+00
1.00353099e+00
1.00368749e+00
1.00383709e+00
1.00397853e+00
1.00411069e+00
1.00423264e+00
1.00434373e+00
1.00444361e+00
1.00453221e+00
1.00460977e+00
1.00467677e+00
1.00473392e+00
1.00478207e+00
1.00482217e+00
1.00485522e+00
1.00488223e+00
1.00490414e+00
1.00492185e+00
1.00493616e+00
1.00494777e+00
1.00495728e+00
1.00496518e+00
1.00497187e+00
1.00497765e+00
1.00498278e+00
1.00498741e+00
1.00499167e+00
1.00499563e+00
1.00499935e+00
1.00500285e+00
1.00500612e+00
1.00500917e+00
1.00501199e+00
1.00501454e+00
1.00501682e+00
1.00501882e+00
1.00502051e+00
1.00502189e+00
1.00502296e+00
1.00502370e+00
1.00502413e+00
1.00502425e+00
1.00502408e+00
1.00502358e+00
1.00502277e+00
1.00502136e+00
9.95183868e-01
9.95182487e-01
9.95181863e-01
9.95181687e-01
9.95181981e-01
9.95182714e-01
9.95183904e-01
9.95185548e-01
9.95187654e-01
9.95190232e-01
9.95193292e-01
9.95196837e-01
9.95200877e-01
9.95205425e-01
9.95210490e-01
9.95216085e-01
9.95222227e-01
9.95228937e-01
9.95236234e-01
9.95244146e-01
9.95252707e-01
9.95261960e-01
9.95271959e-01
9.95282772e-01
9.95294491e-01
9.95307232e-01
9.95321146e-01
9.95336428e-01
9.95353322e-01
9.95372138e-01
9.95393256e-01
9.95417140e-01
9.95444338e-01
9.95475492e-01
9.95511328e-01
9.95552648e-01
9.95600309e-01
9.95655195e-01
9.95718172e-01
9.95790049e-01
9.95871519e-01
9.95963108e-01
9.96065135e-01
9.96177667e-01
9.96300514e-01
9.96433231e-01
9.96575157e-01
9.96725474e-01
9.96883289e-01
9.97047724e-01
9.97218008e-01
9.97393555e-01
9.97574010e-01
9.97759264e-01
9.97949426e-01
9.98144756e-01
9.98345566e-01
9.98552107e-01
9.98764451e-01
9.98982392e-01
9.99205378e-01
9.99432485e-01
9.99662440e-01
9.99893690e-01
1.00012451e+00