# vtk DataFile Version 2.0
LBM Flow Field - Timestep 1450
ASCII
DATASET STRUCTURED_POINTS
DIMENSIONS 128 128 1
ORIGIN 0.0 0.0 0.0
SPACING 1.0 1.0 1.0
POINT_DATA 16384
SCALARS density double 1
LOOKUP_TABLE default
9.99522664e-01
9.99508892e-01
9.99493485e-01
9.99495306e-01
9.99497677e-01
9.99497816e-01
9.99499903e-01
9.99503813e-01
9.99507395e-01
9.99510909e-01
9.99514732e-01
9.99518417e-01
9.99521537e-01
9.99524021e-01
9.99525680e-01
9.99526245e-01
9.99525511e-01
9.99523329e-01
9.99519546e-01
9.99514039e-01
9.99506732e-01
9.99497591e-01
9.99486625e-01
9.99473894e-01
9.99459510e-01
9.99443636e-01
9.99426489e-01
9.99408337e-01
9.99389496e-01
9.99370325e-01
9.99351223e-01
9.99332621e-01
9.99314972e-01
9.99298747e-01
9.99284422e-01
9.99272472e-01
9.99263354e-01
9.99257507e-01
9.99255332e-01
9.99257192e-01
9.99263395e-01
9.99274193e-01
9.99289773e-01
9.99310251e-01
9.99335670e-01
9.99366000e-01
9.99401133e-01
9.99440891e-01
9.99485024e-01
9.99533221e-01
9.99585114e-01
9.99640289e-01
9.99698295e-01
9.99758657e-01
9.99820885e-01
9.99884490e-01
9.99948994e-01
1.00001394e+00
1.00007891e+00
1.00014351e+00
1.00020740e+00
1.00027030e+00
1.00033197e+00
1.00039220e+00
1.00045086e+00
1.00050782e+00
1.00056299e+00
1.00061631e+00
1.00066770e+00
1.00071711e+00
1.00076443e+00
1.00080958e+00
1.00085242e+00
1.00089281e+00
1.00093055e+00
1.00096546e+00
1.00099732e+00
1.00102591e+00
1.00105103e+00
1.00107249e+00
1.00109013e+00
1.00110384e+00
1.00111358e+00
1.00111933e+00
1.00112118e+00
1.00111927e+00
1.00111380e+00
1.00110505e+00
1.00109332e+00
1.00107900e+00
1.00106247e+00
1.00104417e+00
1.00102452e+00
1.00100395e+00
1.00098288e+00
1.00096171e+00
1.00094080e+00
1.00092048e+00
1.00090106e+00
1.00088277e+00
1.00086583e+00
1.00085042e+00
1.00083665e+00
1.00082461e+00
1.00081436e+00
1.00080592e+00
1.00079927e+00
1.00079437e+00
1.00079116e+00
1.00078954e+00
1.00078940e+00
1.00079061e+00
1.00079299e+00
1.00079643e+00
1.00080071e+00
1.00080559e+00
1.00081090e+00
1.00081660e+00
1.00082228e+00
1.00082746e+00
1.00083258e+00
1.00083792e+00
1.00084127e+00
1.00084246e+00
1.00084590e+00
1.00084873e+00
1.00083407e+00
1.00082078e+00
9.99511348e-01
9.99507879e-01
9.99498549e-01
9.99498276e-01
9.99498948e-01
9.99500142e-01
9.99502042e-01
9.99505127e-01
9.99508406e-01
9.99511846e-01
9.99515252e-01
9.99518496e-01
9.99521267e-01
9.99523389e-01
9.99524634e-01
9.99524812e-01
9.99523720e-01
9.99521197e-01
9.99517098e-01
9.99511317e-01
9.99503778e-01
9.99494451e-01
9.99483349e-01
9.99470534e-01
9.99456120e-01
9.99440269e-01
9.99423198e-01
9.99405170e-01
9.99386499e-01
9.99367538e-01
9.99348680e-01
9.99330347e-01
9.99312988e-01
9.99297063e-01
9.99283041e-01
9.99271385e-01
9.99262548e-01
9.99256956e-01
9.99255005e-01
9.99257049e-01
9.99263393e-01
9.99274282e-01
9.99289900e-01
9.99310363e-01
9.99335714e-01
9.99365922e-01
9.99400887e-01
9.99440433e-01
9.99484319e-01
9.99532244e-01
9.99583849e-01
9.99638730e-01
9.99696450e-01
9.99756544e-01
9.99818536e-01
9.99881947e-01
9.99946309e-01
1.00001117e+00
1.00007612e+00
1.00014077e+00
1.00020479e+00
1.00026788e+00
1.00032980e+00
1.00039035e+00
1.00044936e+00
1.00050671e+00
1.00056229e+00
1.00061602e+00
1.00066783e+00
1.00071762e+00
1.00076530e+00
1.00081076e+00
1.00085387e+00
1.00089447e+00
1.00093238e+00
1.00096741e+00
1.00099934e+00
1.00102797e+00
1.00105310e+00
1.00107455e+00
1.00109218e+00
1.00110589e+00
1.00111563e+00
1.00112141e+00
1.00112332e+00
1.00112149e+00
1.00111613e+00
1.00110751e+00
1.00109594e+00
1.00108179e+00
1.00106545e+00
1.00104733e+00
1.00102785e+00
1.00100744e+00
1.00098650e+00
1.00096544e+00
1.00094460e+00
1.00092432e+00
1.00090488e+00
1.00088655e+00
1.00086953e+00
1.00085399e+00
1.00084006e+00
1.00082782e+00
1.00081735e+00
1.00080866e+00
1.00080173e+00
1.00079654e+00
1.00079301e+00
1.00079107e+00
1.00079059e+00
1.00079146e+00
1.00079351e+00
1.00079660e+00
1.00080053e+00
1.00080512e+00
1.00081016e+00
1.00081550e+00
1.00082083e+00
1.00082604e+00
1.00083096e+00
1.00083552e+00
1.00083875e+00
1.00084114e+00
1.00084295e+00
1.00084355e+00
1.00083510e+00
1.00083228e+00
9.99500801e-01
9.99503404e-01
9.99507766e-01
9.99503433e-01
9.99501046e-01
9.99503766e-01
9.99506163e-01
9.99507955e-01
9.99510679e-01
9.99513927e-01
9.99516806e-01
9.99519377e-01
9.99521612e-01
9.99523189e-01
9.99523849e-01
9.99523461e-01
9.99521848e-01
9.99518831e-01
9.99514276e-01
9.99508091e-01
9.99500205e-01
9.99490589e-01
9.99479263e-01
9.99466290e-01
9.99451783e-01
9.99435904e-01
9.99418868e-01
9.99400935e-01
9.99382410e-01
9.99363643e-01
9.99345019e-01
9.99326951e-01
9.99309877e-01
9.99294251e-01
9.99280529e-01
9.99269167e-01
9.99260606e-01
9.99255265e-01
9.99253533e-01
9.99255755e-01
9.99262230e-01
9.99273201e-01
9.99288848e-01
9.99309287e-01
9.99334561e-01
9.99364645e-01
9.99399439e-01
9.99438778e-01
9.99482427e-01
9.99530095e-01
9.99581434e-01
9.99636052e-01
9.99693523e-01
9.99753394e-01
9.99815201e-01
9.99878476e-01
9.99942759e-01
1.00000761e+00
1.00007261e+00
1.00013740e+00
1.00020162e+00
1.00026498e+00
1.00032724e+00
1.00038818e+00
1.00044763e+00
1.00050546e+00
1.00056155e+00
1.00061579e+00
1.00066811e+00
1.00071839e+00
1.00076655e+00
1.00081244e+00
1.00085595e+00
1.00089689e+00
1.00093510e+00
1.00097038e+00
1.00100252e+00
1.00103132e+00
1.00105659e+00
1.00107816e+00
1.00109591e+00
1.00110972e+00
1.00111957e+00
1.00112548e+00
1.00112752e+00
1.00112585e+00
1.00112066e+00
1.00111222e+00
1.00110085e+00
1.00108689e+00
1.00107074e+00
1.00105279e+00
1.00103347e+00
1.00101319e+00
1.00099234e+00
1.00097132e+00
1.00095048e+00
1.00093014e+00
1.00091060e+00
1.00089211e+00
1.00087488e+00
1.00085907e+00
1.00084482e+00
1.00083223e+00
1.00082136e+00
1.00081223e+00
1.00080484e+00
1.00079915e+00
1.00079512e+00
1.00079265e+00
1.00079163e+00
1.00079196e+00
1.00079348e+00
1.00079602e+00
1.00079941e+00
1.00080353e+00
1.00080813e+00
1.00081289e+00
1.00081780e+00
1.00082295e+00
1.00082742e+00
1.00083077e+00
1.00083465e+00
1.00083871e+00
1.00083742e+00
1.00083402e+00
1.00083951e+00
1.00084293e+00
9.99509411e-01
9.99509440e-01
9.99509710e-01
9.99507934e-01
9.99508536e-01
9.99509410e-01
9.99510477e-01
9.99512383e-01
9.99514721e-01
9.99516946e-01
9.99519081e-01
9.99521017e-01
9.99522466e-01
9.99523220e-01
9.99523134e-01
9.99522020e-01
9.99519696e-01
9.99516019e-01
9.99510872e-01
9.99504155e-01
9.99495810e-01
9.99485815e-01
9.99474193e-01
9.99461008e-01
9.99446374e-01
9.99430452e-01
9.99413450e-01
9.99395624e-01
9.99377274e-01
9.99358740e-01
9.99340395e-01
9.99322645e-01
9.99305915e-01
9.99290647e-01
9.99277287e-01
9.99266277e-01
9.99258049e-01
9.99253012e-01
9.99251545e-01
9.99253986e-01
9.99260628e-01
9.99271710e-01
9.99287410e-01
9.99307842e-01
9.99333053e-01
9.99363020e-01
9.99397650e-01
9.99436784e-01
9.99480198e-01
9.99527608e-01
9.99578680e-01
9.99633035e-01
9.99690256e-01
9.99749905e-01
9.99811528e-01
9.99874668e-01
9.99938873e-01
1.00000371e+00
1.00006878e+00
1.00013369e+00
1.00019811e+00
1.00026175e+00
1.00032434e+00
1.00038568e+00
1.00044558e+00
1.00050389e+00
1.00056049e+00
1.00061526e+00
1.00066809e+00
1.00071889e+00
1.00076754e+00
1.00081391e+00
1.00085785e+00
1.00089919e+00
1.00093777e+00
1.00097337e+00
1.00100582e+00
1.00103490e+00
1.00106043e+00
1.00108226e+00
1.00110025e+00
1.00111432e+00
1.00112444e+00
1.00113062e+00
1.00113296e+00
1.00113159e+00
1.00112672e+00
1.00111861e+00
1.00110755e+00
1.00109391e+00
1.00107804e+00
1.00106036e+00
1.00104125e+00
1.00102114e+00
1.00100040e+00
1.00097943e+00
1.00095856e+00
1.00093813e+00
1.00091842e+00
1.00089968e+00
1.00088212e+00
1.00086592e+00
1.00085122e+00
1.00083811e+00
1.00082666e+00
1.00081691e+00
1.00080886e+00
1.00080248e+00
1.00079772e+00
1.00079450e+00
1.00079274e+00
1.00079229e+00
1.00079305e+00
1.00079485e+00
1.00079752e+00
1.00080087e+00
1.00080477e+00
1.00080901e+00
1.00081331e+00
1.00081756e+00
1.00082177e+00
1.00082542e+00
1.00082807e+00
1.00083036e+00
1.00083219e+00
1.00083150e+00
1.00083275e+00
1.00083364e+00
9.99519545e-01
9.99517850e-01
9.99515068e-01
9.99516197e-01
9.99517043e-01
9.99515999e-01
9.99516712e-01
9.99518491e-01
9.99519804e-01
9.99520954e-01
9.99522294e-01
9.99523327e-01
9.99523746e-01
9.99523521e-01
9.99522504e-01
9.99520467e-01
9.99517260e-01
9.99512773e-01
9.99506888e-01
9.99499514e-01
9.99490605e-01
9.99480146e-01
9.99468162e-01
9.99454720e-01
9.99439933e-01
9.99423960e-01
9.99407004e-01
9.99389315e-01
9.99371183e-01
9.99352937e-01
9.99334939e-01
9.99317582e-01
9.99301278e-01
9.99286453e-01
9.99273539e-01
9.99262966e-01
9.99255152e-01
9.99250494e-01
9.99249359e-01
9.99252079e-01
9.99258938e-01
9.99270170e-01
9.99285951e-01
9.99306395e-01
9.99331550e-01
9.99361397e-01
9.99395850e-01
9.99434758e-01
9.99477908e-01
9.99525028e-01
9.99575795e-01
9.99629843e-01
9.99686772e-01
9.99746155e-01
9.99807552e-01
9.99870517e-01
9.99934609e-01
9.99999403e-01
1.00006450e+00
1.00012952e+00
1.00019413e+00
1.00025803e+00
1.00032096e+00
1.00038270e+00
1.00044305e+00
1.00050185e+00
1.00055898e+00
1.00061429e+00
1.00066768e+00
1.00071902e+00
1.00076820e+00
1.00081508e+00
1.00085950e+00
1.00090130e+00
1.00094030e+00
1.00097631e+00
1.00100913e+00
1.00103857e+00
1.00106446e+00
1.00108664e+00
1.00110499e+00
1.00111943e+00
1.00112994e+00
1.00113654e+00
1.00113931e+00
1.00113839e+00
1.00113398e+00
1.00112633e+00
1.00111573e+00
1.00110252e+00
1.00108706e+00
1.00106973e+00
1.00105093e+00
1.00103106e+00
1.00101048e+00
1.00098958e+00
1.00096870e+00
1.00094815e+00
1.00092822e+00
1.00090917e+00
1.00089121e+00
1.00087451e+00
1.00085923e+00
1.00084546e+00
1.00083328e+00
1.00082273e+00
1.00081383e+00
1.00080655e+00
1.00080086e+00
1.00079669e+00
1.00079395e+00
1.00079253e+00
1.00079229e+00
1.00079311e+00
1.00079485e+00
1.00079726e+00
1.00080021e+00
1.00080366e+00
1.00080729e+00
1.00081060e+00
1.00081394e+00
1.00081763e+00
1.00082005e+00
1.00082051e+00
1.00082273e+00
1.00082509e+00
1.00082323e+00
1.00082230e+00
9.99528577e-01
9.99527980e-01
9.99526789e-01
9.99526042e-01
9.99524941e-01
9.99524904e-01
9.99525425e-01
9.99525487e-01
9.99525725e-01
9.99526239e-01
9.99526458e-01
9.99526197e-01
9.99525503e-01
9.99524191e-01
9.99522025e-01
9.99518886e-01
9.99514666e-01
9.99509229e-01
9.99502471e-01
9.99494328e-01
9.99484760e-01
9.99473756e-01
9.99461347e-01
9.99447603e-01
9.99432636e-01
9.99416602e-01
9.99399698e-01
9.99382165e-01
9.99364283e-01
9.99346369e-01
9.99328772e-01
9.99311869e-01
9.99296055e-01
9.99281742e-01
9.99269344e-01
9.99259277e-01
9.99251941e-01
9.99247722e-01
9.99246975e-01
9.99250019e-01
9.99257134e-01
9.99268546e-01
9.99284428e-01
9.99304894e-01
9.99329994e-01
9.99359715e-01
9.99393976e-01
9.99432637e-01
9.99475495e-01
9.99522292e-01
9.99572718e-01
9.99626423e-01
9.99683021e-01
9.99742100e-01
9.99803233e-01
9.99865988e-01
9.99929935e-01
9.99994657e-01
1.00005976e+00
1.00012487e+00
1.00018966e+00
1.00025381e+00
1.00031707e+00
1.00037921e+00
1.00044002e+00
1.00049933e+00
1.00055700e+00
1.00061288e+00
1.00066685e+00
1.00071877e+00
1.00076852e+00
1.00081596e+00
1.00086091e+00
1.00090323e+00
1.00094271e+00
1.00097919e+00
1.00101247e+00
1.00104236e+00
1.00106869e+00
1.00109133e+00
1.00111015e+00
1.00112508e+00
1.00113610e+00
1.00114323e+00
1.00114656e+00
1.00114621e+00
1.00114238e+00
1.00113531e+00
1.00112528e+00
1.00111261e+00
1.00109765e+00
1.00108077e+00
1.00106234e+00
1.00104276e+00
1.00102238e+00
1.00100157e+00
1.00098067e+00
1.00095999e+00
1.00093982e+00
1.00092040e+00
1.00090195e+00
1.00088466e+00
1.00086868e+00
1.00085412e+00
1.00084106e+00
1.00082956e+00
1.00081964e+00
1.00081129e+00
1.00080448e+00
1.00079915e+00
1.00079523e+00
1.00079262e+00
1.00079120e+00
1.00079083e+00
1.00079137e+00
1.00079272e+00
1.00079461e+00
1.00079685e+00
1.00079949e+00
1.00080231e+00
1.00080473e+00
1.00080681e+00
1.00080921e+00
1.00081085e+00
1.00081119e+00
1.00081166e+00
1.00081151e+00
1.00081171e+00
9.99541040e-01
9.99540211e-01
9.99539401e-01
9.99537308e-01
9.99535865e-01
9.99535633e-01
9.99534743e-01
9.99533717e-01
9.99533196e-01
9.99532492e-01
9.99531294e-01
9.99529793e-01
9.99527862e-01
9.99525216e-01
9.99521753e-01
9.99517403e-01
9.99512023e-01
9.99505496e-01
9.99497753e-01
9.99488739e-01
9.99478419e-01
9.99466791e-01
9.99453895e-01
9.99439801e-01
9.99424621e-01
9.99408506e-01
9.99391649e-01
9.99374280e-01
9.99356668e-01
9.99339116e-01
9.99321958e-01
9.99305553e-01
9.99290279e-01
9.99276530e-01
9.99264703e-01
9.99255194e-01
9.99248389e-01
9.99244657e-01
9.99244340e-01
9.99247747e-01
9.99255147e-01
9.99266762e-01
9.99282761e-01
9.99303257e-01
9.99328302e-01
9.99357889e-01
9.99391945e-01
9.99430339e-01
9.99472881e-01
9.99519326e-01
9.99569380e-01
9.99622708e-01
9.99678941e-01
9.99737682e-01
9.99798521e-01
9.99861036e-01
9.99924811e-01
9.99989439e-01
1.00005453e+00
1.00011972e+00
1.00018467e+00
1.00024908e+00
1.00031267e+00
1.00037522e+00
1.00043650e+00
1.00049634e+00
1.00055457e+00
1.00061105e+00
1.00066563e+00
1.00071817e+00
1.00076854e+00
1.00081657e+00
1.00086212e+00
1.00090501e+00
1.00094505e+00
1.00098207e+00
1.00101588e+00
1.00104630e+00
1.00107318e+00
1.00109636e+00
1.00111575e+00
1.00113128e+00
1.00114292e+00
1.00115069e+00
1.00115468e+00
1.00115502e+00
1.00115188e+00
1.00114549e+00
1.00113613e+00
1.00112410e+00
1.00110972e+00
1.00109336e+00
1.00107537e+00
1.00105612e+00
1.00103598e+00
1.00101528e+00
1.00099436e+00
1.00097352e+00
1.00095306e+00
1.00093322e+00
1.00091421e+00
1.00089624e+00
1.00087946e+00
1.00086399e+00
1.00084992e+00
1.00083732e+00
1.00082621e+00
1.00081662e+00
1.00080851e+00
1.00080185e+00
1.00079656e+00
1.00079256e+00
1.00078976e+00
1.00078802e+00
1.00078719e+00
1.00078718e+00
1.00078786e+00
1.00078893e+00
1.00079024e+00
1.00079198e+00
1.00079377e+00
1.00079490e+00
1.00079601e+00
1.00079759e+00
1.00079768e+00
1.00079686e+00
1.00079717e+00
1.00079717e+00
9.99556592e-01
9.99554753e-01
9.99552607e-01
9.99550652e-01
9.99549073e-01
9.99547117e-01
9.99545148e-01
9.99543603e-01
9.99541746e-01
9.99539440e-01
9.99536982e-01
9.99534178e-01
9.99530731e-01
9.99526614e-01
9.99521787e-01
9.99516090e-01
9.99509407e-01
9.99501683e-01
9.99492857e-01
9.99482873e-01
9.99471712e-01
9.99459390e-01
9.99445945e-01
9.99431451e-01
9.99416020e-01
9.99399800e-01
9.99382975e-01
9.99365767e-01
9.99348432e-01
9.99331257e-01
9.99314561e-01
9.99298684e-01
9.99283986e-01
9.99270840e-01
9.99259623e-01
9.99250713e-01
9.99244478e-01
9.99241269e-01
9.99241417e-01
9.99245216e-01
9.99252926e-01
9.99264762e-01
9.99280891e-01
9.99301424e-01
9.99326415e-01
9.99355863e-01
9.99389703e-01
9.99427815e-01
9.99470022e-01
9.99516092e-01
9.99565749e-01
9.99618674e-01
9.99674514e-01
9.99732890e-01
9.99793406e-01
9.99855657e-01
9.99919238e-01
9.99983751e-01
1.00004881e+00
1.00011407e+00
1.00017918e+00
1.00024383e+00
1.00030776e+00
1.00037072e+00
1.00043249e+00
1.00049287e+00
1.00055169e+00
1.00060879e+00
1.00066401e+00
1.00071721e+00
1.00076823e+00
1.00081692e+00
1.00086311e+00
1.00090662e+00
1.00094729e+00
1.00098492e+00
1.00101934e+00
1.00105038e+00
1.00107788e+00
1.00110171e+00
1.00112176e+00
1.00113798e+00
1.00115034e+00
1.00115887e+00
1.00116363e+00
1.00116475e+00
1.00116241e+00
1.00115681e+00
1.00114821e+00
1.00113689e+00
1.00112318e+00
1.00110740e+00
1.00108990e+00
1.00107103e+00
1.00105114e+00
1.00103056e+00
1.00100962e+00
1.00098861e+00
1.00096782e+00
1.00094751e+00
1.00092788e+00
1.00090914e+00
1.00089146e+00
1.00087496e+00
1.00085976e+00
1.00084592e+00
1.00083349e+00
1.00082249e+00
1.00081292e+00
1.00080475e+00
1.00079792e+00
1.00079236e+00
1.00078797e+00
1.00078468e+00
1.00078235e+00
1.00078079e+00
1.00077994e+00
1.00077975e+00
1.00077987e+00
1.00078008e+00
1.00078064e+00
1.00078139e+00
1.00078152e+00
1.00078144e+00
1.00078151e+00
1.00078092e+00
1.00077987e+00
1.00077889e+00
9.99572922e-01
9.99570685e-01
9.99567920e-01
9.99565545e-01
9.99562946e-01
9.99559948e-01
9.99557240e-01
9.99554368e-01
9.99550975e-01
9.99547402e-01
9.99543551e-01
9.99539117e-01
9.99534098e-01
9.99528496e-01
9.99522158e-01
9.99514974e-01
9.99506908e-01
9.99497902e-01
9.99487891e-01
9.99476849e-01
9.99464776e-01
9.99451690e-01
9.99437635e-01
9.99422692e-01
9.99406970e-01
9.99390614e-01
9.99373800e-01
9.99356741e-01
9.99339679e-01
9.99322886e-01
9.99306664e-01
9.99291332e-01
9.99277231e-01
9.99264713e-01
9.99254135e-01
9.99245853e-01
9.99240217e-01
9.99237562e-01
9.99238199e-01
9.99242414e-01
9.99250454e-01
9.99262528e-01
9.99278797e-01
9.99299372e-01
9.99324311e-01
9.99353616e-01
9.99387232e-01
9.99425048e-01
9.99466902e-01
9.99512578e-01
9.99561815e-01
9.99614311e-01
9.99669733e-01
9.99727717e-01
9.99787886e-01
9.99849848e-01
9.99913212e-01
9.99977590e-01
1.00004261e+00
1.00010791e+00
1.00017317e+00
1.00023807e+00
1.00030234e+00
1.00036571e+00
1.00042797e+00
1.00048891e+00
1.00054834e+00
1.00060608e+00
1.00066198e+00
1.00071587e+00
1.00076759e+00
1.00081698e+00
1.00086386e+00
1.00090807e+00
1.00094942e+00
1.00098773e+00
1.00102284e+00
1.00105457e+00
1.00108277e+00
1.00110733e+00
1.00112814e+00
1.00114515e+00
1.00115832e+00
1.00116769e+00
1.00117332e+00
1.00117532e+00
1.00117386e+00
1.00116913e+00
1.00116137e+00
1.00115086e+00
1.00113787e+00
1.00112274e+00
1.00110578e+00
1.00108733e+00
1.00106772e+00
1.00104727e+00
1.00102630e+00
1.00100511e+00
1.00098397e+00
1.00096313e+00
1.00094283e+00
1.00092325e+00
1.00090458e+00
1.00088696e+00
1.00087051e+00
1.00085531e+00
1.00084142e+00
1.00082888e+00
1.00081769e+00
1.00080785e+00
1.00079931e+00
1.00079203e+00
1.00078591e+00
1.00078086e+00
1.00077683e+00
1.00077366e+00
1.00077116e+00
1.00076930e+00
1.00076805e+00
1.00076704e+00
1.00076612e+00
1.00076561e+00
1.00076509e+00
1.00076404e+00
1.00076314e+00
1.00076218e+00
1.00076053e+00
1.00075917e+00
9.99590147e-01
9.99587751e-01
9.99584774e-01
9.99581385e-01
9.99577742e-01
9.99574142e-01
9.99570250e-01
9.99565810e-01
9.99561171e-01
9.99556237e-01
9.99550698e-01
9.99544624e-01
9.99538056e-01
9.99530832e-01
9.99522860e-01
9.99514141e-01
9.99504625e-01
9.99494241e-01
9.99482968e-01
9.99470804e-01
9.99457753e-01
9.99443839e-01
9.99429121e-01
9.99413680e-01
9.99397625e-01
9.99381098e-01
9.99364268e-01
9.99347337e-01
9.99330534e-01
9.99314117e-01
9.99298366e-01
9.99283584e-01
9.99270089e-01
9.99258211e-01
9.99248286e-01
9.99240650e-01
9.99235632e-01
9.99233547e-01
9.99234693e-01
9.99239339e-01
9.99247724e-01
9.99260046e-01
9.99276463e-01
9.99297085e-01
9.99321972e-01
9.99351131e-01
9.99384515e-01
9.99422026e-01
9.99463513e-01
9.99508777e-01
9.99557575e-01
9.99609622e-01
9.99664603e-01
9.99722173e-01
9.99781970e-01
9.99843621e-01
9.99906746e-01
9.99970971e-01
1.00003593e+00
1.00010127e+00
1.00016666e+00
1.00023180e+00
1.00029640e+00
1.00036019e+00
1.00042295e+00
1.00048446e+00
1.00054451e+00
1.00060293e+00
1.00065953e+00
1.00071414e+00
1.00076660e+00
1.00081673e+00
1.00086436e+00
1.00090931e+00
1.00095140e+00
1.00099046e+00
1.00102632e+00
1.00105881e+00
1.00108780e+00
1.00111317e+00
1.00113482e+00
1.00115269e+00
1.00116677e+00
1.00117707e+00
1.00118365e+00
1.00118662e+00
1.00118612e+00
1.00118234e+00
1.00117550e+00
1.00116584e+00
1.00115365e+00
1.00113921e+00
1.00112283e+00
1.00110483e+00
1.00108553e+00
1.00106523e+00
1.00104424e+00
1.00102285e+00
1.00100133e+00
1.00097994e+00
1.00095890e+00
1.00093843e+00
1.00091870e+00
1.00089988e+00
1.00088208e+00
1.00086541e+00
1.00084994e+00
1.00083573e+00
1.00082280e+00
1.00081115e+00
1.00080076e+00
1.00079159e+00
1.00078359e+00
1.00077667e+00
1.00077073e+00
1.00076573e+00
1.00076155e+00
1.00075795e+00
1.00075495e+00
1.00075257e+00
1.00075041e+00
1.00074834e+00
1.00074666e+00
1.00074506e+00
1.00074313e+00
1.00074114e+00
1.00073930e+00
1.00073780e+00
9.99608565e-01
9.99605705e-01
9.99602196e-01
9.99598100e-01
9.99593711e-01
9.99589048e-01
9.99583805e-01
9.99578165e-01
9.99572177e-01
9.99565581e-01
9.99558421e-01
9.99550779e-01
9.99542519e-01
9.99533573e-01
9.99523969e-01
9.99513671e-01
9.99502617e-01
9.99490797e-01
9.99478217e-01
9.99464874e-01
9.99450783e-01
9.99435991e-01
9.99420561e-01
9.99404575e-01
9.99388145e-01
9.99371409e-01
9.99354530e-01
9.99337698e-01
9.99321132e-01
9.99305071e-01
9.99289778e-01
9.99275536e-01
9.99262642e-01
9.99251403e-01
9.99242134e-01
9.99235148e-01
9.99230754e-01
9.99229248e-01
9.99230911e-01
9.99235997e-01
9.99244733e-01
9.99257310e-01
9.99273881e-01
9.99294552e-01
9.99319387e-01
9.99348396e-01
9.99381543e-01
9.99418740e-01
9.99459849e-01
9.99504688e-01
9.99553029e-01
9.99604609e-01
9.99659128e-01
9.99716263e-01
9.99775668e-01
9.99836986e-01
9.99899852e-01
9.99963903e-01
1.00002878e+00
1.00009414e+00
1.00015966e+00
1.00022503e+00
1.00028995e+00
1.00035417e+00
1.00041743e+00
1.00047951e+00
1.00054020e+00
1.00059931e+00
1.00065664e+00
1.00071201e+00
1.00076524e+00
1.00081615e+00
1.00086457e+00
1.00091031e+00
1.00095320e+00
1.00099307e+00
1.00102974e+00
1.00106307e+00
1.00109292e+00
1.00111916e+00
1.00114173e+00
1.00116055e+00
1.00117560e+00
1.00118690e+00
1.00119451e+00
1.00119852e+00
1.00119906e+00
1.00119629e+00
1.00119043e+00
1.00118169e+00
1.00117034e+00
1.00115664e+00
1.00114088e+00
1.00112337e+00
1.00110439e+00
1.00108425e+00
1.00106324e+00
1.00104165e+00
1.00101973e+00
1.00099776e+00
1.00097596e+00
1.00095454e+00
1.00093369e+00
1.00091359e+00
1.00089436e+00
1.00087614e+00
1.00085900e+00
1.00084301e+00
1.00082821e+00
1.00081464e+00
1.00080227e+00
1.00079108e+00
1.00078105e+00
1.00077212e+00
1.00076419e+00
1.00075719e+00
1.00075108e+00
1.00074575e+00
1.00074099e+00
1.00073684e+00
1.00073326e+00
1.00072995e+00
1.00072687e+00
1.00072418e+00
1.00072149e+00
1.00071878e+00
1.00071637e+00
1.00071438e+00
9.99627606e-01
9.99624287e-01
9.99620154e-01
9.99615494e-01
9.99610279e-01
9.99604411e-01
9.99598021e-01
9.99591165e-01
9.99583623e-01
9.99575445e-01
9.99566750e-01
9.99557423e-01
9.99547413e-01
9.99536786e-01
9.99525526e-01
9.99513581e-01
9.99500960e-01
9.99487685e-01
9.99473754e-01
9.99459182e-01
9.99444014e-01
9.99428302e-01
9.99412113e-01
9.99395539e-01
9.99378691e-01
9.99361705e-01
9.99344738e-01
9.99327970e-01
9.99311607e-01
9.99295872e-01
9.99281012e-01
9.99267289e-01
9.99254977e-01
9.99244363e-01
9.99235738e-01
9.99229395e-01
9.99225620e-01
9.99224690e-01
9.99226868e-01
9.99232395e-01
9.99241484e-01
9.99254317e-01
9.99271041e-01
9.99291763e-01
9.99316544e-01
9.99345402e-01
9.99378307e-01
9.99415183e-01
9.99455906e-01
9.99500308e-01
9.99548181e-01
9.99599277e-01
9.99653319e-01
9.99710000e-01
9.99768994e-01
9.99829959e-01
9.99892546e-01
9.99956404e-01
1.00002119e+00
1.00008655e+00
1.00015218e+00
1.00021776e+00
1.00028301e+00
1.00034764e+00
1.00041140e+00
1.00047407e+00
1.00053541e+00
1.00059522e+00
1.00065330e+00
1.00070944e+00
1.00076348e+00
1.00081521e+00
1.00086446e+00
1.00091105e+00
1.00095479e+00
1.00099551e+00
1.00103306e+00
1.00106729e+00
1.00109805e+00
1.00112525e+00
1.00114879e+00
1.00116862e+00
1.00118472e+00
1.00119709e+00
1.00120579e+00
1.00121090e+00
1.00121253e+00
1.00121083e+00
1.00120600e+00
1.00119823e+00
1.00118776e+00
1.00117484e+00
1.00115974e+00
1.00114273e+00
1.00112410e+00
1.00110413e+00
1.00108311e+00
1.00106131e+00
1.00103900e+00
1.00101643e+00
1.00099383e+00
1.00097143e+00
1.00094942e+00
1.00092798e+00
1.00090727e+00
1.00088741e+00
1.00086851e+00
1.00085066e+00
1.00083390e+00
1.00081829e+00
1.00080383e+00
1.00079053e+00
1.00077835e+00
1.00076726e+00
1.00075723e+00
1.00074817e+00
1.00073999e+00
1.00073270e+00
1.00072618e+00
1.00072025e+00
1.00071496e+00
1.00071030e+00
1.00070597e+00
1.00070197e+00
1.00069839e+00
1.00069505e+00
1.00069195e+00
1.00068946e+00
9.99646779e-01
9.99643145e-01
9.99638547e-01
9.99633192e-01
9.99627062e-01
9.99620205e-01
9.99612700e-01
9.99604448e-01
9.99595446e-01
9.99585813e-01
9.99575492e-01
9.99564451e-01
9.99552774e-01
9.99540470e-01
9.99527509e-01
9.99513920e-01
9.99499744e-01
9.99484987e-01
9.99469674e-01
9.99453855e-01
9.99437582e-01
9.99420913e-01
9.99403929e-01
9.99386727e-01
9.99369421e-01
9.99352141e-01
9.99335043e-01
9.99318296e-01
9.99302094e-01
9.99286647e-01
9.99272183e-01
9.99258943e-01
9.99247183e-01
9.99237167e-01
9.99229163e-01
9.99223441e-01
9.99220269e-01
9.99219902e-01
9.99222586e-01
9.99228546e-01
9.99237982e-01
9.99251068e-01
9.99267944e-01
9.99288713e-01
9.99313439e-01
9.99342143e-01
9.99374803e-01
9.99411353e-01
9.99451683e-01
9.99495640e-01
9.99543034e-01
9.99593635e-01
9.99647185e-01
9.99703397e-01
9.99761961e-01
9.99822555e-01
9.99884844e-01
9.99948491e-01
1.00001316e+00
1.00007851e+00
1.00014424e+00
1.00021002e+00
1.00027557e+00
1.00034061e+00
1.00040488e+00
1.00046813e+00
1.00053013e+00
1.00059065e+00
1.00064949e+00
1.00070645e+00
1.00076131e+00
1.00081390e+00
1.00086402e+00
1.00091148e+00
1.00095612e+00
1.00099776e+00
1.00103624e+00
1.00107141e+00
1.00110315e+00
1.00113135e+00
1.00115592e+00
1.00117682e+00
1.00119402e+00
1.00120752e+00
1.00121736e+00
1.00122361e+00
1.00122639e+00
1.00122581e+00
1.00122204e+00
1.00121528e+00
1.00120573e+00
1.00119362e+00
1.00117920e+00
1.00116273e+00
1.00114447e+00
1.00112469e+00
1.00110367e+00
1.00108166e+00
1.00105894e+00
1.00103576e+00
1.00101235e+00
1.00098894e+00
1.00096574e+00
1.00094293e+00
1.00092068e+00
1.00089913e+00
1.00087841e+00
1.00085862e+00
1.00083984e+00
1.00082211e+00
1.00080547e+00
1.00078995e+00
1.00077554e+00
1.00076220e+00
1.00074994e+00
1.00073871e+00
1.00072843e+00
1.00071905e+00
1.00071057e+00
1.00070290e+00
1.00069589e+00
1.00068961e+00
1.00068398e+00
1.00067883e+00
1.00067418e+00
1.00067004e+00
1.00066637e+00
1.00066350e+00
9.99665942e-01
9.99662003e-01
9.99656969e-01
9.99650922e-01
9.99643960e-01
9.99636167e-01
9.99627486e-01
9.99617920e-01
9.99607580e-01
9.99596453e-01
9.99584516e-01
9.99571870e-01
9.99558555e-01
9.99544560e-01
9.99529937e-01
9.99514746e-01
9.99499011e-01
9.99482769e-01
9.99466081e-01
9.99449007e-01
9.99431607e-01
9.99413957e-01
9.99396150e-01
9.99378285e-01
9.99360479e-01
9.99342864e-01
9.99325588e-01
9.99308815e-01
9.99292726e-01
9.99277518e-01
9.99263402e-01
9.99250601e-01
9.99239350e-01
9.99229892e-01
9.99222474e-01
9.99217344e-01
9.99214746e-01
9.99214920e-01
9.99218091e-01
9.99224468e-01
9.99234240e-01
9.99247570e-01
9.99264591e-01
9.99285403e-01
9.99310070e-01
9.99338617e-01
9.99371030e-01
9.99407251e-01
9.99447183e-01
9.99490690e-01
9.99537597e-01
9.99587694e-01
9.99640741e-01
9.99696470e-01
9.99754590e-01
9.99814796e-01
9.99876770e-01
9.99940186e-01
1.00000472e+00
1.00007004e+00
1.00013585e+00
1.00020182e+00
1.00026766e+00
1.00033310e+00
1.00039787e+00
1.00046170e+00
1.00052435e+00
1.00058560e+00
1.00064522e+00
1.00070299e+00
1.00075871e+00
1.00081218e+00
1.00086320e+00
1.00091159e+00
1.00095716e+00
1.00099975e+00
1.00103920e+00
1.00107537e+00
1.00110813e+00
1.00113738e+00
1.00116304e+00
1.00118506e+00
1.00120340e+00
1.00121807e+00
1.00122910e+00
1.00123654e+00
1.00124049e+00
1.00124106e+00
1.00123840e+00
1.00123268e+00
1.00122407e+00
1.00121280e+00
1.00119909e+00
1.00118317e+00
1.00116529e+00
1.00114572e+00
1.00112470e+00
1.00110251e+00
1.00107939e+00
1.00105559e+00
1.00103137e+00
1.00100694e+00
1.00098252e+00
1.00095831e+00
1.00093449e+00
1.00091122e+00
1.00088864e+00
1.00086686e+00
1.00084598e+00
1.00082608e+00
1.00080720e+00
1.00078938e+00
1.00077265e+00
1.00075702e+00
1.00074244e+00
1.00072893e+00
1.00071648e+00
1.00070500e+00
1.00069446e+00
1.00068488e+00
1.00067618e+00
1.00066826e+00
1.00066116e+00
1.00065484e+00
1.00064916e+00
1.00064414e+00
1.00063990e+00
1.00063663e+00
9.99684854e-01
9.99680586e-01
9.99675102e-01
9.99668469e-01
9.99660750e-01
9.99651993e-01
9.99642207e-01
9.99631467e-01
9.99619798e-01
9.99607205e-01
9.99593780e-01
9.99579593e-01
9.99564657e-01
9.99549042e-01
9.99532829e-01
9.99516061e-01
9.99498792e-01
9.99481100e-01
9.99463056e-01
9.99444726e-01
9.99426195e-01
9.99407555e-01
9.99388902e-01
9.99370344e-01
9.99352002e-01
9.99334008e-01
9.99316507e-01
9.99299655e-01
9.99283626e-01
9.99268601e-01
9.99254778e-01
9.99242361e-01
9.99231568e-01
9.99222618e-01
9.99215740e-01
9.99211159e-01
9.99209100e-01
9.99209781e-01
9.99213412e-01
9.99220184e-01
9.99230274e-01
9.99243834e-01
9.99260991e-01
9.99281839e-01
9.99306443e-01
9.99334830e-01
9.99366993e-01
9.99402883e-01
9.99442415e-01
9.99485468e-01
9.99531884e-01
9.99581470e-01
9.99634004e-01
9.99689238e-01
9.99746901e-01
9.99806704e-01
9.99868344e-01
9.99931511e-01
9.99995890e-01
1.00006117e+00
1.00012703e+00
1.00019317e+00
1.00025929e+00
1.00032512e+00
1.00039037e+00
1.00045477e+00
1.00051808e+00
1.00058006e+00
1.00064046e+00
1.00069906e+00
1.00075566e+00
1.00081003e+00
1.00086198e+00
1.00091131e+00
1.00095786e+00
1.00100144e+00
1.00104190e+00
1.00107910e+00
1.00111293e+00
1.00114328e+00
1.00117006e+00
1.00119323e+00
1.00121275e+00
1.00122863e+00
1.00124087e+00
1.00124953e+00
1.00125469e+00
1.00125644e+00
1.00125491e+00
1.00125024e+00
1.00124261e+00
1.00123219e+00
1.00121920e+00
1.00120386e+00
1.00118639e+00
1.00116703e+00
1.00114604e+00
1.00112366e+00
1.00110015e+00
1.00107576e+00
1.00105072e+00
1.00102527e+00
1.00099963e+00
1.00097402e+00
1.00094862e+00
1.00092360e+00
1.00089913e+00
1.00087533e+00
1.00085232e+00
1.00083019e+00
1.00080902e+00
1.00078887e+00
1.00076977e+00
1.00075176e+00
1.00073484e+00
1.00071901e+00
1.00070427e+00
1.00069064e+00
1.00067804e+00
1.00066648e+00
1.00065597e+00
1.00064645e+00
1.00063787e+00
1.00063025e+00
1.00062354e+00
1.00061771e+00
1.00061283e+00
1.00060911e+00
9.99703183e-01
9.99698636e-01
9.99692748e-01
9.99685575e-01
9.99677136e-01
9.99667493e-01
9.99656716e-01
9.99644851e-01
9.99631913e-01
9.99617989e-01
9.99603168e-01
9.99587488e-01
9.99571030e-01
9.99553895e-01
9.99536147e-01
9.99517858e-01
9.99499122e-01
9.99480026e-01
9.99460650e-01
9.99441087e-01
9.99421439e-01
9.99401805e-01
9.99382292e-01
9.99363018e-01
9.99344108e-01
9.99325694e-01
9.99307919e-01
9.99290936e-01
9.99274907e-01
9.99260006e-01
9.99246413e-01
9.99234319e-01
9.99223921e-01
9.99215422e-01
9.99209028e-01
9.99204946e-01
9.99203380e-01
9.99204530e-01
9.99208585e-01
9.99215725e-01
9.99226109e-01
9.99239882e-01
9.99257159e-01
9.99278034e-01
9.99302569e-01
9.99330793e-01
9.99362703e-01
9.99398261e-01
9.99437393e-01
9.99479991e-01
9.99525911e-01
9.99574981e-01
9.99626996e-01
9.99681726e-01
9.99738920e-01
9.99798304e-01
9.99859595e-01
9.99922494e-01
9.99986698e-01
1.00005190e+00
1.00011780e+00
1.00018409e+00
1.00025048e+00
1.00031667e+00
1.00038239e+00