# vtk DataFile Version 2.0
LBM Flow Field - Timestep 300
ASCII
DATASET STRUCTURED_POINTS
DIMENSIONS 128 128 1
ORIGIN 0.0 0.0 0.0
SPACING 1.0 1.0 1.0
POINT_DATA 16384
SCALARS density double 1
LOOKUP_TABLE default
9.92397905e-01
9.92441295e-01
9.92505768e-01
9.92589918e-01
9.92701745e-01
9.92841821e-01
9.93011139e-01
9.93209649e-01
9.93436604e-01
9.93690342e-01
9.93968286e-01
9.94266738e-01
9.94581080e-01
9.94905941e-01
9.95235445e-01
9.95563530e-01
9.95884331e-01
9.96192514e-01
9.96483576e-01
9.96754070e-01
9.97001740e-01
9.97225537e-01
9.97425549e-01
9.97602833e-01
9.97759197e-01
9.97896948e-01
9.98018638e-01
9.98126840e-01
9.98223965e-01
9.98312141e-01
9.98393141e-01
9.98468376e-01
9.98538921e-01
9.98605569e-01
9.98668901e-01
9.98729349e-01
9.98787258e-01
9.98842921e-01
9.98896606e-01
9.98948569e-01
9.98999052e-01
9.99048277e-01
9.99096440e-01
9.99143708e-01
9.99190216e-01
9.99236067e-01
9.99281339e-01
9.99326089e-01
9.99370359e-01
9.99414182e-01
9.99457587e-01
9.99500600e-01
9.99543249e-01
9.99585561e-01
9.99627563e-01
9.99669286e-01
9.99710757e-01
9.99752006e-01
9.99793061e-01
9.99833951e-01
9.99874702e-01
9.99915340e-01
9.99955893e-01
9.99996385e-01
1.00003684e+00
1.00007729e+00
1.00011775e+00
1.00015825e+00
1.00019881e+00
1.00023947e+00
1.00028025e+00
1.00032117e+00
1.00036226e+00
1.00040355e+00
1.00044507e+00
1.00048684e+00
1.00052889e+00
1.00057125e+00
1.00061394e+00
1.00065698e+00
1.00070041e+00
1.00074426e+00
1.00078856e+00
1.00083338e+00
1.00087879e+00
1.00092492e+00
1.00097189e+00
1.00101989e+00
1.00106913e+00
1.00111988e+00
1.00117243e+00
1.00122713e+00
1.00128436e+00
1.00134460e+00
1.00140843e+00
1.00147658e+00
1.00155000e+00
1.00162986e+00
1.00171764e+00
1.00181510e+00
1.00192426e+00
1.00204730e+00
1.00218646e+00
1.00234387e+00
1.00252135e+00
1.00272024e+00
1.00294122e+00
1.00318418e+00
1.00344809e+00
1.00373101e+00
1.00403009e+00
1.00434167e+00
1.00466141e+00
1.00498453e+00
1.00530597e+00
1.00562067e+00
1.00592381e+00
1.00621101e+00
1.00647847e+00
1.00672311e+00
1.00694271e+00
1.00713573e+00
1.00730133e+00
1.00743920e+00
1.00755004e+00
1.00763394e+00
1.00769908e+00
1.00774344e+00
9.92440514e-01
9.92482091e-01
9.92547594e-01
9.92635166e-01
9.92751118e-01
9.92894215e-01
9.93065736e-01
9.93265087e-01
9.93491390e-01
9.93742585e-01
9.94015945e-01
9.94307763e-01
9.94613634e-01
9.94928526e-01
9.95247090e-01
9.95563897e-01
9.95873759e-01
9.96171985e-01
9.96454631e-01
9.96718657e-01
9.96962028e-01
9.97183723e-01
9.97383670e-01
9.97562623e-01
9.97721985e-01
9.97863615e-01
9.97989625e-01
9.98102203e-01
9.98203455e-01
9.98295301e-01
9.98379405e-01
9.98457152e-01
9.98529653e-01
9.98597782e-01
9.98662216e-01
9.98723488e-01
9.98782027e-01
9.98838195e-01
9.98892309e-01
9.98944653e-01
9.98995484e-01
9.99045031e-01
9.99093490e-01
9.99141029e-01
9.99187781e-01
9.99233851e-01
9.99279319e-01
9.99324245e-01
9.99368676e-01
9.99412647e-01
9.99456190e-01
9.99499333e-01
9.99542106e-01
9.99584535e-01
9.99626651e-01
9.99668483e-01
9.99710059e-01
9.99751410e-01
9.99792564e-01
9.99833549e-01
9.99874394e-01
9.99915125e-01
9.99955769e-01
9.99996352e-01
1.00003690e+00
1.00007744e+00
1.00011799e+00
1.00015859e+00
1.00019925e+00
1.00024001e+00
1.00028089e+00
1.00032192e+00
1.00036312e+00
1.00040453e+00
1.00044618e+00
1.00048808e+00
1.00053028e+00
1.00057278e+00
1.00061563e+00
1.00065885e+00
1.00070247e+00
1.00074651e+00
1.00079103e+00
1.00083609e+00
1.00088177e+00
1.00092817e+00
1.00097547e+00
1.00102384e+00
1.00107353e+00
1.00112483e+00
1.00117808e+00
1.00123369e+00
1.00129210e+00
1.00135386e+00
1.00141961e+00
1.00149014e+00
1.00156639e+00
1.00164954e+00
1.00174098e+00
1.00184230e+00
1.00195531e+00
1.00208191e+00
1.00222403e+00
1.00238346e+00
1.00256171e+00
1.00275987e+00
1.00297845e+00
1.00321727e+00
1.00347537e+00
1.00375097e+00
1.00404154e+00
1.00434377e+00
1.00465378e+00
1.00496725e+00
1.00527959e+00
1.00558613e+00
1.00588240e+00
1.00616420e+00
1.00642790e+00
1.00667038e+00
1.00688932e+00
1.00708287e+00
1.00725016e+00
1.00739044e+00
1.00750483e+00
1.00759163e+00
1.00765727e+00
1.00769931e+00
9.92504223e-01
9.92546542e-01
9.92611149e-01
9.92704490e-01
9.92824723e-01
9.92971504e-01
9.93145350e-01
9.93345260e-01
9.93569729e-01
9.93816384e-01
9.94082201e-01
9.94363572e-01
9.94656396e-01
9.94956209e-01
9.95258422e-01
9.95558530e-01
9.95852302e-01
9.96135959e-01
9.96406329e-01
9.96660937e-01
9.96898049e-01
9.97116676e-01
9.97316529e-01
9.97497938e-01
9.97661744e-01
9.97809180e-01
9.97941735e-01
9.98061037e-01
9.98168742e-01
9.98266444e-01
9.98355616e-01
9.98437567e-01
9.98513431e-01
9.98584167e-01
9.98650579e-01
9.98713336e-01
9.98772997e-01
9.98830038e-01
9.98884859e-01
9.98937808e-01
9.98989180e-01
9.99039225e-01
9.99088151e-01
9.99136129e-01
9.99183292e-01
9.99229745e-01
9.99275568e-01
9.99320822e-01
9.99365555e-01
9.99409806e-01
9.99453609e-01
9.99496997e-01
9.99540000e-01
9.99582649e-01
9.99624973e-01
9.99667004e-01
9.99708773e-01
9.99750310e-01
9.99791644e-01
9.99832806e-01
9.99873824e-01
9.99914726e-01
9.99955539e-01
9.99996291e-01
1.00003701e+00
1.00007772e+00
1.00011844e+00
1.00015922e+00
1.00020006e+00
1.00024100e+00
1.00028208e+00
1.00032331e+00
1.00036472e+00
1.00040636e+00
1.00044823e+00
1.00049039e+00
1.00053285e+00
1.00057564e+00
1.00061880e+00
1.00066234e+00
1.00070630e+00
1.00075072e+00
1.00079564e+00
1.00084111e+00
1.00088724e+00
1.00093413e+00
1.00098196e+00
1.00103096e+00
1.00108141e+00
1.00113366e+00
1.00118813e+00
1.00124532e+00
1.00130578e+00
1.00137017e+00
1.00143921e+00
1.00151373e+00
1.00159470e+00
1.00168321e+00
1.00178048e+00
1.00188790e+00
1.00200690e+00
1.00213898e+00
1.00228561e+00
1.00244809e+00
1.00262751e+00
1.00282459e+00
1.00303959e+00
1.00327224e+00
1.00352166e+00
1.00378634e+00
1.00406414e+00
1.00435234e+00
1.00464769e+00
1.00494654e+00
1.00524497e+00
1.00553896e+00
1.00582450e+00
1.00609776e+00
1.00635527e+00
1.00659398e+00
1.00681129e+00
1.00700513e+00
1.00717417e+00
1.00731739e+00
1.00743524e+00
1.00752718e+00
1.00759109e+00
1.00763341e+00
9.92588124e-01
9.92633680e-01
9.92703591e-01
9.92801442e-01
9.92925384e-01
9.93075843e-01
9.93251568e-01
9.93450772e-01
9.93671256e-01
9.93910308e-01
9.94164751e-01
9.94431134e-01
9.94705823e-01
9.94985169e-01
9.95265613e-01
9.95543816e-01
9.95816743e-01
9.96081734e-01
9.96336534e-01
9.96579313e-01
9.96808667e-01
9.97023611e-01
9.97223564e-01
9.97408320e-01
9.97578027e-01
9.97733142e-01
9.97874387e-01
9.98002693e-01
9.98119141e-01
9.98224899e-01
9.98321169e-01
9.98409132e-01
9.98489914e-01
9.98564555e-01
9.98633994e-01
9.98699060e-01
9.98760476e-01
9.98818863e-01
9.98874748e-01
9.98928569e-01
9.98980689e-01
9.99031403e-01
9.99080944e-01
9.99129496e-01
9.99177198e-01
9.99224158e-01
9.99270455e-01
9.99316152e-01
9.99361297e-01
9.99405932e-01
9.99450093e-01
9.99493816e-01
9.99537133e-01
9.99580079e-01
9.99622687e-01
9.99664989e-01
9.99707019e-01
9.99748808e-01
9.99790389e-01
9.99831791e-01
9.99873045e-01
9.99914179e-01
9.99955224e-01
9.99996207e-01
1.00003716e+00
1.00007810e+00
1.00011906e+00
1.00016008e+00
1.00020117e+00
1.00024237e+00
1.00028370e+00
1.00032521e+00
1.00036691e+00
1.00040885e+00
1.00045105e+00
1.00049355e+00
1.00053637e+00
1.00057955e+00
1.00062312e+00
1.00066710e+00
1.00071154e+00
1.00075645e+00
1.00080190e+00
1.00084795e+00
1.00089469e+00
1.00094227e+00
1.00099089e+00
1.00104082e+00
1.00109242e+00
1.00114613e+00
1.00120247e+00
1.00126206e+00
1.00132559e+00
1.00139382e+00
1.00146759e+00
1.00154778e+00
1.00163532e+00
1.00173122e+00
1.00183647e+00
1.00195213e+00
1.00207920e+00
1.00221866e+00
1.00237138e+00
1.00253808e+00
1.00271927e+00
1.00291522e+00
1.00312585e+00
1.00335076e+00
1.00358914e+00
1.00383977e+00
1.00410100e+00
1.00437080e+00
1.00464673e+00
1.00492600e+00
1.00520559e+00
1.00548226e+00
1.00575268e+00
1.00601356e+00
1.00626167e+00
1.00649404e+00
1.00670791e+00
1.00690098e+00
1.00707135e+00
1.00721741e+00
1.00733798e+00
1.00743354e+00
1.00750213e+00
1.00754722e+00
9.92699831e-01
9.92748820e-01
9.92822660e-01
9.92924239e-01
9.93052526e-01
9.93206002e-01
9.93382247e-01
9.93578946e-01
9.93793165e-01
9.94021742e-01
9.94261433e-01
9.94509049e-01
9.94761580e-01
9.95016319e-01
9.95270879e-01
9.95523215e-01
9.95771599e-01
9.96014570e-01
9.96250859e-01
9.96479335e-01
9.96698961e-01
9.96908784e-01
9.97107940e-01
9.97295695e-01
9.97471482e-01
9.97634950e-01
9.97785994e-01
9.97924773e-01
9.98051703e-01
9.98167426e-01
9.98272773e-01
9.98368703e-01
9.98456252e-01
9.98536479e-01
9.98610414e-01
9.98679031e-01
9.98743216e-01
9.98803751e-01
9.98861314e-01
9.98916471e-01
9.98969687e-01
9.99021332e-01
9.99071694e-01
9.99120989e-01
9.99169380e-01
9.99216983e-01
9.99263885e-01
9.99310150e-01
9.99355827e-01
9.99400960e-01
9.99445587e-01
9.99489745e-01
9.99533471e-01
9.99576802e-01
9.99619775e-01
9.99662425e-01
9.99704789e-01
9.99746900e-01
9.99788793e-01
9.99830501e-01
9.99872055e-01
9.99913486e-01
9.99954824e-01
9.99996101e-01
1.00003734e+00
1.00007858e+00
1.00011985e+00
1.00016117e+00
1.00020258e+00
1.00024411e+00
1.00028578e+00
1.00032764e+00
1.00036972e+00
1.00041205e+00
1.00045466e+00
1.00049760e+00
1.00054089e+00
1.00058457e+00
1.00062867e+00
1.00067323e+00
1.00071826e+00
1.00076382e+00
1.00080996e+00
1.00085677e+00
1.00090436e+00
1.00095293e+00
1.00100272e+00
1.00105409e+00
1.00110748e+00
1.00116345e+00
1.00122265e+00
1.00128582e+00
1.00135378e+00
1.00142740e+00
1.00150757e+00
1.00159519e+00
1.00169111e+00
1.00179616e+00
1.00191106e+00
1.00203646e+00
1.00217287e+00
1.00232067e+00
1.00248008e+00
1.00265118e+00
1.00283388e+00
1.00302792e+00
1.00323291e+00
1.00344827e+00
1.00367328e+00
1.00390704e+00
1.00414847e+00
1.00439628e+00
1.00464891e+00
1.00490461e+00
1.00516132e+00
1.00541674e+00
1.00566835e+00
1.00591348e+00
1.00614926e+00
1.00637283e+00
1.00658136e+00
1.00677211e+00
1.00694260e+00
1.00709090e+00
1.00721487e+00
1.00731317e+00
1.00738491e+00
1.00743292e+00
9.92839298e-01
9.92890839e-01
9.92968137e-01
9.93073270e-01
9.93204530e-01
9.93359012e-01
9.93533723e-01
9.93725454e-01
9.93930617e-01
9.94145744e-01
9.94367616e-01
9.94593448e-01
9.94820974e-01
9.95048478e-01
9.95274761e-01
9.95499067e-01
9.95720924e-01
9.95940001e-01
9.96155953e-01
9.96368311e-01
9.96576402e-01
9.96779338e-01
9.96976048e-01
9.97165360e-01
9.97346097e-01
9.97517188e-01
9.97677769e-01
9.97827253e-01
9.97965372e-01
9.98092188e-01
9.98208071e-01
9.98313651e-01
9.98409759e-01
9.98497362e-01
9.98577494e-01
9.98651200e-01
9.98719488e-01
9.98783286e-01
9.98843427e-01
9.98900624e-01
9.98955475e-01
9.99008458e-01
9.99059949e-01
9.99110229e-01
9.99159503e-01
9.99207919e-01
9.99255577e-01
9.99302552e-01
9.99348899e-01
9.99394661e-01
9.99439880e-01
9.99484595e-01
9.99528844e-01
9.99572668e-01
9.99616106e-01
9.99659199e-01
9.99701986e-01
9.99744506e-01
9.99786794e-01
9.99828887e-01
9.99870819e-01
9.99912623e-01
9.99954332e-01
9.99995979e-01
1.00003759e+00
1.00007921e+00
1.00012085e+00
1.00016257e+00
1.00020437e+00
1.00024631e+00
1.00028842e+00
1.00033073e+00
1.00037328e+00
1.00041611e+00
1.00045925e+00
1.00050275e+00
1.00054663e+00
1.00059095e+00
1.00063572e+00
1.00068098e+00
1.00072678e+00
1.00077317e+00
1.00082023e+00
1.00086807e+00
1.00091687e+00
1.00096688e+00
1.00101843e+00
1.00107197e+00
1.00112805e+00
1.00118736e+00
1.00125067e+00
1.00131883e+00
1.00139275e+00
1.00147335e+00
1.00156152e+00
1.00165808e+00
1.00176375e+00
1.00187909e+00
1.00200449e+00
1.00214015e+00
1.00228605e+00
1.00244200e+00
1.00260760e+00
1.00278230e+00
1.00296544e+00
1.00315633e+00
1.00335422e+00
1.00355844e+00
1.00376833e+00
1.00398332e+00
1.00420287e+00
1.00442642e+00
1.00465333e+00
1.00488284e+00
1.00511391e+00
1.00534523e+00
1.00557515e+00
1.00580163e+00
1.00602231e+00
1.00623449e+00
1.00643528e+00
1.00662166e+00
1.00679055e+00
1.00693932e+00
1.00706546e+00
1.00716645e+00
1.00724091e+00
1.00729094e+00
9.93007058e-01
9.93060653e-01
9.93140242e-01
9.93247150e-01
9.93378920e-01
9.93531879e-01
9.93702233e-01
9.93885910e-01
9.94078943e-01
9.94277735e-01
9.94479235e-01
9.94681165e-01
9.94882030e-01
9.95081091e-01
9.95278260e-01
9.95473913e-01
9.95668665e-01
9.95863145e-01
9.96057796e-01
9.96252720e-01
9.96447589e-01
9.96641633e-01
9.96833689e-01
9.97022304e-01
9.97205870e-01
9.97382772e-01
9.97551527e-01
9.97710900e-01
9.97859986e-01
9.97998250e-01
9.98125539e-01
9.98242050e-01
9.98348290e-01
9.98445003e-01
9.98533106e-01
9.98613614e-01
9.98687577e-01
9.98756023e-01
9.98819913e-01
9.98880108e-01
9.98937352e-01
9.98992261e-01
9.99045328e-01
9.99096931e-01
9.99147350e-01
9.99196784e-01
9.99245373e-01
9.99293211e-01
9.99340368e-01
9.99386895e-01
9.99432837e-01
9.99478234e-01
9.99523129e-01
9.99567564e-01
9.99611581e-01
9.99655226e-01
9.99698540e-01
9.99741565e-01
9.99784344e-01
9.99826914e-01
9.99869314e-01
9.99911580e-01
9.99953747e-01
9.99995851e-01
1.00003792e+00
1.00008000e+00
1.00012212e+00
1.00016432e+00
1.00020662e+00
1.00024907e+00
1.00029172e+00
1.00033458e+00
1.00037772e+00
1.00042116e+00
1.00046495e+00
1.00050914e+00
1.00055375e+00
1.00059883e+00
1.00064442e+00
1.00069056e+00
1.00073733e+00
1.00078479e+00
1.00083307e+00
1.00088234e+00
1.00093284e+00
1.00098492e+00
1.00103901e+00
1.00109567e+00
1.00115559e+00
1.00121953e+00
1.00128839e+00
1.00136307e+00
1.00144452e+00
1.00153363e+00
1.00163120e+00
1.00173789e+00
1.00185417e+00
1.00198030e+00
1.00211627e+00
1.00226183e+00
1.00241647e+00
1.00257944e+00
1.00274981e+00
1.00292652e+00
1.00310845e+00
1.00329452e+00
1.00348377e+00
1.00367541e+00
1.00386892e+00
1.00406399e+00
1.00426059e+00
1.00445881e+00
1.00465886e+00
1.00486087e+00
1.00506478e+00
1.00527021e+00
1.00547636e+00
1.00568190e+00
1.00588494e+00
1.00608310e+00
1.00627346e+00
1.00645281e+00
1.00661775e+00
1.00676487e+00
1.00689103e+00
1.00699316e+00
1.00706933e+00
1.00712095e+00
9.93203227e-01
9.93257698e-01
9.93337853e-01
9.93444039e-01
9.93573338e-01
9.93721355e-01
9.93883683e-01
9.94055795e-01
9.94233511e-01
9.94413282e-01
9.94592417e-01
9.94769204e-01
9.94942896e-01
9.95113641e-01
9.95282269e-01
9.95450046e-01
9.95618410e-01
9.95788707e-01
9.95961963e-01
9.96138722e-01
9.96318964e-01
9.96502089e-01
9.96686971e-01
9.96872067e-01
9.97055564e-01
9.97235531e-01
9.97410072e-01
9.97577469e-01
9.97736281e-01
9.97885419e-01
9.98024188e-01
9.98152285e-01
9.98269783e-01
9.98377077e-01
9.98474832e-01
9.98563908e-01
9.98645289e-01
9.98720015e-01
9.98789117e-01
9.98853573e-01
9.98914263e-01
9.98971946e-01
9.99027256e-01
9.99080694e-01
9.99132646e-01
9.99183395e-01
9.99233142e-01
9.99282028e-01
9.99330152e-01
9.99377585e-01
9.99424382e-01
9.99470590e-01
9.99516256e-01
9.99561424e-01
9.99606140e-01
9.99650451e-01
9.99694404e-01
9.99738044e-01
9.99781416e-01
9.99824565e-01
9.99867530e-01
9.99910354e-01
9.99953074e-01
9.99995730e-01
1.00003836e+00
1.00008100e+00
1.00012369e+00
1.00016647e+00
1.00020937e+00
1.00025245e+00
1.00029574e+00
1.00033928e+00
1.00038312e+00
1.00042730e+00
1.00047187e+00
1.00051687e+00
1.00056234e+00
1.00060835e+00
1.00065494e+00
1.00070218e+00
1.00075018e+00
1.00079906e+00
1.00084900e+00
1.00090026e+00
1.00095318e+00
1.00100819e+00
1.00106586e+00
1.00112686e+00
1.00119195e+00
1.00126202e+00
1.00133797e+00
1.00142073e+00
1.00151119e+00
1.00161011e+00
1.00171811e+00
1.00183560e+00
1.00196274e+00
1.00209941e+00
1.00224520e+00
1.00239943e+00
1.00256114e+00
1.00272914e+00
1.00290210e+00
1.00307857e+00
1.00325714e+00
1.00343648e+00
1.00361551e+00
1.00379342e+00
1.00396979e+00
1.00414458e+00
1.00431815e+00
1.00449114e+00
1.00466442e+00
1.00483889e+00
1.00501530e+00
1.00519410e+00
1.00537525e+00
1.00555812e+00
1.00574134e+00
1.00592284e+00
1.00609988e+00
1.00626915e+00
1.00642699e+00
1.00656957e+00
1.00669327e+00
1.00679445e+00
1.00687084e+00
1.00692302e+00
9.93427204e-01
9.93481055e-01
9.93559445e-01
9.93661753e-01
9.93784868e-01
9.93923899e-01
9.94074172e-01
9.94231011e-01
9.94390299e-01
9.94548766e-01
9.94704192e-01
9.94855460e-01
9.95002508e-01
9.95146177e-01
9.95287952e-01
9.95429695e-01
9.95573358e-01
9.95720718e-01
9.95873160e-01
9.96031536e-01
9.96196081e-01
9.96366408e-01
9.96541553e-01
9.96720077e-01
9.96900185e-01
9.97079873e-01
9.97257066e-01
9.97429759e-01
9.97596128e-01
9.97754626e-01
9.97904050e-01
9.98043579e-01
9.98172784e-01
9.98291616e-01
9.98400364e-01
9.98499603e-01
9.98590129e-01
9.98672880e-01
9.98748872e-01
9.98819125e-01
9.98884615e-01
9.98946226e-01
9.99004728e-01
9.99060761e-01
9.99114838e-01
9.99167355e-01
9.99218607e-01
9.99268807e-01
9.99318108e-01
9.99366619e-01
9.99414421e-01
9.99461577e-01
9.99508144e-01
9.99554173e-01
9.99599713e-01
9.99644814e-01
9.99689525e-01
9.99733897e-01
9.99777978e-01
9.99821816e-01
9.99865456e-01
9.99908943e-01
9.99952322e-01
9.99995636e-01
1.00003893e+00
1.00008223e+00
1.00012560e+00
1.00016908e+00
1.00021270e+00
1.00025651e+00
1.00030056e+00
1.00034490e+00
1.00038957e+00
1.00043462e+00
1.00048010e+00
1.00052607e+00
1.00057258e+00
1.00061972e+00
1.00066756e+00
1.00071622e+00
1.00076585e+00
1.00081666e+00
1.00086891e+00
1.00092295e+00
1.00097923e+00
1.00103831e+00
1.00110083e+00
1.00116757e+00
1.00123935e+00
1.00131708e+00
1.00140164e+00
1.00149387e+00
1.00159451e+00
1.00170413e+00
1.00182306e+00
1.00195139e+00
1.00208891e+00
1.00223512e+00
1.00238921e+00
1.00255012e+00
1.00271652e+00
1.00288694e+00
1.00305975e+00
1.00323333e+00
1.00340612e+00
1.00357672e+00
1.00374403e+00
1.00390730e+00
1.00406624e+00
1.00422102e+00
1.00437229e+00
1.00452109e+00
1.00466874e+00
1.00481669e+00
1.00496632e+00
1.00511871e+00
1.00527448e+00
1.00543357e+00
1.00559515e+00
1.00575755e+00
1.00591828e+00
1.00607413e+00
1.00622137e+00
1.00635598e+00
1.00647410e+00
1.00657168e+00
1.00664635e+00
1.00669785e+00
9.93677424e-01
9.93728811e-01
9.93802780e-01
9.93897622e-01
9.94010388e-01
9.94136104e-01
9.94270159e-01
9.94408061e-01
9.94546093e-01
9.94681450e-01
9.94812459e-01
9.94938586e-01
9.95060314e-01
9.95178936e-01
9.95296304e-01
9.95414561e-01
9.95535855e-01
9.95662118e-01
9.95794882e-01
9.95935163e-01
9.96083396e-01
9.96239430e-01
9.96402561e-01
9.96571603e-01
9.96744979e-01
9.96920826e-01
9.97097115e-01
9.97271762e-01
9.97442741e-01
9.97608187e-01
9.97766486e-01
9.97916342e-01
9.98056823e-01
9.98187383e-01
9.98307855e-01
9.98418421e-01
9.98519565e-01
9.98612005e-01
9.98696621e-01
9.98774383e-01
9.98846281e-01
9.98913270e-01
9.98976225e-01
9.99035912e-01
9.99092980e-01
9.99147952e-01
9.99201243e-01
9.99253167e-01
9.99303960e-01
9.99353794e-01
9.99402799e-01
9.99451071e-01
9.99498688e-01
9.99545716e-01
9.99592213e-01
9.99638235e-01
9.99683835e-01
9.99729066e-01
9.99773982e-01
9.99818632e-01
9.99863069e-01
9.99907342e-01
9.99951499e-01
9.99995588e-01
1.00003966e+00
1.00008375e+00
1.00012792e+00
1.00017221e+00
1.00021667e+00
1.00026135e+00
1.00030630e+00
1.00035156e+00
1.00039720e+00
1.00044327e+00
1.00048984e+00
1.00053697e+00
1.00058477e+00
1.00063333e+00
1.00068279e+00
1.00073334e+00
1.00078520e+00
1.00083867e+00
1.00089411e+00
1.00095199e+00
1.00101284e+00
1.00107732e+00
1.00114616e+00
1.00122015e+00
1.00130014e+00
1.00138697e+00
1.00148141e+00
1.00158415e+00
1.00169567e+00
1.00181626e+00
1.00194592e+00
1.00208438e+00
1.00223105e+00
1.00238504e+00
1.00254522e+00
1.00271020e+00
1.00287843e+00
1.00304825e+00
1.00321795e+00
1.00338586e+00
1.00355045e+00
1.00371041e+00
1.00386472e+00
1.00401279e+00
1.00415445e+00
1.00429004e+00
1.00442039e+00
1.00454675e+00
1.00467070e+00
1.00479399e+00
1.00491837e+00
1.00504537e+00
1.00517605e+00
1.00531085e+00
1.00544942e+00
1.00559053e+00
1.00573205e+00
1.00587103e+00
1.00600397e+00
1.00612689e+00
1.00623591e+00
1.00632690e+00
1.00639765e+00
1.00644693e+00
9.93951383e-01
9.93998315e-01
9.94064908e-01
9.94148543e-01
9.94246730e-01
9.94354801e-01
9.94468638e-01
9.94584303e-01
9.94698718e-01
9.94809705e-01
9.94916202e-01
9.95018165e-01
9.95116428e-01
9.95212495e-01
9.95308300e-01
9.95405953e-01
9.95507519e-01
9.95614847e-01
9.95729433e-01
9.95852330e-01
9.95984116e-01
9.96124874e-01
9.96274213e-01
9.96431300e-01
9.96594913e-01
9.96763501e-01
9.96935261e-01
9.97108224e-01
9.97280349e-01
9.97449626e-01
9.97614169e-01
9.97772311e-01
9.97922678e-01
9.98064243e-01
9.98196353e-01
9.98318733e-01
9.98431460e-01
9.98534918e-01
9.98629733e-01
9.98716706e-01
9.98796738e-01
9.98870768e-01
9.98939710e-01
9.99004416e-01
9.99065645e-01
9.99124050e-01
9.99180172e-01
9.99234448e-01
9.99287222e-01
9.99338759e-01
9.99389262e-01
9.99438884e-01
9.99487744e-01
9.99535938e-01
9.99583544e-01
9.99630630e-01
9.99677259e-01
9.99723488e-01
9.99769375e-01
9.99814977e-01
9.99860347e-01
9.99905540e-01
9.99950609e-01
9.99995609e-01
1.00004059e+00
1.00008561e+00
1.00013071e+00
1.00017596e+00
1.00022139e+00
1.00026708e+00
1.00031307e+00
1.00035942e+00
1.00040620e+00
1.00045349e+00
1.00050137e+00
1.00054996e+00
1.00059939e+00
1.00064982e+00
1.00070146e+00
1.00075458e+00
1.00080950e+00
1.00086661e+00
1.00092638e+00
1.00098937e+00
1.00105620e+00
1.00112757e+00
1.00120423e+00
1.00128695e+00
1.00137650e+00
1.00147357e+00
1.00157875e+00
1.00169247e+00
1.00181492e+00
1.00194604e+00
1.00208549e+00
1.00223261e+00
1.00238647e+00
1.00254586e+00
1.00270938e+00
1.00287544e+00
1.00304238e+00
1.00320850e+00
1.00337213e+00
1.00353174e+00
1.00368595e+00
1.00383364e+00
1.00397403e+00
1.00410668e+00
1.00423158e+00
1.00434920e+00
1.00446041e+00
1.00456654e+00
1.00466920e+00
1.00477023e+00
1.00487149e+00
1.00497468e+00
1.00508116e+00
1.00519170e+00
1.00530635e+00
1.00542432e+00
1.00554399e+00
1.00566284e+00
1.00577777e+00
1.00588518e+00
1.00598149e+00
1.00606277e+00
1.00612714e+00
1.00617254e+00
9.94245508e-01
9.94285979e-01
9.94342317e-01
9.94411161e-01
9.94490779e-01
9.94577252e-01
9.94667368e-01
9.94758053e-01
9.94847079e-01
9.94933016e-01
9.95015400e-01
9.95094543e-01
9.95171446e-01
9.95247583e-01
9.95324701e-01
9.95404628e-01
9.95489128e-01
9.95579781e-01
9.95677899e-01
9.95784478e-01
9.95900173e-01
9.96025275e-01
9.96159710e-01
9.96303038e-01
9.96454459e-01
9.96612832e-01
9.96776711e-01
9.96944394e-01
9.97113999e-01
9.97283543e-01
9.97451040e-01
9.97614603e-01
9.97772535e-01
9.97923406e-01
9.98066116e-01
9.98199921e-01
9.98324446e-01
9.98439657e-01
9.98545824e-01
9.98643463e-01
9.98733270e-01
9.98816058e-01
9.98892687e-01
9.98964020e-01
9.99030876e-01
9.99094000e-01
9.99154050e-01
9.99211587e-01
9.99267079e-01
9.99320903e-01
9.99373361e-01
9.99424692e-01
9.99475080e-01
9.99524671e-01
9.99573581e-01
9.99621903e-01
9.99669719e-01
9.99717100e-01
9.99764110e-01
9.99810811e-01
9.99857264e-01
9.99903529e-01
9.99949662e-01
9.99995723e-01
1.00004177e+00
1.00008786e+00
1.00013405e+00
1.00018040e+00
1.00022697e+00
1.00027383e+00
1.00032104e+00
1.00036868e+00
1.00041684e+00
1.00046563e+00
1.00051518e+00
1.00056565e+00
1.00061724e+00
1.00067018e+00
1.00072479e+00
1.00078141e+00
1.00084046e+00
1.00090244e+00
1.00096789e+00
1.00103744e+00
1.00111174e+00
1.00119148e+00
1.00127736e+00
1.00137004e+00
1.00147013e+00
1.00157810e+00
1.00169428e+00
1.00181877e+00
1.00195144e+00
1.00209189e+00
1.00223940e+00
1.00239301e+00
1.00255150e+00
1.00271342e+00
1.00287721e+00
1.00304121e+00
1.00320375e+00
1.00336322e+00
1.00351814e+00
1.00366719e+00
1.00380927e+00
1.00394356e+00
1.00406950e+00
1.00418690e+00
1.00429589e+00
1.00439700e+00
1.00449109e+00
1.00457939e+00
1.00466338e+00
1.00474477e+00
1.00482530e+00
1.00490664e+00
1.00499020e+00
1.00507693e+00
1.00516720e+00
1.00526067e+00
1.00535624e+00
1.00545202e+00
1.00554555e+00
1.00563384e+00
1.00571393e+00
1.00578246e+00
1.00583803e+00
1.00587788e+00
9.94555318e-01
9.94587520e-01
9.94631030e-01
9.94681949e-01
9.94739604e-01
9.94801260e-01
9.94864908e-01
9.94928598e-01
9.94991139e-01
9.95051889e-01
9.95110904e-01
9.95168740e-01
9.95226380e-01
9.95285054e-01
9.95346117e-01
9.95410942e-01
9.95480833e-01
9.95556977e-01
9.95640407e-01
9.95731986e-01
9.95832381e-01
9.95942042e-01
9.96061174e-01
9.96189705e-01
9.96327262e-01
9.96473146e-01
9.96626334e-01
9.96785496e-01
9.96949039e-01
9.97115167e-01
9.97281969e-01
9.97447508e-01
9.97609922e-01
9.97767513e-01
9.97918825e-01
9.98062702e-01
9.98198323e-01
9.98325207e-01
9.98443203e-01
9.98552449e-01
9.98653329e-01
9.98746416e-01
9.98832409e-01
9.98912079e-01
9.98986223e-01
9.99055617e-01
9.99120992e-01
9.99183010e-01
9.99242254e-01
9.99299222e-01
9.99354331e-01
9.99407926e-01
9.99460281e-01
9.99511619e-01
9.99562114e-01
9.99611908e-01
9.99661115e-01
9.99709829e-01
9.99758134e-01
9.99806103e-01
9.99853804e-01
9.99901304e-01
9.99948667e-01
9.99995956e-01
1.00004323e+00
1.00009057e+00
1.00013802e+00
1.00018566e+00
1.00023356e+00
1.00028180e+00
1.00033048e+00
1.00037970e+00
1.00042959e+00
1.00048030e+00
1.00053203e+00
1.00058500e+00
1.00063950e+00
1.00069585e+00
1.00075445e+00
1.00081575e+00
1.00088024e+00
1.00094849e+00
1.00102109e+00
1.00109868e+00
1.00118186e+00
1.00127127e+00
1.00136745e+00
1.00147090e+00
1.00158195e+00
1.00170083e+00
1.00182753e+00
1.00196183e+00
1.00210325e+00
1.00225107e+00
1.00240427e+00
1.00256165e+00
1.00272178e+00
1.00288311e+00
1.00304401e+00
1.00320287e+00
1.00335815e+00
1.00350842e+00
1.00365247e+00
1.00378926e+00
1.00391804e+00
1.00403828e+00
1.00414974e+00
1.00425242e+00
1.00434659e+00
1.00443279e+00
1.00451180e+00
1.00458464e+00
1.00465254e+00
1.00471687e+00
1.00477909e+00
1.00484063e+00
1.00490275e+00
1.00496646e+00
1.00503233e+00
1.00510041e+00
1.00517019e+00
1.00524051e+00
1.00530977e+00
1.00537582e+00
1.00543660e+00
1.00548960e+00
1.00553418e+00
1.00556695e+00
9.94875626e-01
9.94898096e-01
9.94926751e-01
9.94957388e-01
9.94990611e-01
9.95025201e-01
9.95060584e-01
9.95096134e-01
9.95131775e-01
9.95167641e-01
9.95204243e-01
9.95242254e-01
9.95282489e-01
9.95325784e-01
9.95372980e-01
9.95424885e-01
9.95482261e-01
9.95545838e-01
9.95616316e-01
9.95694363e-01
9.95780599e-01
9.95875562e-01
9.95979665e-01
9.96093139e-01
9.96215982e-01
9.96347912e-01
9.96488335e-01
9.96636339e-01
9.96790706e-01
9.96949951e-01
9.97112385e-01
9.97276192e-01
9.97439516e-01
9.97600550e-01
9.97757626e-01
9.97909283e-01
9.98054324e-01
9.98191850e-01
9.98321274e-01
9.98442311e-01
9.98554954e-01
9.98659440e-01
9.98756198e-01
9.98845802e-01
9.98928921e-01
9.99006277e-01
9.99078598e-01
9.99146595e-01
9.99210930e-01
9.99272207e-01
9.99330955e-01
9.99387633e-01
9.99442624e-01
9.99496247e-01
9.99548762e-01
9.99600378e-01
9.99651264e-01
9.99701558e-01
9.99751374e-01
9.99800809e-01
9.99849948e-01
9.99898868e-01
9.99947644e-01
9.99996347e-01
1.00004505e+00
1.00009382e+00
1.00014275e+00
1.00019191e+00
1.00024140e+00
1.00029133e+00
1.00034183e+00
1.00039306e+00
1.00044518e+00
1.00049843e+00
1.00055307e+00
1.00060941e+00
1.00066782e+00
1.00072872e+00
1.00079258e+00
1.00085992e+00
1.00093129e+00
1.00100727e+00
1.00108846e+00
1.00117540e+00
1.00126863e+00
1.00136860e+00
1.00147566e+00
1.00159005e+00
1.00171181e+00
1.00184085e+00
1.00197683e+00
1.00211921e+00
1.00226721e+00
1.00241983e+00
1.00257586e+00
1.00273392e+00
1.00289252e+00
1.00305010e+00
1.00320512e+00
1.00335609e+00
1.00350169e+00
1.00364076e+00
1.00377238e+00
1.00389587e+00
1.00401079e+00
1.00411694e+00
1.00421432e+00
1.00430314e+00
1.00438375e+00
1.00445667e+00
1.00452252e+00
1.00458206e+00
1.00463616e+00
1.00468575e+00
1.00473187e+00
1.00477554e+00
1.00481777e+00
1.00485944e+00
1.00490123e+00
1.00494355e+00
1.00498649e+00
1.00502968e+00
1.00507251e+00
1.00511392e+00
1.00515294e+00
1.00518819e+00
1.00521994e+00
1.00524435e+00
9.95200802e-01
9.95212577e-01
9.95225082e-01
9.95234092e-01
9.95241562e-01
9.95247995e-01
9.95254403e-01
9.95261570e-01
9.95270532e-01
9.95282171e-01
9.95297384e-01
9.95316863e-01
9.95341157e-01
9.95370647e-01
9.95405606e-01
9.95446238e-01
9.95492749e-01
9.95545395e-01
9.95604516e-01
9.95670545e-01
9.95743994e-01
9.95825409e-01
9.95915317e-01
9.96014158e-01
9.96122213e-01
9.96239545e-01
9.96365950e-01
9.96500925e-01
9.96643663e-01
9.96793063e-01
9.96947769e-01
9.97106221e-01
9.97266730e-01
9.97427548e-01
9.97586956e-01
9.97743331e-01
9.97895221e-01
9.98041394e-01
9.98180873e-01
9.98312958e-01
9.98437223e-01
9.98553508e-01
9.98661888e-01
9.98762642e-01
9.98856210e-01
9.98943152e-01
9.99024105e-01
9.99099745e-01
9.99170754e-01
9.99237791e-01
9.99301473e-01
9.99362358e-01
9.99420941e-01
9.99477647e-01
9.99532837e-01
9.99586811e-01
9.99639814e-01
9.99692049e-01
9.99743681e-01
9.99794845e-01
9.99845659e-01
9.99896223e-01
9.99946630e-01
9.99996968e-01
1.00004733e+00
1.00009779e+00
1.00014847e+00
1.00019948e+00
1.00025093e+00
1.00030299e+00
1.00035584e+00
1.00040968e+00
1.00046476e+00
1.00052140e+00
1.00057993e+00
1.00064075e+00
1.00070430e+00
1.00077108e+00
1.00084161e+00
1.00091644e+00
1.00099612e+00
1.00108119e+00
1.00117215e+00
1.00126943e+00
1.00137339e+00
1.00148425e+00
1.00160210e+00
1.00172687e+00
1.00185832e+00
1.00199601e+00
1.00213930e+00
1.00228738e+00
1.00243923e+00
1.00259366e+00
1.00274937e+00
1.00290493e+00
1.00305889e+00
1.00320980e+00
1.00335628e+00
1.00349710e+00
1.00363118e+00
1.00375769e+00
1.00387603e+00
1.00398582e+00
1.00408694e+00
1.00417945e+00
1.00426357e+00
1.00433964e+00
1.00440804e+00
1.00446922e+00
1.00452363e+00
1.00457169e+00
1.00461387e+00
1.00465062e+00
1.00468245e+00
1.00470993e+00
1.00473368e+00
1.00475437e+00
1.00477272e+00
1.00478941e+00
1.00480512e+00
1.00482033e+00
1.00483550e+00
1.00485077e+00
1.00486643e+00
1.00488243e+00
1.00490002e+00
1.00491513e+00
9.95525075e-01
9.95525786e-01
9.95521738e-01
9.95508922e-01
9.95490581e-01
9.95469029e-01
9.95446869e-01
9.95426278e-01
9.95409355e-01
9.95397687e-01
9.95392491e-01
9.95394435e-01
9.95403789e-01
9.95420482e-01
9.95444233e-01
9.95474683e-01
9.95511507e-01
9.95554508e-01
9.95603659e-01
9.95659129e-01
9.95721264e-01
9.95790538e-01
9.95867492e-01
9.95952666e-01
9.96046519e-01
9.96149365e-01
9.96261312e-01
9.96382221e-01
9.96511680e-01
9.96648994e-01
9.96793197e-01
9.96943084e-01
9.97097252e-01
9.97254162e-01
9.97412196e-01
9.97569734e-01
9.97725216e-01
9.97877202e-01
9.98024427e-01
9.98165839e-01
9.98300622e-01
9.98428209e-01
9.98548284e-01
9.98660760e-01
9.98765761e-01
9.98863591e-01
9.98954694e-01
9.99039617e-01
9.99118974e-01
9.99193412e-01
9.99263575e-01
9.99330085e-01
9.99393523e-01
9.99454412e-01
9.99513217e-01
9.99570338e-01
9.99626116e-01
9.99680837e-01
9.99734738e-01
9.99788018e-01
9.99840843e-01
9.99893357e-01
9.99945689e-01
9.99997959e-01
1.00005029e+00