# vtk DataFile Version 2.0
LBM Flow Field - Timestep 2430
ASCII
DATASET STRUCTURED_POINTS
DIMENSIONS 128 128 1
ORIGIN 0.0 0.0 0.0
SPACING 1.0 1.0 1.0
POINT_DATA 16384
SCALARS density double 1
LOOKUP_TABLE default
9.96509808e-01
9.96505942e-01
9.96500626e-01
9.96511344e-01
9.96524280e-01
9.96535164e-01
9.96552169e-01
9.96576174e-01
9.96602053e-01
9.96631903e-01
9.96668535e-01
9.96710665e-01
9.96757088e-01
9.96809645e-01
9.96868566e-01
9.96932885e-01
9.97002528e-01
9.97078047e-01
9.97158786e-01
9.97244117e-01
9.97333839e-01
9.97427623e-01
9.97524663e-01
9.97624414e-01
9.97726406e-01
9.97830041e-01
9.97934658e-01
9.98039788e-01
9.98144959e-01
9.98249701e-01
9.98353615e-01
9.98456408e-01
9.98557810e-01
9.98657611e-01
9.98755671e-01
9.98851917e-01
9.98946310e-01
9.99038869e-01
9.99129659e-01
9.99218784e-01
9.99306377e-01
9.99392604e-01
9.99477652e-01
9.99561722e-01
9.99645021e-01
9.99727760e-01
9.99810141e-01
9.99892352e-01
9.99974564e-01
1.00005692e+00
1.00013954e+00
1.00022252e+00
1.00030591e+00
1.00038974e+00
1.00047403e+00
1.00055877e+00
1.00064393e+00
1.00072949e+00
1.00081541e+00
1.00090169e+00
1.00098830e+00
1.00107527e+00
1.00116260e+00
1.00125035e+00
1.00133858e+00
1.00142736e+00
1.00151676e+00
1.00160685e+00
1.00169770e+00
1.00178935e+00
1.00188182e+00
1.00197508e+00
1.00206908e+00
1.00216370e+00
1.00225881e+00
1.00235420e+00
1.00244964e+00
1.00254489e+00
1.00263965e+00
1.00273364e+00
1.00282658e+00
1.00291821e+00
1.00300830e+00
1.00309667e+00
1.00318319e+00
1.00326782e+00
1.00335054e+00
1.00343144e+00
1.00351067e+00
1.00358845e+00
1.00366506e+00
1.00374082e+00
1.00381609e+00
1.00389127e+00
1.00396675e+00
1.00404292e+00
1.00412016e+00
1.00419878e+00
1.00427905e+00
1.00436122e+00
1.00444541e+00
1.00453164e+00
1.00461991e+00
1.00471016e+00
1.00480208e+00
1.00489537e+00
1.00498978e+00
1.00508489e+00
1.00517997e+00
1.00527464e+00
1.00536860e+00
1.00546096e+00
1.00555081e+00
1.00563830e+00
1.00572295e+00
1.00580317e+00
1.00587870e+00
1.00595078e+00
1.00601765e+00
1.00607712e+00
1.00613173e+00
1.00618251e+00
1.00622447e+00
1.00625782e+00
1.00628931e+00
1.00631283e+00
1.00632372e+00
1.00633097e+00
9.96509210e-01
9.96512018e-01
9.96510027e-01
9.96518260e-01
9.96530686e-01
9.96543987e-01
9.96560726e-01
9.96583897e-01
9.96610541e-01
9.96641291e-01
9.96677407e-01
9.96719490e-01
9.96766368e-01
9.96818951e-01
9.96877424e-01
9.96941694e-01
9.97011230e-01
9.97086323e-01
9.97166553e-01
9.97251527e-01
9.97340725e-01
9.97433865e-01
9.97530284e-01
9.97629445e-01
9.97730757e-01
9.97833718e-01
9.97937703e-01
9.98042221e-01
9.98146778e-01
9.98250959e-01
9.98354357e-01
9.98456670e-01
9.98557628e-01
9.98657039e-01
9.98754752e-01
9.98850691e-01
9.98944819e-01
9.99037156e-01
9.99127762e-01
9.99216740e-01
9.99304223e-01
9.99390377e-01
9.99475384e-01
9.99559445e-01
9.99642767e-01
9.99725556e-01
9.99808013e-01
9.99890326e-01
9.99972662e-01
1.00005517e+00
1.00013795e+00
1.00022111e+00
1.00030471e+00
1.00038877e+00
1.00047330e+00
1.00055831e+00
1.00064376e+00
1.00072963e+00
1.00081590e+00
1.00090253e+00
1.00098953e+00
1.00107690e+00
1.00116466e+00
1.00125284e+00
1.00134150e+00
1.00143069e+00
1.00152050e+00
1.00161096e+00
1.00170214e+00
1.00179407e+00
1.00188676e+00
1.00198016e+00
1.00207422e+00
1.00216882e+00
1.00226382e+00
1.00235901e+00
1.00245417e+00
1.00254905e+00
1.00264338e+00
1.00273688e+00
1.00282928e+00
1.00292034e+00
1.00300985e+00
1.00309763e+00
1.00318357e+00
1.00326762e+00
1.00334981e+00
1.00343022e+00
1.00350900e+00
1.00358638e+00
1.00366264e+00
1.00373810e+00
1.00381311e+00
1.00388807e+00
1.00396336e+00
1.00403937e+00
1.00411645e+00
1.00419493e+00
1.00427505e+00
1.00435705e+00
1.00444103e+00
1.00452705e+00
1.00461507e+00
1.00470500e+00
1.00479656e+00
1.00488951e+00
1.00498350e+00
1.00507809e+00
1.00517270e+00
1.00526698e+00
1.00536031e+00
1.00545205e+00
1.00554154e+00
1.00562864e+00
1.00571245e+00
1.00579222e+00
1.00586779e+00
1.00593929e+00
1.00600513e+00
1.00606489e+00
1.00611987e+00
1.00616935e+00
1.00621072e+00
1.00624537e+00
1.00627646e+00
1.00629817e+00
1.00631153e+00
1.00632116e+00
9.96510524e-01
9.96516606e-01
9.96527687e-01
9.96531080e-01
9.96538377e-01
9.96555967e-01
9.96575169e-01
9.96595137e-01
9.96621735e-01
9.96654516e-01
9.96690356e-01
9.96731172e-01
9.96778686e-01
9.96831598e-01
9.96889345e-01
9.96953106e-01
9.97022731e-01
9.97097327e-01
9.97176817e-01
9.97261280e-01
9.97349995e-01
9.97442335e-01
9.97537990e-01
9.97636460e-01
9.97737020e-01
9.97839145e-01
9.97942369e-01
9.98046144e-01
9.98149948e-01
9.98253396e-01
9.98356121e-01
9.98457784e-01
9.98558127e-01
9.98656967e-01
9.98754160e-01
9.98849616e-01
9.98943309e-01
9.99035260e-01
9.99125529e-01
9.99214219e-01
9.99301467e-01
9.99387438e-01
9.99472317e-01
9.99556303e-01
9.99639605e-01
9.99722429e-01
9.99804974e-01
9.99887426e-01
9.99969953e-01
1.00005269e+00
1.00013577e+00
1.00021926e+00
1.00030322e+00
1.00038768e+00
1.00047266e+00
1.00055814e+00
1.00064410e+00
1.00073050e+00
1.00081732e+00
1.00090453e+00
1.00099211e+00
1.00108007e+00
1.00116842e+00
1.00125718e+00
1.00134640e+00
1.00143613e+00
1.00152642e+00
1.00161733e+00
1.00170889e+00
1.00180112e+00
1.00189401e+00
1.00198754e+00
1.00208161e+00
1.00217612e+00
1.00227091e+00
1.00236579e+00
1.00246053e+00
1.00255489e+00
1.00264861e+00
1.00274141e+00
1.00283305e+00
1.00292329e+00
1.00301193e+00
1.00309883e+00
1.00318389e+00
1.00326707e+00
1.00334841e+00
1.00342800e+00
1.00350601e+00
1.00358267e+00
1.00365826e+00
1.00373312e+00
1.00380759e+00
1.00388206e+00
1.00395692e+00
1.00403253e+00
1.00410925e+00
1.00418739e+00
1.00426722e+00
1.00434890e+00
1.00443256e+00
1.00451828e+00
1.00460597e+00
1.00469547e+00
1.00478664e+00
1.00487922e+00
1.00497269e+00
1.00506667e+00
1.00516089e+00
1.00525468e+00
1.00534719e+00
1.00543828e+00
1.00552762e+00
1.00561389e+00
1.00569653e+00
1.00577625e+00
1.00585196e+00
1.00592162e+00
1.00598654e+00
1.00604797e+00
1.00610220e+00
1.00614817e+00
1.00619113e+00
1.00622914e+00
1.00625553e+00
1.00627458e+00
1.00629348e+00
1.00630555e+00
9.96529708e-01
9.96532292e-01
9.96538852e-01
9.96546072e-01
9.96556918e-01
9.96571451e-01
9.96589808e-01
9.96611987e-01
9.96638768e-01
9.96670088e-01
9.96706389e-01
9.96747805e-01
9.96794655e-01
9.96846940e-01
9.96904831e-01
9.96968205e-01
9.97037021e-01
9.97111056e-01
9.97190082e-01
9.97273692e-01
9.97361519e-01
9.97453082e-01
9.97547880e-01
9.97645349e-01
9.97744968e-01
9.97846178e-01
9.97948446e-01
9.98051261e-01
9.98154170e-01
9.98256742e-01
9.98358611e-01
9.98459465e-01
9.98559056e-01
9.98657185e-01
9.98753717e-01
9.98848573e-01
9.98941727e-01
9.99033198e-01
9.99123053e-01
9.99211399e-01
9.99298374e-01
9.99384144e-01
9.99468896e-01
9.99552832e-01
9.99636157e-01
9.99719078e-01
9.99801793e-01
9.99884484e-01
9.99967314e-01
1.00005042e+00
1.00013391e+00
1.00021788e+00
1.00030236e+00
1.00038739e+00
1.00047296e+00
1.00055907e+00
1.00064567e+00
1.00073274e+00
1.00082024e+00
1.00090814e+00
1.00099640e+00
1.00108503e+00
1.00117402e+00
1.00126340e+00
1.00135320e+00
1.00144345e+00
1.00153420e+00
1.00162549e+00
1.00171734e+00
1.00180977e+00
1.00190275e+00
1.00199624e+00
1.00209017e+00
1.00218440e+00
1.00227879e+00
1.00237314e+00
1.00246724e+00
1.00256084e+00
1.00265370e+00
1.00274557e+00
1.00283621e+00
1.00292540e+00
1.00301296e+00
1.00309876e+00
1.00318273e+00
1.00326484e+00
1.00334513e+00
1.00342374e+00
1.00350082e+00
1.00357662e+00
1.00365142e+00
1.00372556e+00
1.00379939e+00
1.00387328e+00
1.00394762e+00
1.00402278e+00
1.00409908e+00
1.00417683e+00
1.00425628e+00
1.00433760e+00
1.00442090e+00
1.00450621e+00
1.00459347e+00
1.00468256e+00
1.00477324e+00
1.00486521e+00
1.00495814e+00
1.00505157e+00
1.00514503e+00
1.00523799e+00
1.00532996e+00
1.00542032e+00
1.00550855e+00
1.00559408e+00
1.00567641e+00
1.00575497e+00
1.00582936e+00
1.00589904e+00
1.00596376e+00
1.00602307e+00
1.00607661e+00
1.00612409e+00
1.00616588e+00
1.00620067e+00
1.00622832e+00
1.00625054e+00
1.00626714e+00
1.00627641e+00
9.96552042e-01
9.96554122e-01
9.96555084e-01
9.96565628e-01
9.96579203e-01
9.96591039e-01
9.96608729e-01
9.96633120e-01
9.96659752e-01
9.96689726e-01
9.96726383e-01
9.96768334e-01
9.96814387e-01
9.96866025e-01
9.96923864e-01
9.96986748e-01
9.97054622e-01
9.97127965e-01
9.97206312e-01
9.97288928e-01
9.97375690e-01
9.97466285e-01
9.97560013e-01
9.97656307e-01
9.97754786e-01
9.97854878e-01
9.97955991e-01
9.98057667e-01
9.98159487e-01
9.98261001e-01
9.98361841e-01
9.98461725e-01
9.98560403e-01
9.98657674e-01
9.98753411e-01
9.98847544e-01
9.98940046e-01
9.99030940e-01
9.99120300e-01
9.99208235e-01
9.99294885e-01
9.99380420e-01
9.99465030e-01
9.99548916e-01
9.99632283e-01
9.99715337e-01
9.99798273e-01
9.99881269e-01
9.99964483e-01
1.00004805e+00
1.00013207e+00
1.00021662e+00
1.00030174e+00
1.00038745e+00
1.00047375e+00
1.00056061e+00
1.00064800e+00
1.00073586e+00
1.00082417e+00
1.00091286e+00
1.00100191e+00
1.00109131e+00
1.00118104e+00
1.00127112e+00
1.00136156e+00
1.00145238e+00
1.00154362e+00
1.00163530e+00
1.00172744e+00
1.00182003e+00
1.00191304e+00
1.00200643e+00
1.00210010e+00
1.00219394e+00
1.00228778e+00
1.00238144e+00
1.00247471e+00
1.00256736e+00
1.00265915e+00
1.00274986e+00
1.00283925e+00
1.00292714e+00
1.00301336e+00
1.00309782e+00
1.00318044e+00
1.00326123e+00
1.00334026e+00
1.00341766e+00
1.00349360e+00
1.00356835e+00
1.00364219e+00
1.00371545e+00
1.00378850e+00
1.00386169e+00
1.00393540e+00
1.00401000e+00
1.00408580e+00
1.00416308e+00
1.00424206e+00
1.00432295e+00
1.00440581e+00
1.00449064e+00
1.00457739e+00
1.00466597e+00
1.00475606e+00
1.00484733e+00
1.00493958e+00
1.00503232e+00
1.00512489e+00
1.00521692e+00
1.00530814e+00
1.00539761e+00
1.00548458e+00
1.00556919e+00
1.00565096e+00
1.00572823e+00
1.00580112e+00
1.00587063e+00
1.00593489e+00
1.00599198e+00
1.00604474e+00
1.00609346e+00
1.00613349e+00
1.00616569e+00
1.00619556e+00
1.00621886e+00
1.00623029e+00
1.00623915e+00
9.96572858e-01
9.96577040e-01
9.96582439e-01
9.96590042e-01
9.96600666e-01
9.96616037e-01
9.96634912e-01
9.96656676e-01
9.96683145e-01
9.96714833e-01
9.96750778e-01
9.96791427e-01
9.96837707e-01
9.96889370e-01
9.96946050e-01
9.97008111e-01
9.97075593e-01
9.97148019e-01
9.97225116e-01
9.97306766e-01
9.97392514e-01
9.97481801e-01
9.97574216e-01
9.97669306e-01
9.97766481e-01
9.97865204e-01
9.97965014e-01
9.98065426e-01
9.98165964e-01
9.98266236e-01
9.98365906e-01
9.98464665e-01
9.98562265e-01
9.98658533e-01
9.98753344e-01
9.98846622e-01
9.98938351e-01
9.99028566e-01
9.99117339e-01
9.99204783e-01
9.99291047e-01
9.99376303e-01
9.99460740e-01
9.99544562e-01
9.99627976e-01
9.99711183e-01
9.99794376e-01
9.99877728e-01
9.99961392e-01
1.00004549e+00
1.00013013e+00
1.00021536e+00
1.00030123e+00
1.00038774e+00
1.00047488e+00
1.00056262e+00
1.00065090e+00
1.00073968e+00
1.00082889e+00
1.00091850e+00
1.00100844e+00
1.00109870e+00
1.00118925e+00
1.00128009e+00
1.00137122e+00
1.00146265e+00
1.00155441e+00
1.00164649e+00
1.00173890e+00
1.00183163e+00
1.00192463e+00
1.00201785e+00
1.00211119e+00
1.00220453e+00
1.00229770e+00
1.00239054e+00
1.00248283e+00
1.00257435e+00
1.00266490e+00
1.00275424e+00
1.00284219e+00
1.00292857e+00
1.00301325e+00
1.00309613e+00
1.00317719e+00
1.00325645e+00
1.00333400e+00
1.00340997e+00
1.00348458e+00
1.00355808e+00
1.00363077e+00
1.00370298e+00
1.00377507e+00
1.00384740e+00
1.00392035e+00
1.00399424e+00
1.00406939e+00
1.00414608e+00
1.00422452e+00
1.00430483e+00
1.00438713e+00
1.00447141e+00
1.00455756e+00
1.00464544e+00
1.00473484e+00
1.00482544e+00
1.00491681e+00
1.00500858e+00
1.00510034e+00
1.00519147e+00
1.00528139e+00
1.00536977e+00
1.00545604e+00
1.00553936e+00
1.00561941e+00
1.00569608e+00
1.00576848e+00
1.00583584e+00
1.00589852e+00
1.00595641e+00
1.00600823e+00
1.00605366e+00
1.00609371e+00
1.00612817e+00
1.00615524e+00
1.00617544e+00
1.00619037e+00
1.00620026e+00
9.96600957e-01
9.96604659e-01
9.96611950e-01
9.96618440e-01
9.96628400e-01
9.96644987e-01
9.96663644e-01
9.96684577e-01
9.96711357e-01
9.96743216e-01
9.96778404e-01
9.96818556e-01
9.96864689e-01
9.96915718e-01
9.96971469e-01
9.97032805e-01
9.97099465e-01
9.97170756e-01
9.97246679e-01
9.97327183e-01
9.97411626e-01
9.97499500e-01
9.97590518e-01
9.97684183e-01
9.97779864e-01
9.97877102e-01
9.97975458e-01
9.98074419e-01
9.98173527e-01
9.98272425e-01
9.98370772e-01
9.98468258e-01
9.98564653e-01
9.98659794e-01
9.98753555e-01
9.98845868e-01
9.98936728e-01
9.99026172e-01
9.99114279e-01
9.99201169e-01
9.99286994e-01
9.99371931e-01
9.99456171e-01
9.99539919e-01
9.99623381e-01
9.99706757e-01
9.99790233e-01
9.99873981e-01
9.99958144e-01
1.00004284e+00
1.00012815e+00
1.00021414e+00
1.00030084e+00
1.00038823e+00
1.00047629e+00
1.00056499e+00
1.00065425e+00
1.00074402e+00
1.00083423e+00
1.00092482e+00
1.00101573e+00
1.00110691e+00
1.00119834e+00
1.00129000e+00
1.00138186e+00
1.00147394e+00
1.00156623e+00
1.00165872e+00
1.00175141e+00
1.00184425e+00
1.00193721e+00
1.00203022e+00
1.00212316e+00
1.00221591e+00
1.00230832e+00
1.00240021e+00
1.00249139e+00
1.00258165e+00
1.00267078e+00
1.00275860e+00
1.00284492e+00
1.00292960e+00
1.00301252e+00
1.00309364e+00
1.00317294e+00
1.00325046e+00
1.00332632e+00
1.00340068e+00
1.00347376e+00
1.00354583e+00
1.00361719e+00
1.00368818e+00
1.00375916e+00
1.00383048e+00
1.00390251e+00
1.00397556e+00
1.00404994e+00
1.00412590e+00
1.00420365e+00
1.00428330e+00
1.00436491e+00
1.00444849e+00
1.00453394e+00
1.00462104e+00
1.00470960e+00
1.00479936e+00
1.00488981e+00
1.00498052e+00
1.00507122e+00
1.00516132e+00
1.00525003e+00
1.00533709e+00
1.00542224e+00
1.00550442e+00
1.00558297e+00
1.00565833e+00
1.00572984e+00
1.00579587e+00
1.00585698e+00
1.00591418e+00
1.00596515e+00
1.00600892e+00
1.00604837e+00
1.00608291e+00
1.00610827e+00
1.00612708e+00
1.00614306e+00
1.00615221e+00
9.96635848e-01
9.96638062e-01
9.96642250e-01
9.96650946e-01
9.96662977e-01
9.96676740e-01
9.96694554e-01
9.96717640e-01
9.96744010e-01
9.96773926e-01
9.96809340e-01
9.96849919e-01
9.96894739e-01
9.96944618e-01
9.97000138e-01
9.97060618e-01
9.97125786e-01
9.97195967e-01
9.97270882e-01
9.97349901e-01
9.97432775e-01
9.97519263e-01
9.97608779e-01
9.97700765e-01
9.97794838e-01
9.97890521e-01
9.97987258e-01
9.98084606e-01
9.98182185e-01
9.98279592e-01
9.98376472e-01
9.98472565e-01
9.98567652e-01
9.98661553e-01
9.98754155e-01
9.98845411e-01
9.98935315e-01
9.99023907e-01
9.99111279e-01
9.99197557e-01
9.99282896e-01
9.99367476e-01
9.99451494e-01
9.99535153e-01
9.99618658e-01
9.99702207e-01
9.99785983e-01
9.99870148e-01
9.99954839e-01
1.00004016e+00
1.00012620e+00
1.00021299e+00
1.00030056e+00
1.00038888e+00
1.00047792e+00
1.00056762e+00
1.00065792e+00
1.00074874e+00
1.00084000e+00
1.00093162e+00
1.00102353e+00
1.00111568e+00
1.00120802e+00
1.00130052e+00
1.00139315e+00
1.00148588e+00
1.00157871e+00
1.00167162e+00
1.00176456e+00
1.00185751e+00
1.00195039e+00
1.00204313e+00
1.00213562e+00
1.00222772e+00
1.00231929e+00
1.00241015e+00
1.00250011e+00
1.00258898e+00
1.00267658e+00
1.00276273e+00
1.00284727e+00
1.00293010e+00
1.00301112e+00
1.00309030e+00
1.00316766e+00
1.00324328e+00
1.00331728e+00
1.00338985e+00
1.00346123e+00
1.00353170e+00
1.00360156e+00
1.00367116e+00
1.00374087e+00
1.00381102e+00
1.00388196e+00
1.00395403e+00
1.00402749e+00
1.00410259e+00
1.00417949e+00
1.00425834e+00
1.00433916e+00
1.00442189e+00
1.00450648e+00
1.00459274e+00
1.00468036e+00
1.00476903e+00
1.00485848e+00
1.00494820e+00
1.00503759e+00
1.00512634e+00
1.00521405e+00
1.00529986e+00
1.00538323e+00
1.00546417e+00
1.00554198e+00
1.00561555e+00
1.00568502e+00
1.00575069e+00
1.00581115e+00
1.00586559e+00
1.00591529e+00
1.00596016e+00
1.00599798e+00
1.00602913e+00
1.00605567e+00
1.00607609e+00
1.00608869e+00
1.00609593e+00
9.96672343e-01
9.96675157e-01
9.96678856e-01
9.96687380e-01
9.96699168e-01
9.96712737e-01
9.96730822e-01
9.96753441e-01
9.96779062e-01
9.96808883e-01
9.96844039e-01
9.96883651e-01
9.96927648e-01
9.96976965e-01
9.97031509e-01
9.97090707e-01
9.97154755e-01
9.97223754e-01
9.97297183e-01
9.97374656e-01
9.97456042e-01
9.97540917e-01
9.97628700e-01
9.97718985e-01
9.97811368e-01
9.97905306e-01
9.98000306e-01
9.98095976e-01
9.98191904e-01
9.98287686e-01
9.98383012e-01
9.98477625e-01
9.98571297e-01
9.98663864e-01
9.98755231e-01
9.98845352e-01
9.98934225e-01
9.99021903e-01
9.99108486e-01
9.99194102e-01
9.99278913e-01
9.99363104e-01
9.99446873e-01
9.99530425e-01
9.99613962e-01
9.99697679e-01
9.99781753e-01
9.99866339e-01
9.99951566e-01
1.00003753e+00
1.00012430e+00
1.00021191e+00
1.00030036e+00
1.00038963e+00
1.00047967e+00
1.00057040e+00
1.00066175e+00
1.00075363e+00
1.00084595e+00
1.00093862e+00
1.00103155e+00
1.00112468e+00
1.00121795e+00
1.00131130e+00
1.00140470e+00
1.00149811e+00
1.00159148e+00
1.00168480e+00
1.00177800e+00
1.00187104e+00
1.00196383e+00
1.00205628e+00
1.00214828e+00
1.00223969e+00
1.00233036e+00
1.00242011e+00
1.00250878e+00
1.00259618e+00
1.00268215e+00
1.00276652e+00
1.00284918e+00
1.00293002e+00
1.00300900e+00
1.00308610e+00
1.00316138e+00
1.00323494e+00
1.00330693e+00
1.00337756e+00
1.00344707e+00
1.00351577e+00
1.00358398e+00
1.00365203e+00
1.00372030e+00
1.00378912e+00
1.00385883e+00
1.00392975e+00
1.00400214e+00
1.00407622e+00
1.00415214e+00
1.00423002e+00
1.00430989e+00
1.00439168e+00
1.00447526e+00
1.00456049e+00
1.00464707e+00
1.00473463e+00
1.00482285e+00
1.00491137e+00
1.00499957e+00
1.00508694e+00
1.00517320e+00
1.00525775e+00
1.00533978e+00
1.00541907e+00
1.00549546e+00
1.00556791e+00
1.00563590e+00
1.00569990e+00
1.00575928e+00
1.00581275e+00
1.00586102e+00
1.00590464e+00
1.00594169e+00
1.00597202e+00
1.00599782e+00
1.00601733e+00
1.00602885e+00
1.00603635e+00
9.96711613e-01
9.96714851e-01
9.96720536e-01
9.96727545e-01
9.96737807e-01
9.96752934e-01
9.96771081e-01
9.96791720e-01
9.96817233e-01
9.96847631e-01
9.96881509e-01
9.96919779e-01
9.96963582e-01
9.97012142e-01
9.97065065e-01
9.97123081e-01
9.97186173e-01
9.97253626e-01
9.97325338e-01
9.97401358e-01
9.97481158e-01
9.97564176e-01
9.97650164e-01
9.97738730e-01
9.97829277e-01
9.97921343e-01
9.98014562e-01
9.98108476e-01
9.98202637e-01
9.98296718e-01
9.98390427e-01
9.98483474e-01
9.98575650e-01
9.98666821e-01
9.98756890e-01
9.98845808e-01
9.98933593e-01
9.99020309e-01
9.99106055e-01
9.99190967e-01
9.99275216e-01
9.99358988e-01
9.99442482e-01
9.99525904e-01
9.99609454e-01
9.99693323e-01
9.99777680e-01
9.99862674e-01
9.99948425e-01
1.00003502e+00
1.00012251e+00
1.00021092e+00
1.00030025e+00
1.00039045e+00
1.00048146e+00
1.00057320e+00
1.00066559e+00
1.00075852e+00
1.00085188e+00
1.00094558e+00
1.00103953e+00
1.00113363e+00
1.00122782e+00
1.00132202e+00
1.00141618e+00
1.00151025e+00
1.00160417e+00
1.00169789e+00
1.00179135e+00
1.00188446e+00
1.00197715e+00
1.00206930e+00
1.00216080e+00
1.00225149e+00
1.00234122e+00
1.00242984e+00
1.00251717e+00
1.00260304e+00
1.00268730e+00
1.00276983e+00
1.00285051e+00
1.00292928e+00
1.00300612e+00
1.00308104e+00
1.00315413e+00
1.00322550e+00
1.00329535e+00
1.00336390e+00
1.00343141e+00
1.00349820e+00
1.00356460e+00
1.00363096e+00
1.00369763e+00
1.00376496e+00
1.00383328e+00
1.00390289e+00
1.00397403e+00
1.00404692e+00
1.00412172e+00
1.00419847e+00
1.00427721e+00
1.00435791e+00
1.00444038e+00
1.00452439e+00
1.00460977e+00
1.00469618e+00
1.00478310e+00
1.00487017e+00
1.00495710e+00
1.00504322e+00
1.00512785e+00
1.00521082e+00
1.00529177e+00
1.00536962e+00
1.00544400e+00
1.00551525e+00
1.00558249e+00
1.00564452e+00
1.00570199e+00
1.00575532e+00
1.00580270e+00
1.00584367e+00
1.00588013e+00
1.00591132e+00
1.00593495e+00
1.00595246e+00
1.00596571e+00
1.00597318e+00
9.96756338e-01
9.96758787e-01
9.96763825e-01
9.96771058e-01
9.96781516e-01
9.96795842e-01
9.96813144e-01
9.96833938e-01
9.96859138e-01
9.96888246e-01
9.96921349e-01
9.96959279e-01
9.97001964e-01
9.97049071e-01
9.97100993e-01
9.97157895e-01
9.97219350e-01
9.97285189e-01
9.97355453e-01
9.97429785e-01
9.97507696e-01
9.97588921e-01
9.97673124e-01
9.97759764e-01
9.97848376e-01
9.97938588e-01
9.98029946e-01
9.98121984e-01
9.98214340e-01
9.98306687e-01
9.98398700e-01
9.98490118e-01
9.98580763e-01
9.98670491e-01
9.98759207e-01
9.98846884e-01
9.98933548e-01
9.99019263e-01
9.99104137e-01
9.99188318e-01
9.99271977e-01
9.99355302e-01
9.99438496e-01
9.99521763e-01
9.99605300e-01
9.99689293e-01
9.99773904e-01
9.99859275e-01
9.99945514e-01
1.00003270e+00
1.00012087e+00
1.00021004e+00
1.00030019e+00
1.00039127e+00
1.00048321e+00
1.00057592e+00
1.00066929e+00
1.00076322e+00
1.00085758e+00
1.00095228e+00
1.00104719e+00
1.00114223e+00
1.00123731e+00
1.00133234e+00
1.00142725e+00
1.00152197e+00
1.00161643e+00
1.00171056e+00
1.00180426e+00
1.00189746e+00
1.00199005e+00
1.00208190e+00
1.00217289e+00
1.00226286e+00
1.00235165e+00
1.00243911e+00
1.00252508e+00
1.00260939e+00
1.00269192e+00
1.00277256e+00
1.00285121e+00
1.00292785e+00
1.00300248e+00
1.00307514e+00
1.00314594e+00
1.00321504e+00
1.00328264e+00
1.00334899e+00
1.00341438e+00
1.00347914e+00
1.00354359e+00
1.00360811e+00
1.00367304e+00
1.00373872e+00
1.00380548e+00
1.00387362e+00
1.00394336e+00
1.00401489e+00
1.00408838e+00
1.00416386e+00
1.00424133e+00
1.00432072e+00
1.00440192e+00
1.00448467e+00
1.00456868e+00
1.00465370e+00
1.00473931e+00
1.00482498e+00
1.00491034e+00
1.00499502e+00
1.00507835e+00
1.00515974e+00
1.00523899e+00
1.00531559e+00
1.00538873e+00
1.00545817e+00
1.00552391e+00
1.00558512e+00
1.00564129e+00
1.00569280e+00
1.00573924e+00
1.00577977e+00
1.00581487e+00
1.00584468e+00
1.00586800e+00
1.00588532e+00
1.00589747e+00
1.00590379e+00
9.96804260e-01
9.96806244e-01
9.96809976e-01
9.96817701e-01
9.96828513e-01
9.96841378e-01
9.96858075e-01
9.96879224e-01
9.96903402e-01
9.96931138e-01
9.96963889e-01
9.97001082e-01
9.97042166e-01
9.97088058e-01
9.97139031e-01
9.97194373e-01
9.97254071e-01
9.97318455e-01
9.97387113e-01
9.97459510e-01
9.97535559e-01
9.97615007e-01
9.97697265e-01
9.97781895e-01
9.97868598e-01
9.97956905e-01
9.98046309e-01
9.98136452e-01
9.98226993e-01
9.98317552e-01
9.98407826e-01
9.98497602e-01
9.98586689e-01
9.98674938e-01
9.98762277e-01
9.98848696e-01
9.98934214e-01
9.99018906e-01
9.99102891e-01
9.99186321e-01
9.99269367e-01
9.99352223e-01
9.99435093e-01
9.99518177e-01
9.99601668e-01
9.99685747e-01
9.99770571e-01
9.99856269e-01
9.99942942e-01
1.00003065e+00
1.00011944e+00
1.00020930e+00
1.00030020e+00
1.00039209e+00
1.00048487e+00
1.00057846e+00
1.00067274e+00
1.00076758e+00
1.00086287e+00
1.00095849e+00
1.00105432e+00
1.00115024e+00
1.00124616e+00
1.00134198e+00
1.00143761e+00
1.00153296e+00
1.00162795e+00
1.00172247e+00
1.00181643e+00
1.00190972e+00
1.00200221e+00
1.00209377e+00
1.00218426e+00
1.00227352e+00
1.00236139e+00
1.00244771e+00
1.00253232e+00
1.00261508e+00
1.00269587e+00
1.00277460e+00
1.00285121e+00
1.00292569e+00
1.00299806e+00
1.00306842e+00
1.00313688e+00
1.00320364e+00
1.00326892e+00
1.00333299e+00
1.00339617e+00
1.00345877e+00
1.00352117e+00
1.00358371e+00
1.00364676e+00
1.00371065e+00
1.00377570e+00
1.00384219e+00
1.00391037e+00
1.00398039e+00
1.00405238e+00
1.00412641e+00
1.00420246e+00
1.00428041e+00
1.00436014e+00
1.00444148e+00
1.00452407e+00
1.00460753e+00
1.00469164e+00
1.00477593e+00
1.00485975e+00
1.00494276e+00
1.00502468e+00
1.00510476e+00
1.00518228e+00
1.00525729e+00
1.00532939e+00
1.00539745e+00
1.00546134e+00
1.00552153e+00
1.00557700e+00
1.00562675e+00
1.00567178e+00
1.00571226e+00
1.00574632e+00
1.00577423e+00
1.00579756e+00
1.00581511e+00
1.00582561e+00
1.00583111e+00
9.96853978e-01
9.96856209e-01
9.96860252e-01
9.96867073e-01
9.96876979e-01
9.96889964e-01
9.96906401e-01
9.96926155e-01
9.96949456e-01
9.96976954e-01
9.97008564e-01
9.97044154e-01
9.97084295e-01
9.97129165e-01
9.97178405e-01
9.97232082e-01
9.97290423e-01
9.97353118e-01
9.97419794e-01
9.97490389e-01
9.97564663e-01
9.97642104e-01
9.97722329e-01
9.97805049e-01
9.97889801e-01
9.97976092e-01
9.98063556e-01
9.98151832e-01
9.98240509e-01
9.98329251e-01
9.98417806e-01
9.98505937e-01
9.98593444e-01
9.98680213e-01
9.98766185e-01
9.98851336e-01
9.98935702e-01
9.99019370e-01
9.99102462e-01
9.99185129e-01
9.99267550e-01
9.99349921e-01
9.99432442e-01
9.99515311e-01
9.99598718e-01
9.99682837e-01
9.99767816e-01
9.99853777e-01
9.99940809e-01
1.00002897e+00
1.00011828e+00
1.00020873e+00
1.00030027e+00
1.00039285e+00
1.00048638e+00
1.00058073e+00
1.00067581e+00
1.00077147e+00
1.00086759e+00
1.00096403e+00
1.00106069e+00
1.00115742e+00
1.00125412e+00
1.00135068e+00
1.00144699e+00
1.00154295e+00
1.00163844e+00
1.00173335e+00
1.00182757e+00
1.00192096e+00
1.00201338e+00
1.00210468e+00
1.00219471e+00
1.00228329e+00
1.00237027e+00
1.00245547e+00
1.00253875e+00
1.00261998e+00
1.00269906e+00
1.00277590e+00
1.00285047e+00
1.00292279e+00
1.00299291e+00
1.00306095e+00
1.00312705e+00
1.00319142e+00
1.00325433e+00
1.00331606e+00
1.00337694e+00
1.00343732e+00
1.00349755e+00
1.00355801e+00
1.00361905e+00
1.00368101e+00
1.00374421e+00
1.00380891e+00
1.00387534e+00
1.00394369e+00
1.00401404e+00
1.00408643e+00
1.00416086e+00
1.00423726e+00
1.00431540e+00
1.00439510e+00
1.00447612e+00
1.00455807e+00
1.00464052e+00
1.00472316e+00
1.00480556e+00
1.00488705e+00
1.00496724e+00
1.00504585e+00
1.00512219e+00
1.00519563e+00
1.00526605e+00
1.00533311e+00
1.00539601e+00
1.00545449e+00
1.00550869e+00
1.00555804e+00
1.00560199e+00
1.00564083e+00
1.00567440e+00
1.00570223e+00
1.00572439e+00
1.00574076e+00
1.00575138e+00
1.00575693e+00
9.96906539e-01
9.96908425e-01
9.96912737e-01
9.96918860e-01
9.96927957e-01
9.96940818e-01
9.96956529e-01
9.96975061e-01
9.96997744e-01
9.97024449e-01
9.97054584e-01
9.97088948e-01
9.97128069e-01
9.97171380e-01
9.97218901e-01
9.97271141e-01
9.97327862e-01
9.97388609e-01
9.97453441e-01
9.97522266e-01
9.97594558e-01
9.97669950e-01
9.97748247e-01
9.97829012e-01
9.97911728e-01
9.97996046e-01
9.98081615e-01
9.98167990e-01
9.98254800e-01
9.98341771e-01
9.98428624e-01
9.98515106e-01
9.98601057e-01
9.98686376e-01
9.98770991e-01
9.98854888e-01
9.98938121e-01
9.99020778e-01
9.99102980e-01
9.99184886e-01
9.99266679e-01
9.99348551e-01
9.99430700e-01
9.99513323e-01
9.99596604e-01
9.99680707e-01
9.99765774e-01
9.99851917e-01
9.99939217e-01
1.00002772e+00
1.00011744e+00
1.00020836e+00
1.00030042e+00
1.00039357e+00
1.00048769e+00
1.00058268e+00
1.00067842e+00
1.00077477e+00
1.00087159e+00
1.00096876e+00
1.00106614e+00
1.00116359e+00
1.00126100e+00
1.00135823e+00
1.00145518e+00
1.00155170e+00
1.00164768e+00
1.00174298e+00
1.00183746e+00
1.00193097e+00
1.00202334e+00
1.00211442e+00
1.00220402e+00
1.00229197e+00
1.00237810e+00
1.00246224e+00
1.00254425e+00
1.00262400e+00
1.00270140e+00
1.00277640e+00
1.00284898e+00
1.00291917e+00
1.00298706e+00
1.00305278e+00
1.00311652e+00
1.00317852e+00
1.00323903e+00
1.00329839e+00
1.00335693e+00
1.00341501e+00
1.00347300e+00
1.00353129e+00
1.00359022e+00
1.00365013e+00
1.00371135e+00
1.00377412e+00
1.00383867e+00
1.00390516e+00
1.00397371e+00
1.00404433e+00
1.00411698e+00
1.00419162e+00
1.00426806e+00
1.00434603e+00
1.00442530e+00
1.00450560e+00
1.00458643e+00
1.00466735e+00
1.00474809e+00
1.00482814e+00
1.00490680e+00
1.00498375e+00
1.00505876e+00
1.00513103e+00
1.00519995e+00
1.00526564e+00
1.00532769e+00
1.00538508e+00
1.00543789e+00
1.00548650e+00
1.00552987e+00
1.00556747e+00
1.00560026e+00
1.00562793e+00
1.00564918e+00
1.00566474e+00
1.00567557e+00
1.00568057e+00
9.96961876e-01
9.96963112e-01
9.96966483e-01
9.96972579e-01
9.96981499e-01
9.96993128e-01
9.97007838e-01
9.97026062e-01
9.97047719e-01
9.97072784e-01
9.97101907e-01
9.97135315e-01
9.97172708e-01
9.97214309e-01
9.97260524e-01
9.97311116e-01
9.97365823e-01
9.97424786e-01
9.97487901e-01
9.97554708e-01
9.97624945e-01
9.97698450e-01
9.97774795e-01
9.97853498e-01
9.97934241e-01
9.98016667e-01
9.98100313e-01
9.98184793e-01
9.98269813e-01
9.98355052e-01
9.98440212e-01
9.98525093e-01
9.98609546e-01
9.98693446e-01
9.98776735e-01
9.98859423e-01
9.98941558e-01
9.99023226e-01
9.99104559e-01
9.99185721e-01
9.99266888e-01
9.99348252e-01
9.99430011e-01
9.99512354e-01
9.99595459e-01
9.99679484e-01
9.99764561e-01
9.99850794e-01
9.99938255e-01
1.00002698e+00
1.00011698e+00
1.00020822e+00
1.00030066e+00
1.00039421e+00
1.00048878e+00
1.00058425e+00
1.00068050e+00
1.00077739e+00
1.00087478e+00
1.00097254e+00
1.00107053e+00
1.00116860e+00
1.00126663e+00
1.00136447e+00
1.00146199e+00
1.00155905e+00
1.00165550e+00
1.00175118e+00
1.00184593e+00
1.00193957e+00
1.00203194e+00
1.00212283e+00
1.00221205e+00
1.00229943e+00
1.00238478e+00
1.00246792e+00
1.00254873e+00
1.00262707e+00
1.00270287e+00
1.00277609e+00
1.00284674e+00
1.00291486e+00
1.00298057e+00
1.00304403e+00
1.00310544e+00
1.00316507e+00
1.00322321e+00
1.00328018e+00
1.00333636e+00
1.00339211e+00
1.00344782e+00
1.00350386e+00
1.00356060e+00
1.00361837e+00
1.00367748e+00
1.00373820e+00
1.00380074e+00
1.00386524e+00
1.00393182e+00
1.00400051e+00
1.00407127e+00
1.00414399e+00
1.00421855e+00
1.00429472e+00
1.00437216e+00
1.00445059e+00
1.00452972e+00
1.00460903e+00
1.00468802e+00
1.00476640e+00
1.00484372e+00
1.00491926e+00
1.00499264e+00
1.00506368e+00
1.00513171e+00
1.00519607e+00
1.00525677e+00
1.00531358e+00
1.00536571e+00
1.00541295e+00
1.00545556e+00
1.00549309e+00
1.00552504e+00
1.00555158e+00
1.00557276e+00
1.00558835e+00
1.00559819e+00
1.00560240e+00
9.97018376e-01
9.97019310e-01
9.97022114e-01
9.97027754e-01
9.97036094e-01
9.97046809e-01
9.97060719e-01
9.97078056e-01
9.97098415e-01
9.97122281e-01
9.97150293e-01
9.97182159e-01
9.97217904e-01
9.97258084e-01
9.97302668e-01
9.97351335e-01
9.97404253e-01
9.97461480e-01
9.97522615e-01
9.97587398e-01
9.97655752e-01
9.97727318e-01
9.97801620e-01
9.97878362e-01
9.97957222e-01
9.98037729e-01
9.98119480e-01
9.98202170e-01
9.98285453e-01
9.98368985e-01
9.98452526e-01
9.98535887e-01
9.98618890e-01
9.98701425e-01
9.98783457e-01
9.98864992e-01
9.98946072e-01
9.99026795e-01
9.99107298e-01
9.99187736e-01
9.99268287e-01
9.99349142e-01
9.99430494e-01
9.99512524e-01
9.99595402e-01
9.99679281e-01
9.99764283e-01
9.99850503e-01
9.99938006e-01
1.00002682e+00
1.00011695e+00
1.00020837e+00
1.00030101e+00
1.00039480e+00
1.00048964e+00
1.00058542e+00
1.00068201e+00
1.00077928e+00
1.00087709e+00
1.00097530e+00
1.00107377e+00
1.00117236e+00
1.00127091e+00
1.00136928e+00
1.00146732e+00