# vtk DataFile Version 2.0
LBM Flow Field - Timestep 2770
ASCII
DATASET STRUCTURED_POINTS
DIMENSIONS 128 128 1
ORIGIN 0.0 0.0 0.0
SPACING 1.0 1.0 1.0
POINT_DATA 16384
SCALARS density double 1
LOOKUP_TABLE default
9.99538362e-01
9.99528660e-01
9.99516911e-01
9.99524463e-01
9.99530575e-01
9.99532437e-01
9.99538346e-01
9.99548378e-01
9.99556753e-01
9.99565238e-01
9.99575745e-01
9.99586538e-01
9.99596210e-01
9.99605899e-01
9.99615420e-01
9.99623754e-01
9.99630735e-01
9.99636660e-01
9.99641080e-01
9.99643676e-01
9.99644511e-01
9.99643613e-01
9.99640834e-01
9.99636242e-01
9.99630000e-01
9.99622260e-01
9.99613204e-01
9.99603127e-01
9.99592348e-01
9.99581225e-01
9.99570148e-01
9.99559548e-01
9.99549868e-01
9.99541561e-01
9.99535080e-01
9.99530871e-01
9.99529361e-01
9.99530947e-01
9.99535991e-01
9.99544812e-01
9.99557677e-01
9.99574798e-01
9.99596327e-01
9.99622353e-01
9.99652902e-01
9.99687937e-01
9.99727361e-01
9.99771017e-01
9.99818697e-01
9.99870146e-01
9.99925071e-01
9.99983146e-01
1.00004403e+00
1.00010735e+00
1.00017276e+00
1.00023989e+00
1.00030842e+00
1.00037801e+00
1.00044839e+00
1.00051931e+00
1.00059055e+00
1.00066196e+00
1.00073341e+00
1.00080483e+00
1.00087619e+00
1.00094748e+00
1.00101875e+00
1.00109006e+00
1.00116149e+00
1.00123312e+00
1.00130505e+00
1.00137736e+00
1.00145010e+00
1.00152331e+00
1.00159700e+00
1.00167114e+00
1.00174567e+00
1.00182046e+00
1.00189538e+00
1.00197024e+00
1.00204483e+00
1.00211892e+00
1.00219227e+00
1.00226462e+00
1.00233573e+00
1.00240537e+00
1.00247335e+00
1.00253947e+00
1.00260362e+00
1.00266570e+00
1.00272565e+00
1.00278346e+00
1.00283916e+00
1.00289282e+00
1.00294453e+00
1.00299439e+00
1.00304256e+00
1.00308915e+00
1.00313430e+00
1.00317815e+00
1.00322080e+00
1.00326234e+00
1.00330284e+00
1.00334236e+00
1.00338086e+00
1.00341831e+00
1.00345469e+00
1.00348996e+00
1.00352382e+00
1.00355625e+00
1.00358730e+00
1.00361661e+00
1.00364368e+00
1.00366907e+00
1.00369276e+00
1.00371362e+00
1.00373162e+00
1.00374895e+00
1.00376392e+00
1.00377413e+00
1.00378317e+00
1.00379456e+00
1.00379920e+00
1.00379723e+00
1.00380368e+00
1.00381365e+00
1.00379288e+00
1.00377675e+00
9.99525462e-01
9.99524607e-01
9.99516315e-01
9.99520453e-01
9.99525676e-01
9.99530226e-01
9.99535586e-01
9.99544470e-01
9.99553389e-01
9.99562521e-01
9.99572364e-01
9.99582966e-01
9.99592962e-01
9.99602615e-01
9.99611808e-01
9.99620204e-01
9.99627285e-01
9.99633133e-01
9.99637520e-01
9.99640264e-01
9.99641216e-01
9.99640432e-01
9.99637855e-01
9.99633544e-01
9.99627594e-01
9.99620197e-01
9.99611545e-01
9.99601914e-01
9.99591609e-01
9.99580994e-01
9.99570450e-01
9.99560397e-01
9.99551266e-01
9.99543505e-01
9.99537556e-01
9.99533856e-01
9.99532822e-01
9.99534845e-01
9.99540278e-01
9.99549435e-01
9.99562577e-01
9.99579912e-01
9.99601592e-01
9.99627704e-01
9.99658274e-01
9.99693268e-01
9.99732592e-01
9.99776093e-01
9.99823570e-01
9.99874775e-01
9.99929420e-01
9.99987189e-01
1.00004774e+00
1.00011073e+00
1.00017580e+00
1.00024261e+00
1.00031081e+00
1.00038010e+00
1.00045020e+00
1.00052087e+00
1.00059189e+00
1.00066310e+00
1.00073440e+00
1.00080569e+00
1.00087694e+00
1.00094816e+00
1.00101937e+00
1.00109064e+00
1.00116204e+00
1.00123364e+00
1.00130554e+00
1.00137781e+00
1.00145051e+00
1.00152366e+00
1.00159728e+00
1.00167132e+00
1.00174573e+00
1.00182038e+00
1.00189514e+00
1.00196983e+00
1.00204424e+00
1.00211815e+00
1.00219131e+00
1.00226348e+00
1.00233443e+00
1.00240393e+00
1.00247178e+00
1.00253782e+00
1.00260191e+00
1.00266395e+00
1.00272391e+00
1.00278175e+00
1.00283752e+00
1.00289127e+00
1.00294309e+00
1.00299309e+00
1.00304139e+00
1.00308813e+00
1.00313344e+00
1.00317744e+00
1.00322024e+00
1.00326192e+00
1.00330255e+00
1.00334218e+00
1.00338077e+00
1.00341834e+00
1.00345480e+00
1.00349009e+00
1.00352403e+00
1.00355662e+00
1.00358764e+00
1.00361694e+00
1.00364426e+00
1.00366989e+00
1.00369330e+00
1.00371435e+00
1.00373311e+00
1.00375041e+00
1.00376459e+00
1.00377614e+00
1.00378641e+00
1.00379608e+00
1.00379990e+00
1.00380269e+00
1.00380812e+00
1.00381185e+00
1.00379629e+00
1.00379531e+00
9.99506290e-01
9.99508284e-01
9.99516990e-01
9.99514741e-01
9.99514709e-01
9.99523656e-01
9.99531362e-01
9.99537143e-01
9.99546058e-01
9.99556974e-01
9.99566609e-01
9.99576266e-01
9.99586882e-01
9.99596982e-01
9.99605870e-01
9.99614203e-01
9.99621696e-01
9.99627652e-01
9.99632058e-01
9.99635039e-01
9.99636316e-01
9.99635763e-01
9.99633499e-01
9.99629596e-01
9.99624087e-01
9.99617152e-01
9.99609029e-01
9.99599968e-01
9.99590265e-01
9.99580276e-01
9.99570383e-01
9.99560990e-01
9.99552522e-01
9.99545416e-01
9.99540105e-01
9.99537016e-01
9.99536558e-01
9.99539112e-01
9.99545027e-01
9.99554609e-01
9.99568114e-01
9.99585748e-01
9.99607658e-01
9.99633932e-01
9.99664598e-01
9.99699622e-01
9.99738914e-01
9.99782325e-01
9.99829660e-01
9.99880676e-01
9.99935094e-01
9.99992603e-01
1.00005287e+00
1.00011556e+00
1.00018032e+00
1.00024681e+00
1.00031470e+00
1.00038369e+00
1.00045350e+00
1.00052389e+00
1.00059465e+00
1.00066563e+00
1.00073671e+00
1.00080780e+00
1.00087888e+00
1.00094994e+00
1.00102101e+00
1.00109214e+00
1.00116341e+00
1.00123490e+00
1.00130668e+00
1.00137883e+00
1.00145139e+00
1.00152441e+00
1.00159789e+00
1.00167178e+00
1.00174602e+00
1.00182051e+00
1.00189510e+00
1.00196961e+00
1.00204385e+00
1.00211759e+00
1.00219060e+00
1.00226264e+00
1.00233347e+00
1.00240288e+00
1.00247067e+00
1.00253667e+00
1.00260076e+00
1.00266284e+00
1.00272286e+00
1.00278081e+00
1.00283670e+00
1.00289060e+00
1.00294259e+00
1.00299277e+00
1.00304127e+00
1.00308821e+00
1.00313373e+00
1.00317793e+00
1.00322092e+00
1.00326280e+00
1.00330362e+00
1.00334338e+00
1.00338214e+00
1.00341987e+00
1.00345645e+00
1.00349179e+00
1.00352594e+00
1.00355869e+00
1.00358965e+00
1.00361901e+00
1.00364685e+00
1.00367241e+00
1.00369544e+00
1.00371717e+00
1.00373695e+00
1.00375290e+00
1.00376683e+00
1.00378136e+00
1.00379168e+00
1.00379627e+00
1.00380415e+00
1.00381452e+00
1.00381049e+00
1.00380375e+00
1.00381722e+00
1.00382128e+00
9.99500859e-01
9.99499317e-01
9.99502177e-01
9.99503529e-01
9.99507868e-01
9.99513715e-01
9.99520466e-01
9.99528444e-01
9.99537638e-01
9.99547364e-01
9.99557551e-01
9.99567958e-01
9.99578301e-01
9.99588260e-01
9.99597664e-01
9.99606209e-01
9.99613681e-01
9.99619889e-01
9.99624689e-01
9.99627911e-01
9.99629486e-01
9.99629377e-01
9.99627590e-01
9.99624162e-01
9.99619216e-01
9.99612912e-01
9.99605453e-01
9.99597093e-01
9.99588140e-01
9.99578931e-01
9.99569835e-01
9.99561250e-01
9.99553593e-01
9.99547287e-01
9.99542756e-01
9.99540417e-01
9.99540668e-01
9.99543883e-01
9.99550402e-01
9.99560524e-01
9.99574501e-01
9.99592534e-01
9.99614769e-01
9.99641291e-01
9.99672130e-01
9.99707255e-01
9.99746577e-01
9.99789954e-01
9.99837194e-01
9.99888062e-01
9.99942286e-01
9.99999562e-01
1.00005957e+00
1.00012197e+00
1.00018642e+00
1.00025260e+00
1.00032017e+00
1.00038884e+00
1.00045834e+00
1.00052843e+00
1.00059890e+00
1.00066961e+00
1.00074042e+00
1.00081127e+00
1.00088212e+00
1.00095296e+00
1.00102381e+00
1.00109474e+00
1.00116581e+00
1.00123710e+00
1.00130868e+00
1.00138062e+00
1.00145298e+00
1.00152578e+00
1.00159903e+00
1.00167270e+00
1.00174671e+00
1.00182097e+00
1.00189533e+00
1.00196962e+00
1.00204366e+00
1.00211721e+00
1.00219006e+00
1.00226196e+00
1.00233270e+00
1.00240205e+00
1.00246982e+00
1.00253585e+00
1.00260002e+00
1.00266221e+00
1.00272239e+00
1.00278052e+00
1.00283664e+00
1.00289079e+00
1.00294305e+00
1.00299351e+00
1.00304230e+00
1.00308954e+00
1.00313534e+00
1.00317982e+00
1.00322308e+00
1.00326519e+00
1.00330622e+00
1.00334621e+00
1.00338514e+00
1.00342298e+00
1.00345971e+00
1.00349522e+00
1.00352940e+00
1.00356215e+00
1.00359335e+00
1.00362281e+00
1.00365043e+00
1.00367613e+00
1.00369976e+00
1.00372115e+00
1.00374045e+00
1.00375751e+00
1.00377223e+00
1.00378478e+00
1.00379557e+00
1.00380375e+00
1.00380992e+00
1.00381511e+00
1.00381847e+00
1.00381786e+00
1.00382080e+00
1.00381893e+00
9.99490398e-01
9.99488236e-01
9.99485329e-01
9.99490979e-01
9.99497815e-01
9.99500573e-01
9.99507080e-01
9.99517335e-01
9.99526415e-01
9.99535160e-01
9.99545974e-01
9.99557114e-01
9.99567200e-01
9.99577141e-01
9.99587054e-01
9.99595857e-01
9.99603391e-01
9.99609932e-01
9.99615160e-01
9.99618717e-01
9.99620694e-01
9.99621126e-01
9.99619909e-01
9.99617088e-01
9.99612840e-01
9.99607302e-01
9.99600654e-01
9.99593160e-01
9.99585123e-01
9.99576862e-01
9.99568739e-01
9.99561143e-01
9.99554475e-01
9.99549147e-01
9.99545571e-01
9.99544152e-01
9.99545277e-01
9.99549309e-01
9.99556578e-01
9.99567377e-01
9.99581950e-01
9.99600495e-01
9.99623154e-01
9.99650012e-01
9.99681099e-01
9.99716385e-01
9.99755786e-01
9.99799166e-01
9.99846337e-01
9.99897073e-01
9.99951109e-01
1.00000815e+00
1.00006788e+00
1.00012998e+00
1.00019410e+00
1.00025994e+00
1.00032716e+00
1.00039548e+00
1.00046463e+00
1.00053438e+00
1.00060453e+00
1.00067491e+00
1.00074542e+00
1.00081598e+00
1.00088654e+00
1.00095710e+00
1.00102770e+00
1.00109837e+00
1.00116918e+00
1.00124021e+00
1.00131153e+00
1.00138320e+00
1.00145529e+00
1.00152782e+00
1.00160079e+00
1.00167417e+00
1.00174789e+00
1.00182186e+00
1.00189595e+00
1.00196998e+00
1.00204377e+00
1.00211711e+00
1.00218978e+00
1.00226153e+00
1.00233217e+00
1.00240147e+00
1.00246925e+00
1.00253533e+00
1.00259961e+00
1.00266196e+00
1.00272235e+00
1.00278074e+00
1.00283715e+00
1.00289162e+00
1.00294422e+00
1.00299505e+00
1.00304420e+00
1.00309180e+00
1.00313795e+00
1.00318277e+00
1.00322635e+00
1.00326874e+00
1.00331003e+00
1.00335026e+00
1.00338938e+00
1.00342737e+00
1.00346423e+00
1.00349989e+00
1.00353411e+00
1.00356685e+00
1.00359821e+00
1.00362777e+00
1.00365518e+00
1.00368093e+00
1.00370505e+00
1.00372624e+00
1.00374494e+00
1.00376292e+00
1.00377855e+00
1.00378940e+00
1.00379982e+00
1.00381175e+00
1.00381744e+00
1.00381723e+00
1.00382476e+00
1.00383154e+00
1.00382495e+00
1.00382184e+00
9.99471701e-01
9.99471991e-01
9.99473277e-01
9.99475936e-01
9.99479681e-01
9.99486182e-01
9.99494174e-01
9.99502015e-01
9.99511152e-01
9.99521774e-01
9.99532391e-01
9.99542852e-01
9.99553646e-01
9.99564231e-01
9.99573977e-01
9.99582950e-01
9.99591087e-01
9.99597983e-01
9.99603455e-01
9.99607537e-01
9.99610127e-01
9.99611108e-01
9.99610529e-01
9.99608490e-01
9.99605065e-01
9.99600391e-01
9.99594694e-01
9.99588218e-01
9.99581236e-01
9.99574070e-01
9.99567074e-01
9.99560619e-01
9.99555094e-01
9.99550897e-01
9.99548428e-01
9.99548076e-01
9.99550217e-01
9.99555203e-01
9.99563353e-01
9.99574951e-01
9.99590236e-01
9.99609399e-01
9.99632578e-01
9.99659859e-01
9.99691270e-01
9.99726785e-01
9.99766323e-01
9.99809752e-01
9.99856894e-01
9.99907529e-01
9.99961398e-01
1.00001822e+00
1.00007768e+00
1.00013947e+00
1.00020327e+00
1.00026875e+00
1.00033560e+00
1.00040355e+00
1.00047233e+00
1.00054170e+00
1.00061148e+00
1.00068151e+00
1.00075167e+00
1.00082189e+00
1.00089212e+00
1.00096236e+00
1.00103264e+00
1.00110299e+00
1.00117349e+00
1.00124420e+00
1.00131520e+00
1.00138655e+00
1.00145831e+00
1.00153050e+00
1.00160313e+00
1.00167617e+00
1.00174956e+00
1.00182320e+00
1.00189697e+00
1.00197071e+00
1.00204423e+00
1.00211733e+00
1.00218979e+00
1.00226140e+00
1.00233194e+00
1.00240120e+00
1.00246900e+00
1.00253517e+00
1.00259958e+00
1.00266214e+00
1.00272278e+00
1.00278147e+00
1.00283822e+00
1.00289307e+00
1.00294607e+00
1.00299731e+00
1.00304688e+00
1.00309490e+00
1.00314145e+00
1.00318665e+00
1.00323057e+00
1.00327331e+00
1.00331489e+00
1.00335534e+00
1.00339468e+00
1.00343289e+00
1.00346985e+00
1.00350555e+00
1.00353994e+00
1.00357280e+00
1.00360397e+00
1.00363355e+00
1.00366135e+00
1.00368693e+00
1.00371047e+00
1.00373232e+00
1.00375176e+00
1.00376841e+00
1.00378355e+00
1.00379723e+00
1.00380745e+00
1.00381524e+00
1.00382336e+00
1.00382935e+00
1.00383150e+00
1.00383300e+00
1.00383362e+00
1.00383496e+00
9.99453289e-01
9.99452897e-01
9.99456466e-01
9.99458103e-01
9.99461479e-01
9.99469458e-01
9.99477138e-01
9.99484485e-01
9.99494474e-01
9.99505587e-01
9.99515922e-01
9.99526594e-01
9.99537965e-01
9.99548743e-01
9.99558609e-01
9.99568018e-01
9.99576601e-01
9.99583827e-01
9.99589761e-01
9.99594444e-01
9.99597631e-01
9.99599265e-01
9.99599470e-01
9.99598288e-01
9.99595770e-01
9.99592096e-01
9.99587481e-01
9.99582140e-01
9.99576346e-01
9.99570420e-01
9.99564694e-01
9.99559524e-01
9.99555288e-01
9.99552370e-01
9.99551152e-01
9.99552011e-01
9.99555308e-01
9.99561381e-01
9.99570541e-01
9.99583059e-01
9.99599169e-01
9.99619054e-01
9.99642850e-01
9.99670640e-01
9.99702453e-01
9.99738264e-01
9.99777998e-01
9.99821527e-01
9.99868680e-01
9.99919244e-01
9.99972972e-01
1.00002959e+00
1.00008880e+00
1.00015028e+00
1.00021374e+00
1.00027886e+00
1.00034534e+00
1.00041290e+00
1.00048128e+00
1.00055026e+00
1.00061965e+00
1.00068929e+00
1.00075907e+00
1.00082892e+00
1.00089879e+00
1.00096867e+00
1.00103859e+00
1.00110859e+00
1.00117873e+00
1.00124908e+00
1.00131972e+00
1.00139070e+00
1.00146209e+00
1.00153390e+00
1.00160614e+00
1.00167880e+00
1.00175181e+00
1.00182508e+00
1.00189850e+00
1.00197190e+00
1.00204512e+00
1.00211796e+00
1.00219021e+00
1.00226165e+00
1.00233209e+00
1.00240131e+00
1.00246913e+00
1.00253540e+00
1.00259998e+00
1.00266276e+00
1.00272369e+00
1.00278272e+00
1.00283986e+00
1.00289513e+00
1.00294858e+00
1.00300028e+00
1.00305031e+00
1.00309878e+00
1.00314579e+00
1.00319140e+00
1.00323571e+00
1.00327880e+00
1.00332070e+00
1.00336141e+00
1.00340096e+00
1.00343936e+00
1.00347648e+00
1.00351224e+00
1.00354666e+00
1.00357963e+00
1.00361080e+00
1.00364022e+00
1.00366810e+00
1.00369385e+00
1.00371709e+00
1.00373875e+00
1.00375877e+00
1.00377548e+00
1.00378974e+00
1.00380391e+00
1.00381545e+00
1.00382217e+00
1.00382944e+00
1.00383781e+00
1.00383937e+00
1.00383911e+00
1.00384367e+00
1.00384383e+00
9.99435368e-01
9.99433850e-01
9.99434284e-01
9.99437968e-01
9.99443586e-01
9.99449176e-01
9.99456321e-01
9.99466067e-01
9.99476081e-01
9.99485955e-01
9.99497089e-01
9.99508811e-01
9.99519874e-01
9.99530609e-01
9.99541266e-01
9.99551120e-01
9.99559814e-01
9.99567547e-01
9.99574183e-01
9.99579394e-01
9.99583179e-01
9.99585635e-01
9.99586712e-01
9.99586418e-01
9.99584914e-01
9.99582364e-01
9.99578923e-01
9.99574821e-01
9.99570342e-01
9.99565777e-01
9.99561442e-01
9.99557687e-01
9.99554872e-01
9.99553363e-01
9.99553528e-01
9.99555727e-01
9.99560307e-01
9.99567593e-01
9.99577883e-01
9.99591438e-01
9.99608483e-01
9.99629194e-01
9.99653704e-01
9.99682093e-01
9.99714389e-01
9.99750572e-01
9.99790567e-01
9.99834254e-01
9.99881469e-01
9.99932006e-01
9.99985628e-01
1.00004207e+00
1.00010104e+00
1.00016224e+00
1.00022538e+00
1.00029014e+00
1.00035624e+00
1.00042340e+00
1.00049138e+00
1.00055996e+00
1.00062894e+00
1.00069818e+00
1.00076757e+00
1.00083702e+00
1.00090649e+00
1.00097599e+00
1.00104552e+00
1.00111514e+00
1.00118490e+00
1.00125486e+00
1.00132510e+00
1.00139569e+00
1.00146666e+00
1.00153806e+00
1.00160989e+00
1.00168213e+00
1.00175473e+00
1.00182760e+00
1.00190063e+00
1.00197368e+00
1.00204657e+00
1.00211913e+00
1.00219114e+00
1.00226242e+00
1.00233274e+00
1.00240192e+00
1.00246978e+00
1.00253615e+00
1.00260090e+00
1.00266393e+00
1.00272517e+00
1.00278457e+00
1.00284212e+00
1.00289784e+00
1.00295176e+00
1.00300395e+00
1.00305449e+00
1.00310345e+00
1.00315091e+00
1.00319698e+00
1.00324171e+00
1.00328515e+00
1.00332736e+00
1.00336838e+00
1.00340815e+00
1.00344667e+00
1.00348395e+00
1.00351986e+00
1.00355423e+00
1.00358711e+00
1.00361849e+00
1.00364792e+00
1.00367532e+00
1.00370113e+00
1.00372500e+00
1.00374610e+00
1.00376520e+00
1.00378315e+00
1.00379829e+00
1.00381015e+00
1.00382147e+00
1.00383188e+00
1.00383805e+00
1.00384229e+00
1.00384751e+00
1.00385063e+00
1.00384981e+00
1.00384811e+00
9.99412766e-01
9.99411832e-01
9.99412130e-01
9.99416035e-01
9.99421520e-01
9.99427083e-01
9.99435025e-01
9.99444788e-01
9.99454463e-01
9.99464920e-01
9.99476614e-01
9.99488223e-01
9.99499445e-01
9.99510783e-01
9.99521790e-01
9.99531834e-01
9.99541024e-01
9.99549374e-01
9.99556510e-01
9.99562310e-01
9.99566885e-01
9.99570177e-01
9.99572118e-01
9.99572828e-01
9.99572448e-01
9.99571076e-01
9.99568893e-01
9.99566148e-01
9.99563088e-01
9.99559985e-01
9.99557158e-01
9.99554938e-01
9.99553665e-01
9.99553687e-01
9.99555359e-01
9.99559023e-01
9.99565010e-01
9.99573630e-01
9.99585168e-01
9.99599874e-01
9.99617963e-01
9.99639605e-01
9.99664926e-01
9.99694006e-01
9.99726871e-01
9.99763501e-01
9.99803827e-01
9.99847734e-01
9.99895065e-01
9.99945623e-01
9.99999179e-01
1.00005548e+00
1.00011424e+00
1.00017518e+00
1.00023801e+00
1.00030243e+00
1.00036816e+00
1.00043493e+00
1.00050251e+00
1.00057068e+00
1.00063925e+00
1.00070808e+00
1.00077706e+00
1.00084611e+00
1.00091518e+00
1.00098428e+00
1.00105342e+00
1.00112264e+00
1.00119200e+00
1.00126156e+00
1.00133139e+00
1.00140156e+00
1.00147210e+00
1.00154307e+00
1.00161446e+00
1.00168627e+00
1.00175843e+00
1.00183088e+00
1.00190351e+00
1.00197617e+00
1.00204872e+00
1.00212098e+00
1.00219274e+00
1.00226383e+00
1.00233403e+00
1.00240316e+00
1.00247104e+00
1.00253751e+00
1.00260244e+00
1.00266572e+00
1.00272728e+00
1.00278705e+00
1.00284503e+00
1.00290121e+00
1.00295562e+00
1.00300832e+00
1.00305937e+00
1.00310883e+00
1.00315678e+00
1.00320329e+00
1.00324844e+00
1.00329226e+00
1.00333479e+00
1.00337607e+00
1.00341608e+00
1.00345476e+00
1.00349209e+00
1.00352809e+00
1.00356256e+00
1.00359534e+00
1.00362656e+00
1.00365610e+00
1.00368349e+00
1.00370888e+00
1.00373268e+00
1.00375421e+00
1.00377299e+00
1.00379023e+00
1.00380600e+00
1.00381848e+00
1.00382877e+00
1.00383896e+00
1.00384641e+00
1.00385038e+00
1.00385513e+00
1.00385866e+00
1.00385775e+00
1.00385701e+00
9.99387554e-01
9.99387290e-01
9.99389324e-01
9.99391994e-01
9.99396419e-01
9.99403769e-01
9.99412165e-01
9.99420635e-01
9.99430853e-01
9.99442482e-01
9.99453809e-01
9.99465196e-01
9.99477263e-01
9.99489059e-01
9.99500002e-01
9.99510482e-01
9.99520389e-01
9.99529164e-01
9.99536767e-01
9.99543348e-01
9.99548741e-01
9.99552820e-01
9.99555716e-01
9.99557533e-01
9.99558302e-01
9.99558164e-01
9.99557340e-01
9.99556033e-01
9.99554465e-01
9.99552921e-01
9.99551704e-01
9.99551118e-01
9.99551488e-01
9.99553152e-01
9.99556441e-01
9.99561681e-01
9.99569186e-01
9.99579252e-01
9.99592148e-01
9.99608114e-01
9.99627353e-01
9.99650028e-01
9.99676260e-01
9.99706123e-01
9.99739644e-01
9.99776805e-01
9.99817539e-01
9.99861737e-01
9.99909248e-01
9.99959883e-01
1.00001342e+00
1.00006963e+00
1.00012822e+00
1.00018893e+00
1.00025148e+00
1.00031558e+00
1.00038096e+00
1.00044736e+00
1.00051455e+00
1.00058232e+00
1.00065049e+00
1.00071891e+00
1.00078749e+00
1.00085614e+00
1.00092482e+00
1.00099352e+00
1.00106226e+00
1.00113109e+00
1.00120004e+00
1.00126919e+00
1.00133861e+00
1.00140835e+00
1.00147847e+00
1.00154899e+00
1.00161994e+00
1.00169130e+00
1.00176302e+00
1.00183503e+00
1.00190724e+00
1.00197951e+00
1.00205170e+00
1.00212364e+00
1.00219514e+00
1.00226602e+00
1.00233608e+00
1.00240514e+00
1.00247304e+00
1.00253960e+00
1.00260470e+00
1.00266822e+00
1.00273009e+00
1.00279023e+00
1.00284863e+00
1.00290527e+00
1.00296018e+00
1.00301339e+00
1.00306495e+00
1.00311491e+00
1.00316335e+00
1.00321031e+00
1.00325586e+00
1.00330006e+00
1.00334292e+00
1.00338442e+00
1.00342462e+00
1.00346350e+00
1.00350091e+00
1.00353684e+00
1.00357136e+00
1.00360422e+00
1.00363517e+00
1.00366446e+00
1.00369209e+00
1.00371740e+00
1.00374044e+00
1.00376204e+00
1.00378161e+00
1.00379805e+00
1.00381278e+00
1.00382673e+00
1.00383764e+00
1.00384549e+00
1.00385340e+00
1.00386014e+00
1.00386311e+00
1.00386452e+00
1.00386636e+00
1.00386681e+00
9.99362119e-01
9.99361267e-01
9.99363042e-01
9.99366177e-01
9.99371135e-01
9.99378202e-01
9.99386221e-01
9.99395388e-01
9.99406101e-01
9.99417323e-01
9.99428776e-01
9.99440897e-01
9.99453149e-01
9.99464909e-01
9.99476354e-01
9.99487434e-01
9.99497646e-01
9.99506864e-01
9.99515209e-01
9.99522515e-01
9.99528610e-01
9.99533592e-01
9.99537541e-01
9.99540441e-01
9.99542391e-01
9.99543584e-01
9.99544179e-01
9.99544353e-01
9.99544357e-01
9.99544461e-01
9.99544933e-01
9.99546066e-01
9.99548178e-01
9.99551581e-01
9.99556587e-01
9.99563506e-01
9.99572635e-01
9.99584253e-01
9.99598615e-01
9.99615946e-01
9.99636439e-01
9.99660249e-01
9.99687489e-01
9.99718230e-01
9.99752498e-01
9.99790275e-01
9.99831497e-01
9.99876060e-01
9.99923819e-01
9.99974595e-01
1.00002818e+00
1.00008433e+00
1.00014281e+00
1.00020333e+00
1.00026563e+00
1.00032944e+00
1.00039449e+00
1.00046055e+00
1.00052737e+00
1.00059476e+00
1.00066254e+00
1.00073058e+00
1.00079877e+00
1.00086703e+00
1.00093533e+00
1.00100365e+00
1.00107201e+00
1.00114045e+00
1.00120902e+00
1.00127777e+00
1.00134679e+00
1.00141611e+00
1.00148581e+00
1.00155590e+00
1.00162640e+00
1.00169731e+00
1.00176859e+00
1.00184016e+00
1.00191194e+00
1.00198381e+00
1.00205563e+00
1.00212723e+00
1.00219845e+00
1.00226911e+00
1.00233902e+00
1.00240800e+00
1.00247588e+00
1.00254251e+00
1.00260776e+00
1.00267150e+00
1.00273366e+00
1.00279416e+00
1.00285296e+00
1.00291005e+00
1.00296544e+00
1.00301914e+00
1.00307119e+00
1.00312164e+00
1.00317055e+00
1.00321796e+00
1.00326390e+00
1.00330843e+00
1.00335159e+00
1.00339335e+00
1.00343369e+00
1.00347265e+00
1.00351018e+00
1.00354612e+00
1.00358046e+00
1.00361327e+00
1.00364427e+00
1.00367325e+00
1.00370049e+00
1.00372595e+00
1.00374902e+00
1.00376989e+00
1.00378922e+00
1.00380637e+00
1.00382077e+00
1.00383368e+00
1.00384519e+00
1.00385389e+00
1.00386088e+00
1.00386707e+00
1.00387088e+00
1.00387299e+00
1.00387447e+00
1.00387397e+00
9.99335181e-01
9.99334225e-01
9.99334987e-01
9.99338763e-01
9.99344360e-01
9.99350629e-01
9.99358708e-01
9.99368789e-01
9.99379277e-01
9.99390179e-01
9.99402312e-01
9.99414806e-01
9.99426871e-01
9.99438962e-01
9.99451038e-01
9.99462378e-01
9.99472888e-01
9.99482783e-01
9.99491805e-01
9.99499705e-01
9.99506605e-01
9.99512573e-01
9.99517522e-01
9.99521515e-01
9.99524733e-01
9.99527293e-01
9.99529321e-01
9.99531039e-01
9.99532686e-01
9.99534490e-01
9.99536713e-01
9.99539645e-01
9.99543578e-01
9.99548800e-01
9.99555611e-01
9.99564302e-01
9.99575151e-01
9.99588418e-01
9.99604344e-01
9.99623140e-01
9.99644988e-01
9.99670032e-01
9.99698379e-01
9.99730095e-01
9.99765203e-01
9.99803685e-01
9.99845481e-01
9.99890489e-01
9.99938573e-01
9.99989561e-01
1.00004325e+00
1.00009942e+00
1.00015783e+00
1.00021821e+00
1.00028031e+00
1.00034387e+00
1.00040864e+00
1.00047438e+00
1.00054086e+00
1.00060790e+00
1.00067533e+00
1.00074300e+00
1.00081083e+00
1.00087873e+00
1.00094667e+00
1.00101464e+00
1.00108264e+00
1.00115072e+00
1.00121892e+00
1.00128730e+00
1.00135593e+00
1.00142487e+00
1.00149416e+00
1.00156383e+00
1.00163391e+00
1.00170439e+00
1.00177522e+00
1.00184636e+00
1.00191772e+00
1.00198918e+00
1.00206062e+00
1.00213188e+00
1.00220280e+00
1.00227322e+00
1.00234295e+00
1.00241182e+00
1.00247967e+00
1.00254635e+00
1.00261171e+00
1.00267565e+00
1.00273807e+00
1.00279889e+00
1.00285807e+00
1.00291559e+00
1.00297142e+00
1.00302559e+00
1.00307812e+00
1.00312903e+00
1.00317837e+00
1.00322619e+00
1.00327252e+00
1.00331737e+00
1.00336076e+00
1.00340275e+00
1.00344326e+00
1.00348224e+00
1.00351976e+00
1.00355575e+00
1.00358999e+00
1.00362249e+00
1.00365341e+00
1.00368240e+00
1.00370918e+00
1.00373419e+00
1.00375749e+00
1.00377824e+00
1.00379668e+00
1.00381386e+00
1.00382895e+00
1.00384103e+00
1.00385180e+00
1.00386170e+00
1.00386869e+00
1.00387350e+00
1.00387817e+00
1.00388127e+00
1.00388122e+00
1.00388062e+00
9.99305796e-01
9.99305219e-01
9.99306538e-01
9.99309941e-01
9.99315134e-01
9.99321930e-01
9.99330403e-01
9.99339994e-01
9.99350455e-01
9.99362042e-01
9.99374243e-01
9.99386483e-01
9.99398965e-01
9.99411584e-01
9.99423741e-01
9.99435327e-01
9.99446480e-01
9.99456927e-01
9.99466412e-01
9.99475036e-01
9.99482836e-01
9.99489684e-01
9.99495616e-01
9.99500794e-01
9.99505295e-01
9.99509202e-01
9.99512711e-01
9.99516031e-01
9.99519350e-01
9.99522895e-01
9.99526934e-01
9.99531729e-01
9.99537543e-01
9.99544660e-01
9.99553356e-01
9.99563902e-01
9.99576556e-01
9.99591564e-01
9.99609148e-01
9.99629507e-01
9.99652807e-01
9.99679184e-01
9.99708736e-01
9.99741523e-01
9.99777566e-01
9.99816845e-01
9.99859303e-01
9.99904842e-01
9.99953331e-01
1.00000461e+00
1.00005847e+00
1.00011472e+00
1.00017312e+00
1.00023342e+00
1.00029538e+00
1.00035874e+00
1.00042326e+00
1.00048872e+00
1.00055491e+00
1.00062163e+00
1.00068874e+00
1.00075609e+00
1.00082359e+00
1.00089116e+00
1.00095878e+00
1.00102642e+00
1.00109410e+00
1.00116185e+00
1.00122973e+00
1.00129777e+00
1.00136606e+00
1.00143463e+00
1.00150355e+00
1.00157283e+00
1.00164251e+00
1.00171257e+00
1.00178299e+00
1.00185370e+00
1.00192464e+00
1.00199570e+00
1.00206676e+00
1.00213767e+00
1.00220829e+00
1.00227844e+00
1.00234797e+00
1.00241671e+00
1.00248450e+00
1.00255118e+00
1.00261663e+00
1.00268073e+00
1.00274337e+00
1.00280448e+00
1.00286399e+00
1.00292189e+00
1.00297813e+00
1.00303273e+00
1.00308569e+00
1.00313704e+00
1.00318679e+00
1.00323497e+00
1.00328163e+00
1.00332677e+00
1.00337039e+00
1.00341250e+00
1.00345313e+00
1.00349219e+00
1.00352961e+00
1.00356546e+00
1.00359968e+00
1.00363201e+00
1.00366248e+00
1.00369127e+00
1.00371807e+00
1.00374259e+00
1.00376526e+00
1.00378618e+00
1.00380466e+00
1.00382093e+00
1.00383575e+00
1.00384857e+00
1.00385896e+00
1.00386790e+00
1.00387540e+00
1.00388089e+00
1.00388487e+00
1.00388744e+00
1.00388833e+00
1.00388837e+00
9.99275521e-01
9.99274974e-01
9.99276648e-01
9.99279757e-01
9.99284753e-01
9.99291976e-01
9.99300405e-01
9.99309693e-01
9.99320503e-01
9.99332320e-01
9.99344287e-01
9.99356709e-01
9.99369639e-01
9.99382334e-01
9.99394618e-01
9.99406725e-01
9.99418348e-01
9.99429147e-01
9.99439237e-01
9.99448655e-01
9.99457213e-01
9.99464917e-01
9.99471925e-01
9.99478277e-01
9.99484013e-01
9.99489305e-01
9.99494340e-01
9.99499263e-01
9.99504271e-01
9.99509608e-01
9.99515506e-01
9.99522202e-01
9.99529955e-01
9.99539028e-01
9.99549676e-01
9.99562147e-01
9.99576686e-01
9.99593519e-01
9.99612849e-01
9.99634860e-01
9.99659707e-01
9.99687513e-01
9.99718366e-01
9.99752321e-01
9.99789395e-01
9.99829567e-01
9.99872778e-01
9.99918937e-01
9.99967916e-01
1.00001956e+00
1.00007368e+00
1.00013009e+00
1.00018854e+00
1.00024882e+00
1.00031069e+00
1.00037390e+00
1.00043823e+00
1.00050347e+00
1.00056940e+00
1.00063586e+00
1.00070268e+00
1.00076975e+00
1.00083697e+00
1.00090426e+00
1.00097159e+00
1.00103895e+00
1.00110636e+00
1.00117383e+00
1.00124142e+00
1.00130917e+00
1.00137715e+00
1.00144541e+00
1.00151398e+00
1.00158292e+00
1.00165223e+00
1.00172191e+00
1.00179193e+00
1.00186224e+00
1.00193278e+00
1.00200344e+00
1.00207412e+00
1.00214468e+00
1.00221498e+00
1.00228486e+00
1.00235417e+00
1.00242275e+00
1.00249044e+00
1.00255710e+00
1.00262259e+00
1.00268680e+00
1.00274962e+00
1.00281097e+00
1.00287078e+00
1.00292901e+00
1.00298562e+00
1.00304060e+00
1.00309395e+00
1.00314568e+00
1.00319580e+00
1.00324432e+00
1.00329125e+00
1.00333663e+00
1.00338046e+00
1.00342268e+00
1.00346331e+00
1.00350238e+00
1.00353978e+00
1.00357540e+00
1.00360936e+00
1.00364159e+00
1.00367179e+00
1.00370003e+00
1.00372657e+00
1.00375103e+00
1.00377312e+00
1.00379345e+00
1.00381207e+00
1.00382816e+00
1.00384216e+00
1.00385497e+00
1.00386571e+00
1.00387401e+00
1.00388125e+00
1.00388732e+00
1.00389105e+00
1.00389317e+00
1.00389461e+00
1.00389481e+00
9.99244578e-01
9.99243743e-01
9.99244997e-01
9.99248443e-01
9.99253726e-01
9.99260505e-01
9.99268740e-01
9.99278491e-01
9.99289323e-01
9.99300758e-01
9.99312939e-01
9.99325753e-01
9.99338589e-01
9.99351317e-01
9.99364075e-01
9.99376530e-01
9.99388357e-01
9.99399660e-01
9.99410437e-01
9.99420467e-01
9.99429740e-01
9.99438401e-01
9.99446455e-01
9.99453903e-01
9.99460903e-01
9.99467616e-01
9.99474152e-01
9.99480677e-01
9.99487414e-01
9.99494567e-01
9.99502342e-01
9.99510978e-01
9.99520719e-01
9.99531798e-01
9.99544452e-01
9.99558916e-01
9.99575411e-01
9.99594143e-01
9.99615302e-01
9.99639053e-01
9.99665536e-01
9.99694864e-01
9.99727114e-01
9.99762334e-01
9.99800535e-01
9.99841695e-01
9.99885755e-01
9.99932624e-01
9.99982182e-01
1.00003428e+00
1.00008874e+00
1.00014537e+00
1.00020396e+00
1.00026428e+00
1.00032612e+00
1.00038925e+00
1.00045345e+00
1.00051851e+00
1.00058424e+00
1.00065048e+00
1.00071707e+00
1.00078391e+00
1.00085088e+00
1.00091794e+00
1.00098504e+00
1.00105218e+00
1.00111935e+00
1.00118659e+00
1.00125395e+00
1.00132146e+00
1.00138918e+00
1.00145717e+00
1.00152546e+00
1.00159409e+00
1.00166307e+00
1.00173241e+00
1.00180206e+00
1.00187200e+00
1.00194216e+00
1.00201244e+00
1.00208274e+00
1.00215295e+00
1.00222292e+00
1.00229252e+00
1.00236158e+00
1.00242997e+00
1.00249753e+00
1.00256413e+00
1.00262962e+00
1.00269390e+00
1.00275685e+00
1.00281839e+00
1.00287844e+00
1.00293695e+00
1.00299388e+00
1.00304919e+00
1.00310289e+00
1.00315494e+00
1.00320537e+00
1.00325418e+00
1.00330136e+00
1.00334691e+00
1.00339085e+00
1.00343317e+00
1.00347379e+00
1.00351273e+00
1.00355002e+00
1.00358552e+00
1.00361911e+00
1.00365094e+00
1.00368097e+00
1.00370887e+00
1.00373473e+00
1.00375884e+00
1.00378089e+00
1.00380059e+00
1.00381849e+00
1.00383471e+00
1.00384864e+00
1.00386056e+00
1.00387112e+00
1.00387994e+00
1.00388678e+00
1.00389217e+00
1.00389630e+00
1.00389896e+00
1.00389995e+00
1.00389981e+00
9.99212323e-01
9.99211563e-01
9.99212609e-01
9.99216045e-01
9.99221304e-01
9.99227911e-01
9.99236201e-01
9.99245988e-01
9.99256589e-01
9.99268045e-01
9.99280441e-01
9.99293173e-01
9.99305972e-01
9.99319017e-01
9.99332017e-01
9.99344582e-01
9.99356787e-01
9.99368644e-01
9.99379896e-01
9.99390500e-01
9.99400595e-01
9.99410158e-01
9.99419156e-01
9.99427730e-01
9.99436022e-01
9.99444107e-01
9.99452125e-01
9.99460282e-01
9.99468755e-01
9.99477719e-01
9.99487394e-01
9.99498004e-01
9.99509761e-01
9.99522882e-01
9.99537593e-01
9.99554105e-01
9.99572617e-01
9.99593319e-01
9.99616381e-01
9.99641953e-01
9.99670160e-01
9.99701099e-01
9.99734840e-01
9.99771420e-01
9.99810844e-01
9.99853088e-01
9.99898091e-01
9.99945765e-01
9.99995992e-01
1.00004863e+00
1.00010351e+00
1.00016045e+00
1.00021924e+00
1.00027969e+00
1.00034157e+00
1.00040467e+00
1.00046880e+00
1.00053374e+00
1.00059933e+00
1.00066540e+00
1.00073182e+00
1.00079847e+00
1.00086526e+00
1.00093214e+00
1.00099906e+00