# vtk DataFile Version 2.0
LBM Flow Field - Timestep 2730
ASCII
DATASET STRUCTURED_POINTS
DIMENSIONS 128 128 1
ORIGIN 0.0 0.0 0.0
SPACING 1.0 1.0 1.0
POINT_DATA 16384
SCALARS density double 1
LOOKUP_TABLE default
1.00225078e+00
1.00223796e+00
1.00221899e+00
1.00220345e+00
1.00218067e+00
1.00215188e+00
1.00211950e+00
1.00208382e+00
1.00204441e+00
1.00200226e+00
1.00195778e+00
1.00191163e+00
1.00186436e+00
1.00181650e+00
1.00176863e+00
1.00172136e+00
1.00167520e+00
1.00163069e+00
1.00158835e+00
1.00154856e+00
1.00151177e+00
1.00147837e+00
1.00144861e+00
1.00142269e+00
1.00140083e+00
1.00138313e+00
1.00136956e+00
1.00136008e+00
1.00135462e+00
1.00135294e+00
1.00135479e+00
1.00135988e+00
1.00136785e+00
1.00137829e+00
1.00139076e+00
1.00140484e+00
1.00142005e+00
1.00143594e+00
1.00145206e+00
1.00146800e+00
1.00148338e+00
1.00149784e+00
1.00151111e+00
1.00152294e+00
1.00153315e+00
1.00154163e+00
1.00154831e+00
1.00155320e+00
1.00155633e+00
1.00155782e+00
1.00155778e+00
1.00155640e+00
1.00155386e+00
1.00155038e+00
1.00154617e+00
1.00154144e+00
1.00153642e+00
1.00153128e+00
1.00152621e+00
1.00152135e+00
1.00151683e+00
1.00151273e+00
1.00150911e+00
1.00150598e+00
1.00150334e+00
1.00150114e+00
1.00149930e+00
1.00149771e+00
1.00149624e+00
1.00149473e+00
1.00149301e+00
1.00149089e+00
1.00148818e+00
1.00148466e+00
1.00148015e+00
1.00147445e+00
1.00146736e+00
1.00145872e+00
1.00144838e+00
1.00143618e+00
1.00142201e+00
1.00140576e+00
1.00138736e+00
1.00136674e+00
1.00134387e+00
1.00131872e+00
1.00129130e+00
1.00126161e+00
1.00122971e+00
1.00119564e+00
1.00115950e+00
1.00112138e+00
1.00108141e+00
1.00103973e+00
1.00099650e+00
1.00095190e+00
1.00090612e+00
1.00085936e+00
1.00081181e+00
1.00076370e+00
1.00071521e+00
1.00066650e+00
1.00061776e+00
1.00056915e+00
1.00052078e+00
1.00047271e+00
1.00042512e+00
1.00037807e+00
1.00033153e+00
1.00028560e+00
1.00024050e+00
1.00019616e+00
1.00015254e+00
1.00011002e+00
1.00006879e+00
1.00002863e+00
9.99989836e-01
9.99953146e-01
9.99918340e-01
9.99885199e-01
9.99854738e-01
9.99828004e-01
9.99803089e-01
9.99780378e-01
9.99763595e-01
9.99752799e-01
9.99735334e-01
9.99723117e-01
1.00223905e+00
1.00223160e+00
1.00221391e+00
1.00219713e+00
1.00217439e+00
1.00214688e+00
1.00211485e+00
1.00207951e+00
1.00204058e+00
1.00199906e+00
1.00195512e+00
1.00190949e+00
1.00186270e+00
1.00181538e+00
1.00176800e+00
1.00172119e+00
1.00167546e+00
1.00163135e+00
1.00158937e+00
1.00154991e+00
1.00151341e+00
1.00148023e+00
1.00145065e+00
1.00142488e+00
1.00140310e+00
1.00138543e+00
1.00137184e+00
1.00136231e+00
1.00135672e+00
1.00135488e+00
1.00135654e+00
1.00136139e+00
1.00136909e+00
1.00137923e+00
1.00139139e+00
1.00140514e+00
1.00142001e+00
1.00143557e+00
1.00145136e+00
1.00146698e+00
1.00148206e+00
1.00149625e+00
1.00150928e+00
1.00152090e+00
1.00153094e+00
1.00153928e+00
1.00154587e+00
1.00155070e+00
1.00155381e+00
1.00155531e+00
1.00155532e+00
1.00155400e+00
1.00155156e+00
1.00154819e+00
1.00154410e+00
1.00153951e+00
1.00153462e+00
1.00152962e+00
1.00152468e+00
1.00151995e+00
1.00151553e+00
1.00151153e+00
1.00150798e+00
1.00150491e+00
1.00150231e+00
1.00150012e+00
1.00149827e+00
1.00149664e+00
1.00149512e+00
1.00149354e+00
1.00149173e+00
1.00148951e+00
1.00148668e+00
1.00148305e+00
1.00147843e+00
1.00147260e+00
1.00146541e+00
1.00145667e+00
1.00144624e+00
1.00143397e+00
1.00141975e+00
1.00140347e+00
1.00138506e+00
1.00136446e+00
1.00134163e+00
1.00131654e+00
1.00128921e+00
1.00125965e+00
1.00122790e+00
1.00119402e+00
1.00115809e+00
1.00112021e+00
1.00108050e+00
1.00103911e+00
1.00099618e+00
1.00095190e+00
1.00090645e+00
1.00086001e+00
1.00081280e+00
1.00076500e+00
1.00071680e+00
1.00066838e+00
1.00061992e+00
1.00057154e+00
1.00052337e+00
1.00047552e+00
1.00042812e+00
1.00038120e+00
1.00033482e+00
1.00028910e+00
1.00024413e+00
1.00019990e+00
1.00015653e+00
1.00011426e+00
1.00007314e+00
1.00003323e+00
9.99994846e-01
9.99958364e-01
9.99923674e-01
9.99891111e-01
9.99861103e-01
9.99834239e-01
9.99809488e-01
9.99788251e-01
9.99771023e-01
9.99758566e-01
9.99743028e-01
9.99736467e-01
1.00222354e+00
1.00221771e+00
1.00220938e+00
1.00219013e+00
1.00216615e+00
1.00214002e+00
1.00210897e+00
1.00207380e+00
1.00203552e+00
1.00199452e+00
1.00195121e+00
1.00190620e+00
1.00185997e+00
1.00181318e+00
1.00176636e+00
1.00172005e+00
1.00167483e+00
1.00163117e+00
1.00158955e+00
1.00155049e+00
1.00151434e+00
1.00148141e+00
1.00145204e+00
1.00142649e+00
1.00140485e+00
1.00138722e+00
1.00137368e+00
1.00136416e+00
1.00135849e+00
1.00135654e+00
1.00135806e+00
1.00136273e+00
1.00137020e+00
1.00138009e+00
1.00139198e+00
1.00140542e+00
1.00141998e+00
1.00143520e+00
1.00145067e+00
1.00146597e+00
1.00148072e+00
1.00149462e+00
1.00150735e+00
1.00151871e+00
1.00152852e+00
1.00153666e+00
1.00154307e+00
1.00154776e+00
1.00155077e+00
1.00155219e+00
1.00155216e+00
1.00155084e+00
1.00154841e+00
1.00154508e+00
1.00154106e+00
1.00153655e+00
1.00153175e+00
1.00152685e+00
1.00152202e+00
1.00151739e+00
1.00151308e+00
1.00150916e+00
1.00150570e+00
1.00150271e+00
1.00150016e+00
1.00149801e+00
1.00149619e+00
1.00149457e+00
1.00149304e+00
1.00149144e+00
1.00148959e+00
1.00148732e+00
1.00148444e+00
1.00148075e+00
1.00147606e+00
1.00147018e+00
1.00146293e+00
1.00145415e+00
1.00144369e+00
1.00143140e+00
1.00141718e+00
1.00140092e+00
1.00138256e+00
1.00136202e+00
1.00133928e+00
1.00131432e+00
1.00128713e+00
1.00125775e+00
1.00122619e+00
1.00119254e+00
1.00115686e+00
1.00111926e+00
1.00107985e+00
1.00103878e+00
1.00099619e+00
1.00095226e+00
1.00090717e+00
1.00086110e+00
1.00081427e+00
1.00076683e+00
1.00071899e+00
1.00067093e+00
1.00062281e+00
1.00057474e+00
1.00052690e+00
1.00047940e+00
1.00043227e+00
1.00038560e+00
1.00033959e+00
1.00029422e+00
1.00024944e+00
1.00020553e+00
1.00016267e+00
1.00012069e+00
1.00007973e+00
1.00004039e+00
1.00000264e+00
9.99966202e-01
9.99931801e-01
9.99900251e-01
9.99870688e-01
9.99843046e-01
9.99819510e-01
9.99800377e-01
9.99781147e-01
9.99765281e-01
9.99760078e-01
9.99755261e-01
1.00221546e+00
1.00220870e+00
1.00219722e+00
1.00217902e+00
1.00215762e+00
1.00213144e+00
1.00210048e+00
1.00206618e+00
1.00202878e+00
1.00198842e+00
1.00194579e+00
1.00190151e+00
1.00185604e+00
1.00180996e+00
1.00176383e+00
1.00171818e+00
1.00167357e+00
1.00163052e+00
1.00158946e+00
1.00155087e+00
1.00151514e+00
1.00148262e+00
1.00145359e+00
1.00142827e+00
1.00140685e+00
1.00138939e+00
1.00137592e+00
1.00136640e+00
1.00136072e+00
1.00135868e+00
1.00136004e+00
1.00136452e+00
1.00137175e+00
1.00138135e+00
1.00139292e+00
1.00140602e+00
1.00142021e+00
1.00143505e+00
1.00145012e+00
1.00146502e+00
1.00147939e+00
1.00149290e+00
1.00150529e+00
1.00151632e+00
1.00152582e+00
1.00153369e+00
1.00153988e+00
1.00154438e+00
1.00154723e+00
1.00154854e+00
1.00154843e+00
1.00154706e+00
1.00154462e+00
1.00154130e+00
1.00153731e+00
1.00153286e+00
1.00152813e+00
1.00152331e+00
1.00151856e+00
1.00151402e+00
1.00150979e+00
1.00150596e+00
1.00150257e+00
1.00149964e+00
1.00149714e+00
1.00149503e+00
1.00149323e+00
1.00149163e+00
1.00149009e+00
1.00148847e+00
1.00148660e+00
1.00148431e+00
1.00148139e+00
1.00147767e+00
1.00147295e+00
1.00146705e+00
1.00145979e+00
1.00145101e+00
1.00144057e+00
1.00142832e+00
1.00141415e+00
1.00139797e+00
1.00137970e+00
1.00135928e+00
1.00133668e+00
1.00131187e+00
1.00128487e+00
1.00125568e+00
1.00122435e+00
1.00119093e+00
1.00115552e+00
1.00111820e+00
1.00107909e+00
1.00103833e+00
1.00099608e+00
1.00095250e+00
1.00090777e+00
1.00086208e+00
1.00081562e+00
1.00076858e+00
1.00072115e+00
1.00067349e+00
1.00062577e+00
1.00057814e+00
1.00053071e+00
1.00048361e+00
1.00043694e+00
1.00039077e+00
1.00034519e+00
1.00030026e+00
1.00025608e+00
1.00021274e+00
1.00017031e+00
1.00012893e+00
1.00008875e+00
1.00004992e+00
1.00001261e+00
9.99977057e-01
9.99943445e-01
9.99912027e-01
9.99883156e-01
9.99856875e-01
9.99833271e-01
9.99813301e-01
9.99796882e-01
9.99782623e-01
9.99774025e-01
9.99767855e-01
1.00220295e+00
1.00219554e+00
1.00218301e+00
1.00216745e+00
1.00214674e+00
1.00212007e+00
1.00209017e+00
1.00205698e+00
1.00202021e+00
1.00198069e+00
1.00193902e+00
1.00189561e+00
1.00185104e+00
1.00180583e+00
1.00176055e+00
1.00171574e+00
1.00167190e+00
1.00162956e+00
1.00158922e+00
1.00155124e+00
1.00151604e+00
1.00148403e+00
1.00145543e+00
1.00143044e+00
1.00140927e+00
1.00139204e+00
1.00137869e+00
1.00136921e+00
1.00136351e+00
1.00136138e+00
1.00136258e+00
1.00136683e+00
1.00137379e+00
1.00138307e+00
1.00139426e+00
1.00140695e+00
1.00142069e+00
1.00143507e+00
1.00144966e+00
1.00146409e+00
1.00147799e+00
1.00149105e+00
1.00150299e+00
1.00151361e+00
1.00152274e+00
1.00153028e+00
1.00153617e+00
1.00154041e+00
1.00154306e+00
1.00154421e+00
1.00154398e+00
1.00154253e+00
1.00154004e+00
1.00153672e+00
1.00153275e+00
1.00152833e+00
1.00152366e+00
1.00151892e+00
1.00151425e+00
1.00150980e+00
1.00150566e+00
1.00150191e+00
1.00149860e+00
1.00149573e+00
1.00149329e+00
1.00149122e+00
1.00148945e+00
1.00148786e+00
1.00148633e+00
1.00148470e+00
1.00148282e+00
1.00148050e+00
1.00147757e+00
1.00147383e+00
1.00146909e+00
1.00146319e+00
1.00145594e+00
1.00144719e+00
1.00143679e+00
1.00142460e+00
1.00141052e+00
1.00139444e+00
1.00137630e+00
1.00135603e+00
1.00133360e+00
1.00130899e+00
1.00128219e+00
1.00125324e+00
1.00122216e+00
1.00118902e+00
1.00115390e+00
1.00111690e+00
1.00107812e+00
1.00103772e+00
1.00099585e+00
1.00095266e+00
1.00090834e+00
1.00086308e+00
1.00081706e+00
1.00077048e+00
1.00072352e+00
1.00067634e+00
1.00062911e+00
1.00058200e+00
1.00053511e+00
1.00048852e+00
1.00044243e+00
1.00039688e+00
1.00035188e+00
1.00030756e+00
1.00026413e+00
1.00022151e+00
1.00017970e+00
1.00013912e+00
1.00009988e+00
1.00006176e+00
1.00002510e+00
9.99990596e-01
9.99957982e-01
9.99926939e-01
9.99898667e-01
9.99873923e-01
9.99851025e-01
9.99830047e-01
9.99814850e-01
9.99803455e-01
9.99792734e-01
9.99786040e-01
1.00218734e+00
1.00218089e+00
1.00216948e+00
1.00215361e+00
1.00213238e+00
1.00210722e+00
1.00207865e+00
1.00204594e+00
1.00200998e+00
1.00197160e+00
1.00193097e+00
1.00188856e+00
1.00184501e+00
1.00180082e+00
1.00175651e+00
1.00171266e+00
1.00166975e+00
1.00162824e+00
1.00158866e+00
1.00155143e+00
1.00151691e+00
1.00148544e+00
1.00145732e+00
1.00143277e+00
1.00141194e+00
1.00139491e+00
1.00138173e+00
1.00137234e+00
1.00136662e+00
1.00136440e+00
1.00136544e+00
1.00136945e+00
1.00137610e+00
1.00138501e+00
1.00139579e+00
1.00140801e+00
1.00142126e+00
1.00143512e+00
1.00144918e+00
1.00146306e+00
1.00147642e+00
1.00148895e+00
1.00150039e+00
1.00151054e+00
1.00151923e+00
1.00152637e+00
1.00153190e+00
1.00153584e+00
1.00153824e+00
1.00153918e+00
1.00153879e+00
1.00153722e+00
1.00153467e+00
1.00153130e+00
1.00152733e+00
1.00152294e+00
1.00151832e+00
1.00151364e+00
1.00150905e+00
1.00150467e+00
1.00150062e+00
1.00149696e+00
1.00149372e+00
1.00149093e+00
1.00148854e+00
1.00148653e+00
1.00148479e+00
1.00148323e+00
1.00148171e+00
1.00148010e+00
1.00147822e+00
1.00147591e+00
1.00147298e+00
1.00146925e+00
1.00146453e+00
1.00145866e+00
1.00145146e+00
1.00144277e+00
1.00143245e+00
1.00142036e+00
1.00140640e+00
1.00139048e+00
1.00137250e+00
1.00135243e+00
1.00133021e+00
1.00130583e+00
1.00127929e+00
1.00125061e+00
1.00121983e+00
1.00118700e+00
1.00115221e+00
1.00111555e+00
1.00107715e+00
1.00103714e+00
1.00099567e+00
1.00095291e+00
1.00090904e+00
1.00086425e+00
1.00081873e+00
1.00077265e+00
1.00072621e+00
1.00067960e+00
1.00063295e+00
1.00058642e+00
1.00054015e+00
1.00049426e+00
1.00044883e+00
1.00040396e+00
1.00035977e+00
1.00031630e+00
1.00027359e+00
1.00023181e+00
1.00019109e+00
1.00015140e+00
1.00011291e+00
1.00007593e+00
1.00004050e+00
1.00000663e+00
9.99974812e-01
9.99945360e-01
9.99917940e-01
9.99892964e-01
9.99871458e-01
9.99852657e-01
9.99836495e-01
9.99824251e-01
9.99815290e-01
9.99809800e-01
1.00217021e+00
1.00216377e+00
1.00215318e+00
1.00213731e+00
1.00211710e+00
1.00209322e+00
1.00206497e+00
1.00203312e+00
1.00199854e+00
1.00196123e+00
1.00192162e+00
1.00188038e+00
1.00183799e+00
1.00179495e+00
1.00175175e+00
1.00170894e+00
1.00166705e+00
1.00162653e+00
1.00158782e+00
1.00155139e+00
1.00151763e+00
1.00148680e+00
1.00145922e+00
1.00143515e+00
1.00141469e+00
1.00139793e+00
1.00138493e+00
1.00137563e+00
1.00136990e+00
1.00136758e+00
1.00136844e+00
1.00137219e+00
1.00137849e+00
1.00138700e+00
1.00139732e+00
1.00140903e+00
1.00142173e+00
1.00143500e+00
1.00144847e+00
1.00146174e+00
1.00147450e+00
1.00148644e+00
1.00149732e+00
1.00150694e+00
1.00151514e+00
1.00152183e+00
1.00152697e+00
1.00153057e+00
1.00153267e+00
1.00153337e+00
1.00153280e+00
1.00153110e+00
1.00152845e+00
1.00152504e+00
1.00152105e+00
1.00151668e+00
1.00151210e+00
1.00150747e+00
1.00150296e+00
1.00149867e+00
1.00149470e+00
1.00149113e+00
1.00148798e+00
1.00148526e+00
1.00148295e+00
1.00148100e+00
1.00147932e+00
1.00147780e+00
1.00147633e+00
1.00147474e+00
1.00147290e+00
1.00147062e+00
1.00146772e+00
1.00146403e+00
1.00145937e+00
1.00145357e+00
1.00144645e+00
1.00143787e+00
1.00142767e+00
1.00141574e+00
1.00140195e+00
1.00138622e+00
1.00136846e+00
1.00134863e+00
1.00132667e+00
1.00130257e+00
1.00127632e+00
1.00124795e+00
1.00121749e+00
1.00118501e+00
1.00115058e+00
1.00111431e+00
1.00107631e+00
1.00103671e+00
1.00099569e+00
1.00095339e+00
1.00091001e+00
1.00086573e+00
1.00082074e+00
1.00077523e+00
1.00072938e+00
1.00068338e+00
1.00063739e+00
1.00059153e+00
1.00054597e+00
1.00050085e+00
1.00045621e+00
1.00041216e+00
1.00036885e+00
1.00032633e+00
1.00028458e+00
1.00024380e+00
1.00020418e+00
1.00016560e+00
1.00012817e+00
1.00009234e+00
1.00005816e+00
1.00002540e+00
9.99994536e-01
9.99966272e-01
9.99940174e-01
9.99915870e-01
9.99894868e-01
9.99877472e-01
9.99861897e-01
9.99849554e-01
9.99841910e-01
9.99836278e-01
1.00215187e+00
1.00214555e+00
1.00213485e+00
1.00211970e+00
1.00210050e+00
1.00207705e+00
1.00204964e+00
1.00201919e+00
1.00198572e+00
1.00194944e+00
1.00191110e+00
1.00187117e+00
1.00183000e+00
1.00178817e+00
1.00174622e+00
1.00170457e+00
1.00166377e+00
1.00162431e+00
1.00158660e+00
1.00155105e+00
1.00151806e+00
1.00148797e+00
1.00146103e+00
1.00143743e+00
1.00141738e+00
1.00140094e+00
1.00138813e+00
1.00137890e+00
1.00137317e+00
1.00137075e+00
1.00137139e+00
1.00137485e+00
1.00138079e+00
1.00138886e+00
1.00139866e+00
1.00140981e+00
1.00142191e+00
1.00143455e+00
1.00144736e+00
1.00145998e+00
1.00147209e+00
1.00148340e+00
1.00149367e+00
1.00150271e+00
1.00151037e+00
1.00151658e+00
1.00152130e+00
1.00152452e+00
1.00152631e+00
1.00152675e+00
1.00152597e+00
1.00152412e+00
1.00152138e+00
1.00151790e+00
1.00151390e+00
1.00150954e+00
1.00150500e+00
1.00150044e+00
1.00149600e+00
1.00149180e+00
1.00148793e+00
1.00148445e+00
1.00148140e+00
1.00147877e+00
1.00147655e+00
1.00147468e+00
1.00147308e+00
1.00147163e+00
1.00147022e+00
1.00146871e+00
1.00146692e+00
1.00146471e+00
1.00146189e+00
1.00145829e+00
1.00145373e+00
1.00144804e+00
1.00144106e+00
1.00143263e+00
1.00142262e+00
1.00141088e+00
1.00139732e+00
1.00138184e+00
1.00136435e+00
1.00134480e+00
1.00132315e+00
1.00129937e+00
1.00127346e+00
1.00124544e+00
1.00121535e+00
1.00118325e+00
1.00114921e+00
1.00111335e+00
1.00107577e+00
1.00103663e+00
1.00099607e+00
1.00095427e+00
1.00091141e+00
1.00086767e+00
1.00082326e+00
1.00077836e+00
1.00073316e+00
1.00068782e+00
1.00064253e+00
1.00059745e+00
1.00055269e+00
1.00050837e+00
1.00046464e+00
1.00042159e+00
1.00037922e+00
1.00033770e+00
1.00029716e+00
1.00025757e+00
1.00021898e+00
1.00018167e+00
1.00014574e+00
1.00011105e+00
1.00007790e+00
1.00004675e+00
1.00001739e+00
9.99989739e-01
9.99964692e-01
9.99942362e-01
9.99922022e-01
9.99904450e-01
9.99890383e-01
9.99879232e-01
9.99870754e-01
9.99865002e-01
1.00213136e+00
1.00212519e+00
1.00211505e+00
1.00210070e+00
1.00208200e+00
1.00205930e+00
1.00203326e+00
1.00200390e+00
1.00197140e+00
1.00193648e+00
1.00189954e+00
1.00186090e+00
1.00182107e+00
1.00178057e+00
1.00173989e+00
1.00169954e+00
1.00165993e+00
1.00162157e+00
1.00158492e+00
1.00155035e+00
1.00151821e+00
1.00148887e+00
1.00146258e+00
1.00143953e+00
1.00141990e+00
1.00140378e+00
1.00139117e+00
1.00138203e+00
1.00137628e+00
1.00137372e+00
1.00137414e+00
1.00137728e+00
1.00138281e+00
1.00139039e+00
1.00139964e+00
1.00141019e+00
1.00142163e+00
1.00143360e+00
1.00144571e+00
1.00145763e+00
1.00146904e+00
1.00147967e+00
1.00148929e+00
1.00149772e+00
1.00150483e+00
1.00151053e+00
1.00151479e+00
1.00151762e+00
1.00151908e+00
1.00151926e+00
1.00151827e+00
1.00151627e+00
1.00151342e+00
1.00150989e+00
1.00150587e+00
1.00150153e+00
1.00149704e+00
1.00149255e+00
1.00148820e+00
1.00148410e+00
1.00148033e+00
1.00147697e+00
1.00147403e+00
1.00147152e+00
1.00146941e+00
1.00146764e+00
1.00146614e+00
1.00146480e+00
1.00146349e+00
1.00146208e+00
1.00146040e+00
1.00145830e+00
1.00145560e+00
1.00145214e+00
1.00144773e+00
1.00144221e+00
1.00143542e+00
1.00142720e+00
1.00141742e+00
1.00140595e+00
1.00139267e+00
1.00137748e+00
1.00136031e+00
1.00134110e+00
1.00131980e+00
1.00129639e+00
1.00127086e+00
1.00124323e+00
1.00121354e+00
1.00118185e+00
1.00114824e+00
1.00111282e+00
1.00107570e+00
1.00103703e+00
1.00099697e+00
1.00095569e+00
1.00091338e+00
1.00087023e+00
1.00082642e+00
1.00078217e+00
1.00073765e+00
1.00069305e+00
1.00064852e+00
1.00060426e+00
1.00056038e+00
1.00051698e+00
1.00047421e+00
1.00043219e+00
1.00039095e+00
1.00035057e+00
1.00031122e+00
1.00027293e+00
1.00023568e+00
1.00019970e+00
1.00016514e+00
1.00013194e+00
1.00010021e+00
1.00007036e+00
1.00004244e+00
1.00001625e+00
9.99992254e-01
9.99971016e-01
9.99951990e-01
9.99935221e-01
9.99921792e-01
9.99911359e-01
9.99903269e-01
9.99897894e-01
1.00210950e+00
1.00210371e+00
1.00209391e+00
1.00208005e+00
1.00206212e+00
1.00204050e+00
1.00201548e+00
1.00198714e+00
1.00195600e+00
1.00192251e+00
1.00188687e+00
1.00184960e+00
1.00181124e+00
1.00177216e+00
1.00173283e+00
1.00169378e+00
1.00165547e+00
1.00161830e+00
1.00158272e+00
1.00154917e+00
1.00151797e+00
1.00148940e+00
1.00146378e+00
1.00144132e+00
1.00142214e+00
1.00140631e+00
1.00139390e+00
1.00138486e+00
1.00137905e+00
1.00137633e+00
1.00137651e+00
1.00137929e+00
1.00138436e+00
1.00139142e+00
1.00140008e+00
1.00140997e+00
1.00142072e+00
1.00143197e+00
1.00144334e+00
1.00145452e+00
1.00146520e+00
1.00147513e+00
1.00148408e+00
1.00149188e+00
1.00149841e+00
1.00150359e+00
1.00150739e+00
1.00150983e+00
1.00151096e+00
1.00151087e+00
1.00150968e+00
1.00150753e+00
1.00150458e+00
1.00150101e+00
1.00149698e+00
1.00149267e+00
1.00148823e+00
1.00148382e+00
1.00147958e+00
1.00147559e+00
1.00147195e+00
1.00146872e+00
1.00146592e+00
1.00146354e+00
1.00146157e+00
1.00145994e+00
1.00145857e+00
1.00145737e+00
1.00145620e+00
1.00145493e+00
1.00145341e+00
1.00145147e+00
1.00144895e+00
1.00144568e+00
1.00144148e+00
1.00143620e+00
1.00142966e+00
1.00142172e+00
1.00141224e+00
1.00140109e+00
1.00138815e+00
1.00137332e+00
1.00135653e+00
1.00133771e+00
1.00131681e+00
1.00129381e+00
1.00126870e+00
1.00124150e+00
1.00121225e+00
1.00118101e+00
1.00114786e+00
1.00111290e+00
1.00107627e+00
1.00103810e+00
1.00099857e+00
1.00095784e+00
1.00091610e+00
1.00087355e+00
1.00083040e+00
1.00078682e+00
1.00074302e+00
1.00069919e+00
1.00065550e+00
1.00061208e+00
1.00056912e+00
1.00052675e+00
1.00048503e+00
1.00044408e+00
1.00040406e+00
1.00036499e+00
1.00032687e+00
1.00028990e+00
1.00025422e+00
1.00021971e+00
1.00018647e+00
1.00015487e+00
1.00012490e+00
1.00009634e+00
1.00006966e+00
1.00004531e+00
1.00002278e+00
1.00000217e+00
9.99984388e-01
9.99969219e-01
9.99956169e-01
9.99945889e-01
9.99938768e-01
9.99933919e-01
1.00208621e+00
1.00208070e+00
1.00207140e+00
1.00205812e+00
1.00204107e+00
1.00202044e+00
1.00199641e+00
1.00196934e+00
1.00193959e+00
1.00190741e+00
1.00187321e+00
1.00183745e+00
1.00180053e+00
1.00176292e+00
1.00172505e+00
1.00168736e+00
1.00165035e+00
1.00161445e+00
1.00158002e+00
1.00154749e+00
1.00151723e+00
1.00148950e+00
1.00146458e+00
1.00144268e+00
1.00142394e+00
1.00140844e+00
1.00139621e+00
1.00138721e+00
1.00138134e+00
1.00137845e+00
1.00137832e+00
1.00138070e+00
1.00138530e+00
1.00139178e+00
1.00139981e+00
1.00140901e+00
1.00141903e+00
1.00142951e+00
1.00144011e+00
1.00145052e+00
1.00146045e+00
1.00146965e+00
1.00147791e+00
1.00148507e+00
1.00149102e+00
1.00149568e+00
1.00149902e+00
1.00150108e+00
1.00150188e+00
1.00150154e+00
1.00150016e+00
1.00149787e+00
1.00149485e+00
1.00149124e+00
1.00148722e+00
1.00148296e+00
1.00147860e+00
1.00147430e+00
1.00147017e+00
1.00146632e+00
1.00146283e+00
1.00145975e+00
1.00145711e+00
1.00145490e+00
1.00145309e+00
1.00145163e+00
1.00145044e+00
1.00144942e+00
1.00144844e+00
1.00144736e+00
1.00144605e+00
1.00144433e+00
1.00144205e+00
1.00143904e+00
1.00143512e+00
1.00143013e+00
1.00142392e+00
1.00141632e+00
1.00140721e+00
1.00139644e+00
1.00138391e+00
1.00136951e+00
1.00135315e+00
1.00133477e+00
1.00131433e+00
1.00129179e+00
1.00126715e+00
1.00124042e+00
1.00121164e+00
1.00118087e+00
1.00114820e+00
1.00111374e+00
1.00107762e+00
1.00103998e+00
1.00100098e+00
1.00096083e+00
1.00091969e+00
1.00087777e+00
1.00083528e+00
1.00079243e+00
1.00074938e+00
1.00070635e+00
1.00066353e+00
1.00062104e+00
1.00057905e+00
1.00053771e+00
1.00049713e+00
1.00045737e+00
1.00041856e+00
1.00038081e+00
1.00034414e+00
1.00030862e+00
1.00027438e+00
1.00024147e+00
1.00020991e+00
1.00017983e+00
1.00015141e+00
1.00012461e+00
1.00009951e+00
1.00007642e+00
1.00005539e+00
1.00003631e+00
1.00001954e+00
1.00000524e+00
9.99993180e-01
9.99983709e-01
9.99977015e-01
9.99972255e-01
1.00206186e+00
1.00205663e+00
1.00204780e+00
1.00203515e+00
1.00201889e+00
1.00199921e+00
1.00197634e+00
1.00195058e+00
1.00192214e+00
1.00189134e+00
1.00185867e+00
1.00182445e+00
1.00178902e+00
1.00175289e+00
1.00171651e+00
1.00168027e+00
1.00164459e+00
1.00160995e+00
1.00157673e+00
1.00154527e+00
1.00151594e+00
1.00148907e+00
1.00146486e+00
1.00144351e+00
1.00142521e+00
1.00141002e+00
1.00139795e+00
1.00138898e+00
1.00138302e+00
1.00137991e+00
1.00137944e+00
1.00138139e+00
1.00138546e+00
1.00139133e+00
1.00139867e+00
1.00140714e+00
1.00141639e+00
1.00142608e+00
1.00143589e+00
1.00144551e+00
1.00145466e+00
1.00146312e+00
1.00147069e+00
1.00147721e+00
1.00148258e+00
1.00148673e+00
1.00148964e+00
1.00149132e+00
1.00149182e+00
1.00149124e+00
1.00148969e+00
1.00148730e+00
1.00148422e+00
1.00148061e+00
1.00147662e+00
1.00147243e+00
1.00146817e+00
1.00146399e+00
1.00146001e+00
1.00145632e+00
1.00145300e+00
1.00145010e+00
1.00144765e+00
1.00144563e+00
1.00144403e+00
1.00144278e+00
1.00144181e+00
1.00144101e+00
1.00144027e+00
1.00143945e+00
1.00143840e+00
1.00143698e+00
1.00143500e+00
1.00143231e+00
1.00142874e+00
1.00142413e+00
1.00141831e+00
1.00141114e+00
1.00140247e+00
1.00139216e+00
1.00138010e+00
1.00136618e+00
1.00135033e+00
1.00133245e+00
1.00131251e+00
1.00129048e+00
1.00126635e+00
1.00124012e+00
1.00121185e+00
1.00118160e+00
1.00114944e+00
1.00111550e+00
1.00107991e+00
1.00104281e+00
1.00100438e+00
1.00096481e+00
1.00092430e+00
1.00088304e+00
1.00084124e+00
1.00079912e+00
1.00075687e+00
1.00071468e+00
1.00067273e+00
1.00063122e+00
1.00059027e+00
1.00054999e+00
1.00051056e+00
1.00047209e+00
1.00043458e+00
1.00039816e+00
1.00036300e+00
1.00032905e+00
1.00029631e+00
1.00026501e+00
1.00023524e+00
1.00020682e+00
1.00017991e+00
1.00015490e+00
1.00013160e+00
1.00010983e+00
1.00009017e+00
1.00007277e+00
1.00005716e+00
1.00004359e+00
1.00003267e+00
1.00002408e+00
1.00001747e+00
1.00001300e+00
1.00203651e+00
1.00203150e+00
1.00202314e+00
1.00201116e+00
1.00199573e+00
1.00197706e+00
1.00195535e+00
1.00193082e+00
1.00190377e+00
1.00187448e+00
1.00184328e+00
1.00181057e+00
1.00177674e+00
1.00174215e+00
1.00170724e+00
1.00167247e+00
1.00163820e+00
1.00160483e+00
1.00157280e+00
1.00154245e+00
1.00151409e+00
1.00148803e+00
1.00146453e+00
1.00144376e+00
1.00142587e+00
1.00141095e+00
1.00139902e+00
1.00139006e+00
1.00138396e+00
1.00138058e+00
1.00137975e+00
1.00138121e+00
1.00138470e+00
1.00138991e+00
1.00139654e+00
1.00140425e+00
1.00141269e+00
1.00142157e+00
1.00143055e+00
1.00143936e+00
1.00144774e+00
1.00145546e+00
1.00146234e+00
1.00146823e+00
1.00147304e+00
1.00147669e+00
1.00147918e+00
1.00148051e+00
1.00148075e+00
1.00147997e+00
1.00147828e+00
1.00147581e+00
1.00147270e+00
1.00146911e+00
1.00146520e+00
1.00146110e+00
1.00145697e+00
1.00145294e+00
1.00144913e+00
1.00144563e+00
1.00144251e+00
1.00143982e+00
1.00143759e+00
1.00143581e+00
1.00143444e+00
1.00143345e+00
1.00143274e+00
1.00143222e+00
1.00143178e+00
1.00143127e+00
1.00143056e+00
1.00142948e+00
1.00142789e+00
1.00142560e+00
1.00142246e+00
1.00141830e+00
1.00141296e+00
1.00140629e+00
1.00139813e+00
1.00138835e+00
1.00137684e+00
1.00136347e+00
1.00134817e+00
1.00133086e+00
1.00131148e+00
1.00129000e+00
1.00126642e+00
1.00124074e+00
1.00121301e+00
1.00118329e+00
1.00115168e+00
1.00111828e+00
1.00108323e+00
1.00104671e+00
1.00100887e+00
1.00096990e+00
1.00093002e+00
1.00088944e+00
1.00084836e+00
1.00080699e+00
1.00076555e+00
1.00072423e+00
1.00068321e+00
1.00064266e+00
1.00060278e+00
1.00056365e+00
1.00052541e+00
1.00048818e+00
1.00045208e+00
1.00041712e+00
1.00038339e+00
1.00035101e+00
1.00032000e+00
1.00029035e+00
1.00026219e+00
1.00023560e+00
1.00021054e+00
1.00018708e+00
1.00016538e+00
1.00014545e+00
1.00012728e+00
1.00011105e+00
1.00009679e+00
1.00008452e+00
1.00007435e+00
1.00006632e+00
1.00006043e+00
1.00005641e+00
1.00201031e+00
1.00200559e+00
1.00199765e+00
1.00198631e+00
1.00197172e+00
1.00195405e+00
1.00193351e+00
1.00191025e+00
1.00188458e+00
1.00185679e+00
1.00182713e+00
1.00179595e+00
1.00176369e+00
1.00173069e+00
1.00169730e+00
1.00166397e+00
1.00163111e+00
1.00159907e+00
1.00156822e+00
1.00153896e+00
1.00151158e+00
1.00148636e+00
1.00146353e+00
1.00144332e+00
1.00142583e+00
1.00141115e+00
1.00139933e+00
1.00139033e+00
1.00138405e+00
1.00138037e+00
1.00137912e+00
1.00138006e+00
1.00138292e+00
1.00138744e+00
1.00139331e+00
1.00140021e+00
1.00140783e+00
1.00141587e+00
1.00142401e+00
1.00143201e+00
1.00143961e+00
1.00144659e+00
1.00145280e+00
1.00145808e+00
1.00146235e+00
1.00146554e+00
1.00146764e+00
1.00146866e+00
1.00146866e+00
1.00146771e+00
1.00146592e+00
1.00146341e+00
1.00146032e+00
1.00145679e+00
1.00145297e+00
1.00144901e+00
1.00144504e+00
1.00144119e+00
1.00143758e+00
1.00143429e+00
1.00143141e+00
1.00142896e+00
1.00142699e+00
1.00142547e+00
1.00142439e+00
1.00142369e+00
1.00142330e+00
1.00142311e+00
1.00142302e+00
1.00142289e+00
1.00142258e+00
1.00142194e+00
1.00142080e+00
1.00141900e+00
1.00141636e+00
1.00141274e+00
1.00140795e+00
1.00140185e+00
1.00139429e+00
1.00138512e+00
1.00137422e+00
1.00136148e+00
1.00134680e+00
1.00133010e+00
1.00131133e+00
1.00129045e+00
1.00126746e+00
1.00124237e+00
1.00121521e+00
1.00118606e+00
1.00115501e+00
1.00112218e+00
1.00108771e+00
1.00105177e+00
1.00101453e+00
1.00097620e+00
1.00093697e+00
1.00089707e+00
1.00085673e+00
1.00081615e+00
1.00077553e+00
1.00073510e+00
1.00069504e+00
1.00065551e+00
1.00061668e+00
1.00057874e+00
1.00054174e+00
1.00050580e+00
1.00047108e+00
1.00043763e+00
1.00040544e+00
1.00037462e+00
1.00034532e+00
1.00031743e+00
1.00029096e+00
1.00026612e+00
1.00024293e+00
1.00022118e+00
1.00020109e+00
1.00018289e+00
1.00016632e+00
1.00015135e+00
1.00013839e+00
1.00012739e+00
1.00011802e+00
1.00011061e+00
1.00010539e+00
1.00010171e+00
1.00198335e+00
1.00197890e+00
1.00197141e+00
1.00196070e+00
1.00194695e+00
1.00193028e+00
1.00191090e+00
1.00188896e+00
1.00186467e+00
1.00183833e+00
1.00181023e+00
1.00178065e+00
1.00174994e+00
1.00171850e+00
1.00168667e+00
1.00165481e+00
1.00162333e+00
1.00159262e+00
1.00156300e+00
1.00153481e+00
1.00150838e+00
1.00148399e+00
1.00146184e+00
1.00144214e+00
1.00142502e+00
1.00141057e+00
1.00139881e+00
1.00138972e+00
1.00138323e+00
1.00137921e+00
1.00137748e+00
1.00137784e+00
1.00138005e+00
1.00138384e+00
1.00138891e+00
1.00139498e+00
1.00140174e+00
1.00140892e+00
1.00141622e+00
1.00142340e+00
1.00143022e+00
1.00143648e+00
1.00144203e+00
1.00144673e+00
1.00145049e+00
1.00145325e+00
1.00145500e+00
1.00145576e+00
1.00145556e+00
1.00145449e+00
1.00145265e+00
1.00145014e+00
1.00144710e+00
1.00144367e+00
1.00143999e+00
1.00143619e+00
1.00143242e+00
1.00142879e+00
1.00142541e+00
1.00142237e+00
1.00141975e+00
1.00141758e+00
1.00141590e+00
1.00141469e+00
1.00141393e+00
1.00141358e+00
1.00141355e+00
1.00141375e+00
1.00141407e+00
1.00141439e+00
1.00141455e+00
1.00141441e+00
1.00141380e+00
1.00141256e+00
1.00141052e+00
1.00140751e+00
1.00140336e+00
1.00139792e+00
1.00139102e+00
1.00138254e+00
1.00137232e+00
1.00136026e+00
1.00134626e+00
1.00133024e+00
1.00131213e+00
1.00129190e+00
1.00126954e+00
1.00124506e+00
1.00121851e+00
1.00118995e+00
1.00115949e+00
1.00112725e+00
1.00109337e+00
1.00105803e+00
1.00102141e+00
1.00098372e+00
1.00094518e+00
1.00090599e+00
1.00086638e+00
1.00082660e+00
1.00078684e+00
1.00074730e+00
1.00070821e+00
1.00066973e+00
1.00063201e+00
1.00059521e+00
1.00055949e+00
1.00052493e+00
1.00049158e+00
1.00045959e+00
1.00042903e+00
1.00039986e+00
1.00037216e+00
1.00034603e+00
1.00032144e+00
1.00029834e+00
1.00027682e+00
1.00025698e+00
1.00023868e+00
1.00022194e+00
1.00020692e+00
1.00019359e+00
1.00018185e+00
1.00017177e+00
1.00016347e+00
1.00015695e+00
1.00015207e+00
1.00014861e+00
1.00195582e+00
1.00195160e+00
1.00194454e+00
1.00193445e+00
1.00192154e+00
1.00190587e+00
1.00188761e+00
1.00186696e+00
1.00184410e+00
1.00181922e+00
1.00179263e+00
1.00176465e+00
1.00173554e+00
1.00170563e+00
1.00167534e+00
1.00164498e+00
1.00161490e+00
1.00158548e+00
1.00155707e+00
1.00152997e+00
1.00150448e+00
1.00148088e+00
1.00145940e+00
1.00144019e+00
1.00142341e+00
1.00140914e+00
1.00139740e+00
1.00138819e+00
1.00138144e+00
1.00137702e+00
1.00137478e+00
1.00137452e+00
1.00137603e+00
1.00137903e+00
1.00138328e+00
1.00138849e+00
1.00139438e+00
1.00140068e+00
1.00140714e+00
1.00141350e+00
1.00141956e+00
1.00142512e+00
1.00143004e+00
1.00143419e+00
1.00143747e+00
1.00143985e+00
1.00144130e+00
1.00144183e+00
1.00144149e+00
1.00144035e+00
1.00143849e+00
1.00143604e+00
1.00143310e+00
1.00142981e+00
1.00142630e+00
1.00142271e+00
1.00141916e+00
1.00141578e+00
1.00141267e+00
1.00140992e+00
1.00140759e+00
1.00140574e+00
1.00140438e+00
1.00140351e+00
1.00140312e+00