# vtk DataFile Version 2.0
LBM Flow Field - Timestep 4690
ASCII
DATASET STRUCTURED_POINTS
DIMENSIONS 128 128 1
ORIGIN 0.0 0.0 0.0
SPACING 1.0 1.0 1.0
POINT_DATA 16384
SCALARS density double 1
LOOKUP_TABLE default
9.97489904e-01
9.97499677e-01
9.97513886e-01
9.97528454e-01
9.97550487e-01
9.97578299e-01
9.97610747e-01
9.97648311e-01
9.97690607e-01
9.97737277e-01
9.97788587e-01
9.97844104e-01
9.97903144e-01
9.97965896e-01
9.98032190e-01
9.98101466e-01
9.98173454e-01
9.98248210e-01
9.98325365e-01
9.98404592e-01
9.98485785e-01
9.98568837e-01
9.98653453e-01
9.98739487e-01
9.98826850e-01
9.98915404e-01
9.99004983e-01
9.99095516e-01
9.99186921e-01
9.99279098e-01
9.99371966e-01
9.99465482e-01
9.99559583e-01
9.99654212e-01
9.99749329e-01
9.99844901e-01
9.99940888e-01
1.00003726e+00
1.00013398e+00
1.00023103e+00
1.00032837e+00
1.00042599e+00
1.00052385e+00
1.00062192e+00
1.00072018e+00
1.00081860e+00
1.00091714e+00
1.00101578e+00
1.00111449e+00
1.00121323e+00
1.00131196e+00
1.00141066e+00
1.00150929e+00
1.00160782e+00
1.00170621e+00
1.00180443e+00
1.00190246e+00
1.00200025e+00
1.00209779e+00
1.00219502e+00
1.00229194e+00
1.00238849e+00
1.00248466e+00
1.00258039e+00
1.00267567e+00
1.00277044e+00
1.00286466e+00
1.00295828e+00
1.00305125e+00
1.00314351e+00
1.00323499e+00
1.00332563e+00
1.00341534e+00
1.00350404e+00
1.00359165e+00
1.00367805e+00
1.00376315e+00
1.00384684e+00
1.00392900e+00
1.00400951e+00
1.00408826e+00
1.00416511e+00
1.00423993e+00
1.00431262e+00
1.00438303e+00
1.00445105e+00
1.00451656e+00
1.00457946e+00
1.00463965e+00
1.00469703e+00
1.00475153e+00
1.00480307e+00
1.00485160e+00
1.00489710e+00
1.00493952e+00
1.00497888e+00
1.00501518e+00
1.00504845e+00
1.00507873e+00
1.00510611e+00
1.00513065e+00
1.00515243e+00
1.00517159e+00
1.00518826e+00
1.00520256e+00
1.00521462e+00
1.00522465e+00
1.00523277e+00
1.00523916e+00
1.00524398e+00
1.00524744e+00
1.00524968e+00
1.00525090e+00
1.00525124e+00
1.00525086e+00
1.00524996e+00
1.00524880e+00
1.00524713e+00
1.00524538e+00
1.00524404e+00
1.00524277e+00
1.00524072e+00
1.00524010e+00
1.00524095e+00
1.00523997e+00
1.00523747e+00
1.00524322e+00
1.00524801e+00
9.97501076e-01
9.97507595e-01
9.97522266e-01
9.97538309e-01
9.97560182e-01
9.97587415e-01
9.97619911e-01
9.97657393e-01
9.97699481e-01
9.97746015e-01
9.97796978e-01
9.97852190e-01
9.97911018e-01
9.97973484e-01
9.98039349e-01
9.98108340e-01
9.98180054e-01
9.98254458e-01
9.98331255e-01
9.98410225e-01
9.98491126e-01
9.98573869e-01
9.98658214e-01
9.98744018e-01
9.98831128e-01
9.98919447e-01
9.99008822e-01
9.99099163e-01
9.99190373e-01
9.99282378e-01
9.99375089e-01
9.99468452e-01
9.99562406e-01
9.99656903e-01
9.99751893e-01
9.99847341e-01
9.99943208e-01
1.00003946e+00
1.00013607e+00
1.00023301e+00
1.00033024e+00
1.00042774e+00
1.00052548e+00
1.00062344e+00
1.00072159e+00
1.00081988e+00
1.00091831e+00
1.00101682e+00
1.00111540e+00
1.00121401e+00
1.00131261e+00
1.00141118e+00
1.00150967e+00
1.00160807e+00
1.00170633e+00
1.00180442e+00
1.00190231e+00
1.00199998e+00
1.00209738e+00
1.00219450e+00
1.00229128e+00
1.00238772e+00
1.00248376e+00
1.00257938e+00
1.00267453e+00
1.00276918e+00
1.00286329e+00
1.00295679e+00
1.00304964e+00
1.00314178e+00
1.00323315e+00
1.00332366e+00
1.00341325e+00
1.00350183e+00
1.00358930e+00
1.00367558e+00
1.00376055e+00
1.00384410e+00
1.00392613e+00
1.00400651e+00
1.00408511e+00
1.00416183e+00
1.00423652e+00
1.00430908e+00
1.00437936e+00
1.00444726e+00
1.00451266e+00
1.00457546e+00
1.00463555e+00
1.00469283e+00
1.00474725e+00
1.00479872e+00
1.00484720e+00
1.00489264e+00
1.00493503e+00
1.00497436e+00
1.00501065e+00
1.00504392e+00
1.00507421e+00
1.00510160e+00
1.00512616e+00
1.00514798e+00
1.00516719e+00
1.00518390e+00
1.00519824e+00
1.00521037e+00
1.00522045e+00
1.00522863e+00
1.00523508e+00
1.00523996e+00
1.00524349e+00
1.00524579e+00
1.00524707e+00
1.00524744e+00
1.00524717e+00
1.00524631e+00
1.00524512e+00
1.00524352e+00
1.00524203e+00
1.00524047e+00
1.00523905e+00
1.00523741e+00
1.00523709e+00
1.00523669e+00
1.00523606e+00
1.00523521e+00
1.00524002e+00
1.00524091e+00
9.97517361e-01
9.97523549e-01
9.97532473e-01
9.97549897e-01
9.97572560e-01
9.97599470e-01
9.97631770e-01
9.97668744e-01
9.97710605e-01
9.97757247e-01
9.97807831e-01
9.97862370e-01
9.97921082e-01
9.97983332e-01
9.98048639e-01
9.98117165e-01
9.98188676e-01
9.98262665e-01
9.98338985e-01
9.98417609e-01
9.98498213e-01
9.98580545e-01
9.98664529e-01
9.98750035e-01
9.98836840e-01
9.98924828e-01
9.99013926e-01
9.99104009e-01
9.99194957e-01
9.99286710e-01
9.99379200e-01
9.99472347e-01
9.99566090e-01
9.99660390e-01
9.99755196e-01
9.99850462e-01
9.99946154e-01
1.00004224e+00
1.00013869e+00
1.00023546e+00
1.00033254e+00
1.00042988e+00
1.00052747e+00
1.00062527e+00
1.00072326e+00
1.00082141e+00
1.00091967e+00
1.00101803e+00
1.00111646e+00
1.00121491e+00
1.00131335e+00
1.00141177e+00
1.00151011e+00
1.00160835e+00
1.00170646e+00
1.00180441e+00
1.00190216e+00
1.00199968e+00
1.00209694e+00
1.00219392e+00
1.00229058e+00
1.00238688e+00
1.00248280e+00
1.00257830e+00
1.00267333e+00
1.00276787e+00
1.00286186e+00
1.00295525e+00
1.00304799e+00
1.00314001e+00
1.00323127e+00
1.00332167e+00
1.00341114e+00
1.00349960e+00
1.00358696e+00
1.00367311e+00
1.00375796e+00
1.00384138e+00
1.00392328e+00
1.00400353e+00
1.00408200e+00
1.00415858e+00
1.00423315e+00
1.00430556e+00
1.00437572e+00
1.00444348e+00
1.00450876e+00
1.00457142e+00
1.00463139e+00
1.00468856e+00
1.00474286e+00
1.00479422e+00
1.00484260e+00
1.00488794e+00
1.00493025e+00
1.00496950e+00
1.00500570e+00
1.00503890e+00
1.00506913e+00
1.00509645e+00
1.00512095e+00
1.00514273e+00
1.00516189e+00
1.00517855e+00
1.00519285e+00
1.00520495e+00
1.00521498e+00
1.00522310e+00
1.00522953e+00
1.00523439e+00
1.00523786e+00
1.00524012e+00
1.00524135e+00
1.00524171e+00
1.00524141e+00
1.00524050e+00
1.00523915e+00
1.00523774e+00
1.00523624e+00
1.00523425e+00
1.00523274e+00
1.00523218e+00
1.00523092e+00
1.00522890e+00
1.00523026e+00
1.00523232e+00
1.00522965e+00
1.00522996e+00
9.97530476e-01
9.97536605e-01
9.97548170e-01
9.97565660e-01
9.97586975e-01
9.97613595e-01
9.97645946e-01
9.97682857e-01
9.97724341e-01
9.97770404e-01
9.97820794e-01
9.97875115e-01
9.97933281e-01
9.97995001e-01
9.98060047e-01
9.98128138e-01
9.98199089e-01
9.98272644e-01
9.98348604e-01
9.98426737e-01
9.98506872e-01
9.98588818e-01
9.98672409e-01
9.98757481e-01
9.98843906e-01
9.98931546e-01
9.99020286e-01
9.99110018e-01
9.99200654e-01
9.99292105e-01
9.99384296e-01
9.99477162e-01
9.99570646e-01
9.99664690e-01
9.99759250e-01
9.99854284e-01
9.99949753e-01
1.00004562e+00
1.00014186e+00
1.00023843e+00
1.00033530e+00
1.00043245e+00
1.00052985e+00
1.00062747e+00
1.00072527e+00
1.00082323e+00
1.00092131e+00
1.00101949e+00
1.00111773e+00
1.00121601e+00
1.00131428e+00
1.00141252e+00
1.00151069e+00
1.00160877e+00
1.00170672e+00
1.00180450e+00
1.00190209e+00
1.00199947e+00
1.00209658e+00
1.00219342e+00
1.00228993e+00
1.00238610e+00
1.00248189e+00
1.00257725e+00
1.00267216e+00
1.00276657e+00
1.00286044e+00
1.00295370e+00
1.00304632e+00
1.00313823e+00
1.00322935e+00
1.00331963e+00
1.00340897e+00
1.00349730e+00
1.00358452e+00
1.00367054e+00
1.00375524e+00
1.00383852e+00
1.00392027e+00
1.00400036e+00
1.00407868e+00
1.00415510e+00
1.00422950e+00
1.00430175e+00
1.00437174e+00
1.00443934e+00
1.00450445e+00
1.00456695e+00
1.00462675e+00
1.00468376e+00
1.00473790e+00
1.00478911e+00
1.00483733e+00
1.00488254e+00
1.00492470e+00
1.00496381e+00
1.00499989e+00
1.00503296e+00
1.00506306e+00
1.00509027e+00
1.00511467e+00
1.00513633e+00
1.00515538e+00
1.00517194e+00
1.00518615e+00
1.00519814e+00
1.00520808e+00
1.00521612e+00
1.00522244e+00
1.00522721e+00
1.00523058e+00
1.00523277e+00
1.00523392e+00
1.00523418e+00
1.00523375e+00
1.00523282e+00
1.00523144e+00
1.00522982e+00
1.00522814e+00
1.00522647e+00
1.00522477e+00
1.00522349e+00
1.00522258e+00
1.00522169e+00
1.00522114e+00
1.00522205e+00
1.00522220e+00
1.00522405e+00
9.97548978e-01
9.97555649e-01
9.97566825e-01
9.97582635e-01
9.97604102e-01
9.97631131e-01
9.97662786e-01
9.97699411e-01
9.97740678e-01
9.97786127e-01
9.97836119e-01
9.97890199e-01
9.97947753e-01
9.98008868e-01
9.98073536e-01
9.98141139e-01
9.98211447e-01
9.98284490e-01
9.98359988e-01
9.98437566e-01
9.98517151e-01
9.98598629e-01
9.98681743e-01
9.98766316e-01
9.98852282e-01
9.98939500e-01
9.99027810e-01
9.99117129e-01
9.99207384e-01
9.99298469e-01
9.99390302e-01
9.99482830e-01
9.99575995e-01
9.99669731e-01
9.99763994e-01
9.99858747e-01
9.99953946e-01
1.00004955e+00
1.00014553e+00
1.00024186e+00
1.00033850e+00
1.00043542e+00
1.00053259e+00
1.00062998e+00
1.00072756e+00
1.00082531e+00
1.00092318e+00
1.00102115e+00
1.00111919e+00
1.00121727e+00
1.00131534e+00
1.00141339e+00
1.00151137e+00
1.00160926e+00
1.00170702e+00
1.00180463e+00
1.00190206e+00
1.00199926e+00
1.00209622e+00
1.00219289e+00
1.00228926e+00
1.00238528e+00
1.00248092e+00
1.00257615e+00
1.00267092e+00
1.00276520e+00
1.00285893e+00
1.00295207e+00
1.00304455e+00
1.00313632e+00
1.00322732e+00
1.00331745e+00
1.00340666e+00
1.00349484e+00
1.00358191e+00
1.00366777e+00
1.00375231e+00
1.00383542e+00
1.00391700e+00
1.00399691e+00
1.00407504e+00
1.00415127e+00
1.00422548e+00
1.00429753e+00
1.00436732e+00
1.00443471e+00
1.00449961e+00
1.00456191e+00
1.00462150e+00
1.00467830e+00
1.00473224e+00
1.00478325e+00
1.00483127e+00
1.00487628e+00
1.00491825e+00
1.00495718e+00
1.00499308e+00
1.00502597e+00
1.00505590e+00
1.00508295e+00
1.00510718e+00
1.00512868e+00
1.00514758e+00
1.00516400e+00
1.00517805e+00
1.00518989e+00
1.00519969e+00
1.00520760e+00
1.00521377e+00
1.00521839e+00
1.00522165e+00
1.00522368e+00
1.00522470e+00
1.00522485e+00
1.00522427e+00
1.00522320e+00
1.00522180e+00
1.00521998e+00
1.00521802e+00
1.00521653e+00
1.00521492e+00
1.00521279e+00
1.00521178e+00
1.00521216e+00
1.00521085e+00
1.00520983e+00
1.00521214e+00
1.00521431e+00
9.97570314e-01
9.97576065e-01
9.97587123e-01
9.97603088e-01
9.97624685e-01
9.97651246e-01
9.97682284e-01
9.97718435e-01
9.97759407e-01
9.97804648e-01
9.97853961e-01
9.97907313e-01
9.97964509e-01
9.98025187e-01
9.98089064e-01
9.98156032e-01
9.98225883e-01
9.98298300e-01
9.98373081e-01
9.98450104e-01
9.98529150e-01
9.98609997e-01
9.98692517e-01
9.98776579e-01
9.98862013e-01
9.98948687e-01
9.99036507e-01
9.99125365e-01
9.99215153e-01
9.99305793e-01
9.99397216e-01
9.99489346e-01
9.99582121e-01
9.99675492e-01
9.99769409e-01
9.99863824e-01
9.99958697e-01
1.00005399e+00
1.00014968e+00
1.00024571e+00
1.00034207e+00
1.00043871e+00
1.00053562e+00
1.00063275e+00
1.00073008e+00
1.00082758e+00
1.00092521e+00
1.00102295e+00
1.00112075e+00
1.00121860e+00
1.00131645e+00
1.00141428e+00
1.00151206e+00
1.00160974e+00
1.00170730e+00
1.00180472e+00
1.00190195e+00
1.00199898e+00
1.00209576e+00
1.00219227e+00
1.00228847e+00
1.00238433e+00
1.00247982e+00
1.00257490e+00
1.00266953e+00
1.00276366e+00
1.00285725e+00
1.00295025e+00
1.00304259e+00
1.00313422e+00
1.00322507e+00
1.00331506e+00
1.00340411e+00
1.00349214e+00
1.00357904e+00
1.00366473e+00
1.00374910e+00
1.00383203e+00
1.00391341e+00
1.00399312e+00
1.00407105e+00
1.00414706e+00
1.00422105e+00
1.00429287e+00
1.00436242e+00
1.00442958e+00
1.00449424e+00
1.00455629e+00
1.00461564e+00
1.00467220e+00
1.00472589e+00
1.00477665e+00
1.00482444e+00
1.00486920e+00
1.00491094e+00
1.00494963e+00
1.00498530e+00
1.00501796e+00
1.00504768e+00
1.00507451e+00
1.00509852e+00
1.00511982e+00
1.00513851e+00
1.00515471e+00
1.00516857e+00
1.00518022e+00
1.00518982e+00
1.00519752e+00
1.00520351e+00
1.00520795e+00
1.00521101e+00
1.00521285e+00
1.00521368e+00
1.00521367e+00
1.00521295e+00
1.00521164e+00
1.00521001e+00
1.00520824e+00
1.00520619e+00
1.00520406e+00
1.00520241e+00
1.00520101e+00
1.00519937e+00
1.00519833e+00
1.00519824e+00
1.00519834e+00
1.00519915e+00
1.00520017e+00
9.97594813e-01
9.97600551e-01
9.97610913e-01
9.97626636e-01
9.97647489e-01
9.97673540e-01
9.97704693e-01
9.97740356e-01
9.97780552e-01
9.97825392e-01
9.97874215e-01
9.97926882e-01
9.97983482e-01
9.98043551e-01
9.98106708e-01
9.98173005e-01
9.98242209e-01
9.98313911e-01
9.98387984e-01
9.98464351e-01
9.98542726e-01
9.98622892e-01
9.98704770e-01
9.98788215e-01
9.98873030e-01
9.98959109e-01
9.99046367e-01
9.99134678e-01
9.99223935e-01
9.99314071e-01
9.99405013e-01
9.99496679e-01
9.99589009e-01
9.99681957e-01
9.99775467e-01
9.99869490e-01
9.99963988e-01
1.00005892e+00
1.00015426e+00
1.00024996e+00
1.00034599e+00
1.00044232e+00
1.00053892e+00
1.00063576e+00
1.00073280e+00
1.00083001e+00
1.00092737e+00
1.00102484e+00
1.00112238e+00
1.00121997e+00
1.00131758e+00
1.00141516e+00
1.00151270e+00
1.00161016e+00
1.00170750e+00
1.00180471e+00
1.00190174e+00
1.00199856e+00
1.00209515e+00
1.00219148e+00
1.00228750e+00
1.00238320e+00
1.00247852e+00
1.00257344e+00
1.00266792e+00
1.00276190e+00
1.00285534e+00
1.00294818e+00
1.00304038e+00
1.00313186e+00
1.00322255e+00
1.00331238e+00
1.00340127e+00
1.00348912e+00
1.00357585e+00
1.00366135e+00
1.00374552e+00
1.00382825e+00
1.00390942e+00
1.00398891e+00
1.00406661e+00
1.00414238e+00
1.00421611e+00
1.00428768e+00
1.00435697e+00
1.00442386e+00
1.00448824e+00
1.00455001e+00
1.00460908e+00
1.00466535e+00
1.00471875e+00
1.00476923e+00
1.00481673e+00
1.00486121e+00
1.00490266e+00
1.00494107e+00
1.00497646e+00
1.00500885e+00
1.00503830e+00
1.00506486e+00
1.00508861e+00
1.00510965e+00
1.00512809e+00
1.00514403e+00
1.00515763e+00
1.00516904e+00
1.00517839e+00
1.00518585e+00
1.00519160e+00
1.00519580e+00
1.00519861e+00
1.00520025e+00
1.00520085e+00
1.00520057e+00
1.00519967e+00
1.00519821e+00
1.00519626e+00
1.00519423e+00
1.00519223e+00
1.00518990e+00
1.00518771e+00
1.00518638e+00
1.00518497e+00
1.00518330e+00
1.00518316e+00
1.00518358e+00
1.00518333e+00
1.00518467e+00
9.97621527e-01
9.97626695e-01
9.97637013e-01
9.97652700e-01
9.97673208e-01
9.97698667e-01
9.97729332e-01
9.97764662e-01
9.97804311e-01
9.97848347e-01
9.97896657e-01
9.97948850e-01
9.98004585e-01
9.98063826e-01
9.98126437e-01
9.98192009e-01
9.98260300e-01
9.98331265e-01
9.98404680e-01
9.98480235e-01
9.98557804e-01
9.98637288e-01
9.98718467e-01
9.98801164e-01
9.98885296e-01
9.98970741e-01
9.99057350e-01
9.99145028e-01
9.99233703e-01
9.99323276e-01
9.99413660e-01
9.99504799e-01
9.99596632e-01
9.99689095e-01
9.99782137e-01
9.99875718e-01
9.99969790e-01
1.00006431e+00
1.00015925e+00
1.00025457e+00
1.00035023e+00
1.00044620e+00
1.00054246e+00
1.00063896e+00
1.00073567e+00
1.00083257e+00
1.00092962e+00
1.00102678e+00
1.00112404e+00
1.00122134e+00
1.00131867e+00
1.00141599e+00
1.00151327e+00
1.00161048e+00
1.00170759e+00
1.00180456e+00
1.00190136e+00
1.00199797e+00
1.00209436e+00
1.00219049e+00
1.00228632e+00
1.00238183e+00
1.00247698e+00
1.00257173e+00
1.00266604e+00
1.00275986e+00
1.00285313e+00
1.00294582e+00
1.00303786e+00
1.00312917e+00
1.00321970e+00
1.00330936e+00
1.00339807e+00
1.00348574e+00
1.00357228e+00
1.00365758e+00
1.00374154e+00
1.00382405e+00
1.00390498e+00
1.00398423e+00
1.00406167e+00
1.00413718e+00
1.00421064e+00
1.00428193e+00
1.00435092e+00
1.00441751e+00
1.00448158e+00
1.00454304e+00
1.00460178e+00
1.00465773e+00
1.00471080e+00
1.00476095e+00
1.00480812e+00
1.00485228e+00
1.00489340e+00
1.00493148e+00
1.00496655e+00
1.00499863e+00
1.00502775e+00
1.00505400e+00
1.00507745e+00
1.00509818e+00
1.00511631e+00
1.00513197e+00
1.00514527e+00
1.00515637e+00
1.00516543e+00
1.00517261e+00
1.00517807e+00
1.00518197e+00
1.00518451e+00
1.00518587e+00
1.00518621e+00
1.00518566e+00
1.00518444e+00
1.00518278e+00
1.00518071e+00
1.00517826e+00
1.00517589e+00
1.00517375e+00
1.00517143e+00
1.00516924e+00
1.00516790e+00
1.00516689e+00
1.00516587e+00
1.00516563e+00
1.00516645e+00
1.00516803e+00
9.97651110e-01
9.97656306e-01
9.97665894e-01
9.97680910e-01
9.97701299e-01
9.97726478e-01
9.97756360e-01
9.97791125e-01
9.97830389e-01
9.97873742e-01
9.97921271e-01
9.97972759e-01
9.98027777e-01
9.98086247e-01
9.98148031e-01
9.98212754e-01
9.98280239e-01
9.98350392e-01
9.98422942e-01
9.98497652e-01
9.98574427e-01
9.98653103e-01
9.98733468e-01
9.98815396e-01
9.98898787e-01
9.98983494e-01
9.99069388e-01
9.99156390e-01
9.99244408e-01
9.99333341e-01
9.99423116e-01
9.99513673e-01
9.99604943e-01
9.99696864e-01
9.99789390e-01
9.99882473e-01
9.99976065e-01
1.00007013e+00
1.00016462e+00
1.00025951e+00
1.00035476e+00
1.00045033e+00
1.00054620e+00
1.00064232e+00
1.00073867e+00
1.00083522e+00
1.00093192e+00
1.00102876e+00
1.00112569e+00
1.00122268e+00
1.00131971e+00
1.00141673e+00
1.00151373e+00
1.00161066e+00
1.00170750e+00
1.00180422e+00
1.00190079e+00
1.00199716e+00
1.00209332e+00
1.00218924e+00
1.00228487e+00
1.00238018e+00
1.00247514e+00
1.00256971e+00
1.00266383e+00
1.00275748e+00
1.00285058e+00
1.00294310e+00
1.00303496e+00
1.00312610e+00
1.00321645e+00
1.00330593e+00
1.00339445e+00
1.00348192e+00
1.00356825e+00
1.00365333e+00
1.00373706e+00
1.00381933e+00
1.00390001e+00
1.00397899e+00
1.00405615e+00
1.00413137e+00
1.00420453e+00
1.00427550e+00
1.00434416e+00
1.00441042e+00
1.00447414e+00
1.00453525e+00
1.00459363e+00
1.00464922e+00
1.00470193e+00
1.00475171e+00
1.00479850e+00
1.00484229e+00
1.00488304e+00
1.00492076e+00
1.00495546e+00
1.00498718e+00
1.00501595e+00
1.00504184e+00
1.00506493e+00
1.00508531e+00
1.00510310e+00
1.00511841e+00
1.00513138e+00
1.00514214e+00
1.00515087e+00
1.00515771e+00
1.00516284e+00
1.00516643e+00
1.00516866e+00
1.00516967e+00
1.00516969e+00
1.00516891e+00
1.00516737e+00
1.00516531e+00
1.00516303e+00
1.00516048e+00
1.00515768e+00
1.00515514e+00
1.00515291e+00
1.00515056e+00
1.00514869e+00
1.00514766e+00
1.00514669e+00
1.00514615e+00
1.00514681e+00
1.00514818e+00
9.97682522e-01
9.97687324e-01
9.97697226e-01
9.97711841e-01
9.97731534e-01
9.97756408e-01
9.97785890e-01
9.97819866e-01
9.97858447e-01
9.97901309e-01
9.97948041e-01
9.97998596e-01
9.98052926e-01
9.98110630e-01
9.98171399e-01
9.98235230e-01
9.98301937e-01
9.98371147e-01
9.98442714e-01
9.98516582e-01
9.98592503e-01
9.98670249e-01
9.98749743e-01
9.98830868e-01
9.98913431e-01
9.98997314e-01
9.99082448e-01
9.99168715e-01
9.99255998e-01
9.99344231e-01
9.99433346e-01
9.99523258e-01
9.99613902e-01
9.99705229e-01
9.99797186e-01
9.99889715e-01
9.99982777e-01
1.00007633e+00
1.00017033e+00
1.00026475e+00
1.00035954e+00
1.00045467e+00
1.00055011e+00
1.00064581e+00
1.00074176e+00
1.00083792e+00
1.00093425e+00
1.00103071e+00
1.00112729e+00
1.00122394e+00
1.00132064e+00
1.00141734e+00
1.00151403e+00
1.00161067e+00
1.00170722e+00
1.00180366e+00
1.00189996e+00
1.00199609e+00
1.00209201e+00
1.00218769e+00
1.00228310e+00
1.00237820e+00
1.00247296e+00
1.00256733e+00
1.00266126e+00
1.00275472e+00
1.00284764e+00
1.00293997e+00
1.00303165e+00
1.00312260e+00
1.00321276e+00
1.00330204e+00
1.00339035e+00
1.00347761e+00
1.00356372e+00
1.00364857e+00
1.00373205e+00
1.00381405e+00
1.00389446e+00
1.00397315e+00
1.00405001e+00
1.00412492e+00
1.00419774e+00
1.00426837e+00
1.00433668e+00
1.00440256e+00
1.00446591e+00
1.00452663e+00
1.00458462e+00
1.00463981e+00
1.00469212e+00
1.00474149e+00
1.00478788e+00
1.00483125e+00
1.00487160e+00
1.00490891e+00
1.00494321e+00
1.00497452e+00
1.00500289e+00
1.00502839e+00
1.00505108e+00
1.00507108e+00
1.00508849e+00
1.00510341e+00
1.00511600e+00
1.00512640e+00
1.00513475e+00
1.00514122e+00
1.00514598e+00
1.00514921e+00
1.00515108e+00
1.00515175e+00
1.00515141e+00
1.00515026e+00
1.00514846e+00
1.00514607e+00
1.00514335e+00
1.00514058e+00
1.00513768e+00
1.00513465e+00
1.00513203e+00
1.00512986e+00
1.00512774e+00
1.00512604e+00
1.00512521e+00
1.00512495e+00
1.00512515e+00
1.00512617e+00
9.97716719e-01
9.97721259e-01
9.97730594e-01
9.97744896e-01
9.97764142e-01
9.97788403e-01
9.97817416e-01
9.97850853e-01
9.97888645e-01
9.97930719e-01
9.97976741e-01
9.98026507e-01
9.98079900e-01
9.98136658e-01
9.98196563e-01
9.98259478e-01
9.98325159e-01
9.98393388e-01
9.98464044e-01
9.98536942e-01
9.98611864e-01
9.98688682e-01
9.98767277e-01
9.98847475e-01
9.98929138e-01
9.99012178e-01
9.99096480e-01
9.99181923e-01
9.99268425e-01
9.99355911e-01
9.99444294e-01
9.99533500e-01
9.99623472e-01
9.99714152e-01
9.99805480e-01
9.99897407e-01
9.99989891e-01
1.00008289e+00
1.00017635e+00
1.00027024e+00
1.00036453e+00
1.00045918e+00
1.00055415e+00
1.00064940e+00
1.00074491e+00
1.00084064e+00
1.00093656e+00
1.00103262e+00
1.00112881e+00
1.00122509e+00
1.00132142e+00
1.00141778e+00
1.00151413e+00
1.00161045e+00
1.00170669e+00
1.00180284e+00
1.00189886e+00
1.00199471e+00
1.00209037e+00
1.00218580e+00
1.00228098e+00
1.00237585e+00
1.00247038e+00
1.00256454e+00
1.00265827e+00
1.00275152e+00
1.00284424e+00
1.00293638e+00
1.00302785e+00
1.00311861e+00
1.00320856e+00
1.00329762e+00
1.00338572e+00
1.00347275e+00
1.00355861e+00
1.00364321e+00
1.00372642e+00
1.00380814e+00
1.00388825e+00
1.00396663e+00
1.00404316e+00
1.00411772e+00
1.00419018e+00
1.00426043e+00
1.00432836e+00
1.00439384e+00
1.00445678e+00
1.00451707e+00
1.00457464e+00
1.00462939e+00
1.00468125e+00
1.00473018e+00
1.00477612e+00
1.00481905e+00
1.00485894e+00
1.00489581e+00
1.00492966e+00
1.00496053e+00
1.00498847e+00
1.00501353e+00
1.00503580e+00
1.00505537e+00
1.00507235e+00
1.00508686e+00
1.00509904e+00
1.00510903e+00
1.00511697e+00
1.00512304e+00
1.00512742e+00
1.00513024e+00
1.00513170e+00
1.00513202e+00
1.00513132e+00
1.00512974e+00
1.00512756e+00
1.00512495e+00
1.00512187e+00
1.00511861e+00
1.00511550e+00
1.00511237e+00
1.00510930e+00
1.00510675e+00
1.00510464e+00
1.00510282e+00
1.00510166e+00
1.00510116e+00
1.00510123e+00
1.00510239e+00
9.97752783e-01
9.97756930e-01
9.97765821e-01
9.97779958e-01
9.97798960e-01
9.97822485e-01
9.97850784e-01
9.97883755e-01
9.97920859e-01
9.97961995e-01
9.98007226e-01
9.98056217e-01
9.98108601e-01
9.98164362e-01
9.98223381e-01
9.98285278e-01
9.98349865e-01
9.98417113e-01
9.98486783e-01
9.98558603e-01
9.98632495e-01
9.98708353e-01
9.98785953e-01
9.98865152e-01
9.98945885e-01
9.99028019e-01
9.99111409e-01
9.99195977e-01
9.99281650e-01
9.99368323e-01
9.99455913e-01
9.99544365e-01
9.99633613e-01
9.99723587e-01
9.99814235e-01
9.99905514e-01
9.99997370e-01
1.00008976e+00
1.00018264e+00
1.00027597e+00
1.00036971e+00
1.00046383e+00
1.00055829e+00
1.00065305e+00
1.00074808e+00
1.00084335e+00
1.00093882e+00
1.00103445e+00
1.00113022e+00
1.00122610e+00
1.00132204e+00
1.00141802e+00
1.00151401e+00
1.00160998e+00
1.00170589e+00
1.00180172e+00
1.00189743e+00
1.00199299e+00
1.00208837e+00
1.00218354e+00
1.00227845e+00
1.00237308e+00
1.00246738e+00
1.00256131e+00
1.00265481e+00
1.00274785e+00
1.00284036e+00
1.00293228e+00
1.00302354e+00
1.00311408e+00
1.00320381e+00
1.00329265e+00
1.00338051e+00
1.00346729e+00
1.00355289e+00
1.00363721e+00
1.00372014e+00
1.00380156e+00
1.00388135e+00
1.00395939e+00
1.00403556e+00
1.00410975e+00
1.00418183e+00
1.00425168e+00
1.00431918e+00
1.00438423e+00
1.00444673e+00
1.00450657e+00
1.00456367e+00
1.00461795e+00
1.00466934e+00
1.00471778e+00
1.00476324e+00
1.00480568e+00
1.00484510e+00
1.00488148e+00
1.00491486e+00
1.00494525e+00
1.00497272e+00
1.00499731e+00
1.00501913e+00
1.00503824e+00
1.00505476e+00
1.00506883e+00
1.00508056e+00
1.00509010e+00
1.00509762e+00
1.00510326e+00
1.00510720e+00
1.00510961e+00
1.00511066e+00
1.00511054e+00
1.00510944e+00
1.00510751e+00
1.00510490e+00
1.00510185e+00
1.00509853e+00
1.00509493e+00
1.00509132e+00
1.00508797e+00
1.00508476e+00
1.00508178e+00
1.00507939e+00
1.00507756e+00
1.00507613e+00
1.00507538e+00
1.00507560e+00
1.00507666e+00
9.97790622e-01
9.97794718e-01
9.97803346e-01
9.97816868e-01
9.97835330e-01
9.97858511e-01
9.97886215e-01
9.97918340e-01
9.97954725e-01
9.97995164e-01
9.98039460e-01
9.98087443e-01
9.98138937e-01
9.98193749e-01
9.98251651e-01
9.98312467e-01
9.98376064e-01
9.98442228e-01
9.98510748e-01
9.98581509e-01
9.98654373e-01
9.98729138e-01
9.98805669e-01
9.98883872e-01
9.98963609e-01
9.99044740e-01
9.99127179e-01
9.99210839e-01
9.99295610e-01
9.99381406e-01
9.99468165e-01
9.99555812e-01
9.99644272e-01
9.99733492e-01
9.99823419e-01
9.99913996e-01
1.00000517e+00
1.00009691e+00
1.00018916e+00
1.00028188e+00
1.00037504e+00
1.00046859e+00
1.00056250e+00
1.00065673e+00
1.00075125e+00
1.00084602e+00
1.00094100e+00
1.00103617e+00
1.00113149e+00
1.00122693e+00
1.00132245e+00
1.00141803e+00
1.00151363e+00
1.00160922e+00
1.00170478e+00
1.00180026e+00
1.00189564e+00
1.00199089e+00
1.00208597e+00
1.00218085e+00
1.00227549e+00
1.00236985e+00
1.00246390e+00
1.00255758e+00
1.00265085e+00
1.00274366e+00
1.00283593e+00
1.00292763e+00
1.00301866e+00
1.00310896e+00
1.00319845e+00
1.00328705e+00
1.00337465e+00
1.00346117e+00
1.00354649e+00
1.00363052e+00
1.00371313e+00
1.00379422e+00
1.00387367e+00
1.00395135e+00
1.00402714e+00
1.00410092e+00
1.00417258e+00
1.00424200e+00
1.00430905e+00
1.00437364e+00
1.00443565e+00
1.00449500e+00
1.00455160e+00
1.00460537e+00
1.00465625e+00
1.00470418e+00
1.00474911e+00
1.00479104e+00
1.00482993e+00
1.00486580e+00
1.00489866e+00
1.00492855e+00
1.00495551e+00
1.00497961e+00
1.00500093e+00
1.00501956e+00
1.00503560e+00
1.00504919e+00
1.00506045e+00
1.00506953e+00
1.00507659e+00
1.00508177e+00
1.00508525e+00
1.00508722e+00
1.00508785e+00
1.00508728e+00
1.00508573e+00
1.00508342e+00
1.00508043e+00
1.00507692e+00
1.00507320e+00
1.00506935e+00
1.00506538e+00
1.00506157e+00
1.00505815e+00
1.00505500e+00
1.00505225e+00
1.00505015e+00
1.00504866e+00
1.00504778e+00
1.00504774e+00
1.00504867e+00
9.97830137e-01
9.97833893e-01
9.97842504e-01
9.97855618e-01
9.97873462e-01
9.97896184e-01
9.97923314e-01
9.97954618e-01
9.97990224e-01
9.98029901e-01
9.98073250e-01
9.98120227e-01
9.98170771e-01
9.98224542e-01
9.98281314e-01
9.98341056e-01
9.98403566e-01
9.98468559e-01
9.98535937e-01
9.98605606e-01
9.98677334e-01
9.98750957e-01
9.98826408e-01
9.98903548e-01
9.98982209e-01
9.99062303e-01
9.99143752e-01
9.99226433e-01
9.99310244e-01
9.99395127e-01
9.99481002e-01
9.99567784e-01
9.99655412e-01
9.99743834e-01
9.99832987e-01
9.99922814e-01
1.00001327e+00
1.00010431e+00
1.00019589e+00
1.00028796e+00
1.00038049e+00
1.00047343e+00
1.00056675e+00
1.00066041e+00
1.00075438e+00
1.00084862e+00
1.00094309e+00
1.00103776e+00
1.00113259e+00
1.00122756e+00
1.00132264e+00
1.00141778e+00
1.00151297e+00
1.00160816e+00
1.00170333e+00
1.00179844e+00
1.00189347e+00
1.00198838e+00
1.00208314e+00
1.00217771e+00
1.00227206e+00
1.00236614e+00
1.00245992e+00
1.00255334e+00
1.00264635e+00
1.00273891e+00
1.00283094e+00
1.00292238e+00
1.00301317e+00
1.00310322e+00
1.00319246e+00
1.00328079e+00
1.00336812e+00
1.00345435e+00
1.00353938e+00
1.00362309e+00
1.00370537e+00
1.00378611e+00
1.00386519e+00
1.00394248e+00
1.00401786e+00
1.00409122e+00
1.00416243e+00
1.00423138e+00
1.00429795e+00
1.00436204e+00
1.00442355e+00
1.00448238e+00
1.00453844e+00
1.00459167e+00
1.00464200e+00
1.00468938e+00
1.00473377e+00
1.00477514e+00
1.00481349e+00
1.00484881e+00
1.00488113e+00
1.00491048e+00
1.00493691e+00
1.00496048e+00
1.00498128e+00
1.00499940e+00
1.00501494e+00
1.00502803e+00
1.00503880e+00
1.00504740e+00
1.00505396e+00
1.00505867e+00
1.00506169e+00
1.00506318e+00
1.00506334e+00
1.00506235e+00
1.00506035e+00
1.00505755e+00
1.00505417e+00
1.00505031e+00
1.00504612e+00
1.00504185e+00
1.00503763e+00
1.00503348e+00
1.00502963e+00
1.00502626e+00
1.00502332e+00
1.00502091e+00
1.00501922e+00
1.00501828e+00
1.00501814e+00
1.00501894e+00
9.97871529e-01
9.97874993e-01
9.97883032e-01
9.97895862e-01
9.97913353e-01
9.97935344e-01
9.97961776e-01
9.97992517e-01
9.98027300e-01
9.98065967e-01
9.98108440e-01
9.98154517e-01
9.98203938e-01
9.98256576e-01
9.98312318e-01
9.98370931e-01
9.98432201e-01
9.98496037e-01
9.98562295e-01
9.98630752e-01
9.98701272e-01
9.98773771e-01
9.98848090e-01
9.98924069e-01
9.99001624e-01
9.99080661e-01
9.99161048e-01
9.99242687e-01
9.99325512e-01
9.99409434e-01
9.99494363e-01
9.99580236e-01
9.99666994e-01
9.99754568e-01
9.99842897e-01
9.99931935e-01
1.00002163e+00
1.00011193e+00
1.00020279e+00
1.00029417e+00
1.00038603e+00
1.00047833e+00
1.00057102e+00
1.00066408e+00
1.00075746e+00
1.00085112e+00
1.00094504e+00
1.00103918e+00
1.00113350e+00
1.00122798e+00
1.00132257e+00
1.00141725e+00
1.00151199e+00
1.00160676e+00
1.00170152e+00
1.00179624e+00
1.00189089e+00
1.00198544e+00
1.00207986e+00
1.00217410e+00
1.00226813e+00
1.00236191e+00
1.00245539e+00
1.00254853e+00
1.00264127e+00
1.00273355e+00
1.00282532e+00
1.00291650e+00
1.00300702e+00
1.00309681e+00
1.00318577e+00
1.00327382e+00
1.00336085e+00
1.00344678e+00
1.00353148e+00
1.00361485e+00
1.00369678e+00
1.00377714e+00
1.00385582e+00
1.00393270e+00
1.00400765e+00
1.00408055e+00
1.00415128e+00
1.00421974e+00
1.00428579e+00
1.00434935e+00
1.00441032e+00
1.00446859e+00
1.00452408e+00
1.00457674e+00
1.00462649e+00
1.00467328e+00
1.00471708e+00
1.00475787e+00
1.00479563e+00
1.00483038e+00
1.00486213e+00
1.00489091e+00
1.00491678e+00
1.00493980e+00
1.00496006e+00
1.00497764e+00
1.00499266e+00
1.00500523e+00
1.00501549e+00
1.00502358e+00
1.00502965e+00
1.00503387e+00
1.00503640e+00
1.00503742e+00
1.00503709e+00
1.00503564e+00
1.00503321e+00
1.00502996e+00
1.00502611e+00
1.00502186e+00
1.00501729e+00
1.00501258e+00
1.00500798e+00
1.00500356e+00
1.00499937e+00
1.00499565e+00
1.00499250e+00
1.00498991e+00
1.00498800e+00
1.00498685e+00
1.00498658e+00
1.00498737e+00
9.97914087e-01
9.97917304e-01
9.97925037e-01
9.97937509e-01
9.97954552e-01
9.97975919e-01
9.98001673e-01
9.98031705e-01
9.98065648e-01
9.98103402e-01
9.98144943e-01
9.98189994e-01
9.98238317e-01
9.98289865e-01
9.98344473e-01
9.98401873e-01
9.98461948e-01
9.98524606e-01
9.98589628e-01
9.98656841e-01
9.98726171e-01
9.98797477e-01
9.98870581e-01
9.98945387e-01
9.99021811e-01
9.99099717e-01
9.99178990e-01
9.99259566e-01
9.99341355e-01
9.99424257e-01
9.99508202e-01
9.99593130e-01
9.99678967e-01
9.99765646e-01
9.99853115e-01
9.99941322e-01
1.00003021e+00
1.00011973e+00
1.00020984e+00
1.00030049e+00
1.00039164e+00
1.00048325e+00
1.00057528e+00
1.00066770e+00
1.00076045e+00
1.00085351e+00
1.00094685e+00
1.00104042e+00
1.00113420e+00
1.00122814e+00
1.00132223e+00
1.00141642e+00
1.00151069e+00
1.00160500e+00
1.00169932e+00
1.00179362e+00
1.00188788e+00
1.00198204e+00
1.00207609e+00
1.00216998e+00
1.00226367e+00
1.00235713e+00
1.00245030e+00
1.00254314e+00
1.00263558e+00