# vtk DataFile Version 2.0
LBM Flow Field - Timestep 3580
ASCII
DATASET STRUCTURED_POINTS
DIMENSIONS 128 128 1
ORIGIN 0.0 0.0 0.0
SPACING 1.0 1.0 1.0
POINT_DATA 16384
SCALARS density double 1
LOOKUP_TABLE default
1.00664588e+00
1.00663650e+00
1.00662249e+00
1.00660619e+00
1.00658209e+00
1.00655282e+00
1.00651849e+00
1.00647868e+00
1.00643413e+00
1.00638519e+00
1.00633085e+00
1.00627185e+00
1.00620887e+00
1.00614147e+00
1.00606955e+00
1.00599392e+00
1.00591470e+00
1.00583171e+00
1.00574533e+00
1.00565604e+00
1.00556385e+00
1.00546895e+00
1.00537172e+00
1.00527242e+00
1.00517121e+00
1.00506837e+00
1.00496419e+00
1.00485891e+00
1.00475272e+00
1.00464591e+00
1.00453871e+00
1.00443132e+00
1.00432397e+00
1.00421688e+00
1.00411023e+00
1.00400420e+00
1.00389896e+00
1.00379467e+00
1.00369145e+00
1.00358944e+00
1.00348872e+00
1.00338937e+00
1.00329145e+00
1.00319499e+00
1.00310000e+00
1.00300648e+00
1.00291438e+00
1.00282367e+00
1.00273427e+00
1.00264609e+00
1.00255903e+00
1.00247297e+00
1.00238780e+00
1.00230338e+00
1.00221958e+00
1.00213626e+00
1.00205328e+00
1.00197052e+00
1.00188786e+00
1.00180517e+00
1.00172235e+00
1.00163932e+00
1.00155600e+00
1.00147232e+00
1.00138826e+00
1.00130377e+00
1.00121885e+00
1.00113351e+00
1.00104777e+00
1.00096169e+00
1.00087531e+00
1.00078871e+00
1.00070198e+00
1.00061522e+00
1.00052853e+00
1.00044203e+00
1.00035584e+00
1.00027008e+00
1.00018486e+00
1.00010029e+00
1.00001647e+00
9.99933505e-01
9.99851455e-01
9.99770379e-01
9.99690315e-01
9.99611277e-01
9.99533258e-01
9.99456226e-01
9.99380130e-01
9.99304894e-01
9.99230425e-01
9.99156613e-01
9.99083329e-01
9.99010438e-01
9.98937803e-01
9.98865274e-01
9.98792705e-01
9.98719971e-01
9.98646951e-01
9.98573521e-01
9.98499603e-01
9.98425161e-01
9.98350146e-01
9.98274524e-01
9.98198391e-01
9.98121851e-01
9.98044919e-01
9.97967752e-01
9.97890723e-01
9.97813977e-01
9.97737576e-01
9.97662081e-01
9.97588055e-01
9.97515406e-01
9.97444442e-01
9.97376338e-01
9.97311257e-01
9.97248802e-01
9.97190106e-01
9.97136484e-01
9.97086865e-01
9.97041680e-01
9.97002544e-01
9.96969329e-01
9.96941386e-01
9.96921973e-01
9.96905951e-01
9.96895412e-01
1.00663587e+00
1.00662910e+00
1.00661419e+00
1.00659691e+00
1.00657338e+00
1.00654481e+00
1.00651053e+00
1.00647112e+00
1.00642674e+00
1.00637792e+00
1.00632396e+00
1.00626532e+00
1.00620239e+00
1.00613524e+00
1.00606372e+00
1.00598830e+00
1.00590922e+00
1.00582656e+00
1.00574049e+00
1.00565138e+00
1.00555943e+00
1.00546483e+00
1.00536784e+00
1.00526876e+00
1.00516780e+00
1.00506521e+00
1.00496125e+00
1.00485619e+00
1.00475023e+00
1.00464364e+00
1.00453665e+00
1.00442947e+00
1.00432233e+00
1.00421543e+00
1.00410896e+00
1.00400311e+00
1.00389803e+00
1.00379390e+00
1.00369082e+00
1.00358894e+00
1.00348833e+00
1.00338907e+00
1.00329123e+00
1.00319483e+00
1.00309988e+00
1.00300639e+00
1.00291430e+00
1.00282358e+00
1.00273416e+00
1.00264594e+00
1.00255884e+00
1.00247273e+00
1.00238750e+00
1.00230302e+00
1.00221915e+00
1.00213576e+00
1.00205273e+00
1.00196991e+00
1.00188719e+00
1.00180446e+00
1.00172161e+00
1.00163856e+00
1.00155523e+00
1.00147156e+00
1.00138751e+00
1.00130306e+00
1.00121818e+00
1.00113290e+00
1.00104724e+00
1.00096123e+00
1.00087495e+00
1.00078845e+00
1.00070183e+00
1.00061517e+00
1.00052860e+00
1.00044221e+00
1.00035612e+00
1.00027046e+00
1.00018532e+00
1.00010083e+00
1.00001708e+00
9.99934155e-01
9.99852131e-01
9.99771063e-01
9.99690986e-01
9.99611916e-01
9.99533845e-01
9.99456743e-01
9.99380561e-01
9.99305226e-01
9.99230648e-01
9.99156717e-01
9.99083315e-01
9.99010308e-01
9.98937561e-01
9.98864931e-01
9.98792283e-01
9.98719488e-01
9.98646427e-01
9.98572992e-01
9.98499115e-01
9.98424734e-01
9.98349816e-01
9.98274362e-01
9.98198444e-01
9.98122112e-01
9.98045466e-01
9.97968689e-01
9.97892026e-01
9.97815620e-01
9.97739736e-01
9.97664821e-01
9.97591193e-01
9.97519015e-01
9.97448810e-01
9.97381293e-01
9.97316511e-01
9.97254740e-01
9.97196863e-01
9.97143590e-01
9.97094261e-01
9.97049879e-01
9.97011084e-01
9.96978417e-01
9.96950946e-01
9.96930970e-01
9.96913958e-01
9.96905859e-01
1.00662143e+00
1.00661434e+00
1.00660390e+00
1.00658577e+00
1.00656220e+00
1.00653344e+00
1.00649933e+00
1.00646078e+00
1.00641675e+00
1.00636738e+00
1.00631389e+00
1.00625598e+00
1.00619299e+00
1.00612578e+00
1.00605485e+00
1.00597977e+00
1.00590070e+00
1.00581831e+00
1.00573268e+00
1.00564377e+00
1.00555200e+00
1.00545774e+00
1.00536106e+00
1.00526219e+00
1.00516150e+00
1.00505922e+00
1.00495553e+00
1.00485070e+00
1.00474503e+00
1.00463871e+00
1.00453197e+00
1.00442505e+00
1.00431816e+00
1.00421150e+00
1.00410527e+00
1.00399965e+00
1.00389480e+00
1.00379087e+00
1.00368799e+00
1.00358629e+00
1.00348585e+00
1.00338675e+00
1.00328904e+00
1.00319277e+00
1.00309793e+00
1.00300452e+00
1.00291252e+00
1.00282186e+00
1.00273248e+00
1.00264431e+00
1.00255723e+00
1.00247114e+00
1.00238593e+00
1.00230145e+00
1.00221760e+00
1.00213422e+00
1.00205119e+00
1.00196839e+00
1.00188569e+00
1.00180299e+00
1.00172018e+00
1.00163717e+00
1.00155390e+00
1.00147030e+00
1.00138633e+00
1.00130196e+00
1.00121719e+00
1.00113202e+00
1.00104647e+00
1.00096059e+00
1.00087444e+00
1.00078807e+00
1.00070159e+00
1.00061507e+00
1.00052863e+00
1.00044237e+00
1.00035641e+00
1.00027085e+00
1.00018582e+00
1.00010141e+00
1.00001773e+00
9.99934861e-01
9.99852876e-01
9.99771828e-01
9.99691755e-01
9.99612672e-01
9.99534574e-01
9.99457434e-01
9.99381203e-01
9.99305812e-01
9.99231174e-01
9.99157185e-01
9.99083729e-01
9.99010679e-01
9.98937898e-01
9.98865255e-01
9.98792622e-01
9.98719862e-01
9.98646861e-01
9.98573539e-01
9.98499808e-01
9.98425591e-01
9.98350890e-01
9.98275740e-01
9.98200122e-01
9.98124093e-01
9.98047884e-01
9.97971620e-01
9.97895330e-01
9.97819373e-01
9.97744227e-01
9.97669895e-01
9.97596552e-01
9.97525105e-01
9.97455923e-01
9.97388647e-01
9.97324091e-01
9.97263601e-01
9.97206582e-01
9.97152812e-01
9.97104211e-01
9.97061321e-01
9.97022638e-01
9.96989533e-01
9.96962752e-01
9.96942151e-01
9.96929064e-01
9.96920572e-01
1.00660949e+00
1.00660234e+00
1.00658942e+00
1.00657066e+00
1.00654806e+00
1.00651984e+00
1.00648578e+00
1.00644686e+00
1.00640316e+00
1.00635440e+00
1.00630089e+00
1.00624286e+00
1.00618035e+00
1.00611351e+00
1.00604256e+00
1.00596768e+00
1.00588906e+00
1.00580690e+00
1.00572143e+00
1.00563287e+00
1.00554147e+00
1.00544745e+00
1.00535107e+00
1.00525258e+00
1.00515222e+00
1.00505024e+00
1.00494690e+00
1.00484245e+00
1.00473711e+00
1.00463113e+00
1.00452474e+00
1.00441816e+00
1.00431160e+00
1.00420527e+00
1.00409936e+00
1.00399404e+00
1.00388949e+00
1.00378584e+00
1.00368323e+00
1.00358178e+00
1.00348158e+00
1.00338270e+00
1.00328520e+00
1.00318910e+00
1.00309443e+00
1.00300117e+00
1.00290930e+00
1.00281876e+00
1.00272948e+00
1.00264140e+00
1.00255440e+00
1.00246839e+00
1.00238324e+00
1.00229883e+00
1.00221503e+00
1.00213171e+00
1.00204874e+00
1.00196600e+00
1.00188338e+00
1.00180075e+00
1.00171802e+00
1.00163511e+00
1.00155194e+00
1.00146845e+00
1.00138460e+00
1.00130036e+00
1.00121573e+00
1.00113070e+00
1.00104531e+00
1.00095959e+00
1.00087359e+00
1.00078739e+00
1.00070106e+00
1.00061470e+00
1.00052841e+00
1.00044230e+00
1.00035647e+00
1.00027104e+00
1.00018612e+00
1.00010181e+00
1.00001822e+00
9.99935418e-01
9.99853488e-01
9.99772481e-01
9.99692436e-01
9.99613369e-01
9.99535278e-01
9.99458139e-01
9.99381905e-01
9.99306512e-01
9.99231876e-01
9.99157898e-01
9.99084464e-01
9.99011452e-01
9.98938734e-01
9.98866179e-01
9.98793656e-01
9.98721046e-01
9.98648237e-01
9.98575132e-01
9.98501655e-01
9.98427761e-01
9.98353417e-01
9.98278632e-01
9.98203449e-01
9.98127949e-01
9.98052231e-01
9.97976457e-01
9.97900824e-01
9.97825560e-01
9.97750915e-01
9.97677205e-01
9.97604768e-01
9.97533975e-01
9.97465170e-01
9.97398766e-01
9.97335243e-01
9.97275008e-01
9.97218325e-01
9.97165758e-01
9.97117925e-01
9.97074751e-01
9.97036474e-01
9.97004475e-01
9.96978716e-01
9.96957313e-01
9.96942493e-01
9.96934282e-01
1.00659226e+00
1.00658421e+00
1.00657185e+00
1.00655423e+00
1.00653095e+00
1.00650250e+00
1.00646905e+00
1.00642997e+00
1.00638625e+00
1.00633810e+00
1.00628466e+00
1.00622647e+00
1.00616438e+00
1.00609794e+00
1.00602700e+00
1.00595232e+00
1.00587415e+00
1.00579225e+00
1.00570697e+00
1.00561880e+00
1.00552779e+00
1.00543408e+00
1.00533805e+00
1.00523998e+00
1.00514002e+00
1.00503842e+00
1.00493550e+00
1.00483148e+00
1.00472655e+00
1.00462099e+00
1.00451503e+00
1.00440886e+00
1.00430272e+00
1.00419679e+00
1.00409128e+00
1.00398635e+00
1.00388216e+00
1.00377887e+00
1.00367661e+00
1.00357548e+00
1.00347558e+00
1.00337698e+00
1.00327974e+00
1.00318388e+00
1.00308943e+00
1.00299637e+00
1.00290468e+00
1.00281430e+00
1.00272518e+00
1.00263722e+00
1.00255035e+00
1.00246445e+00
1.00237940e+00
1.00229509e+00
1.00221139e+00
1.00212817e+00
1.00204530e+00
1.00196267e+00
1.00188015e+00
1.00179764e+00
1.00171504e+00
1.00163227e+00
1.00154924e+00
1.00146591e+00
1.00138222e+00
1.00129816e+00
1.00121371e+00
1.00112888e+00
1.00104368e+00
1.00095816e+00
1.00087237e+00
1.00078637e+00
1.00070025e+00
1.00061409e+00
1.00052799e+00
1.00044206e+00
1.00035641e+00
1.00027114e+00
1.00018637e+00
1.00010219e+00
1.00001871e+00
9.99936011e-01
9.99854163e-01
9.99773225e-01
9.99693235e-01
9.99614213e-01
9.99536158e-01
9.99459050e-01
9.99382847e-01
9.99307486e-01
9.99232892e-01
9.99158968e-01
9.99085604e-01
9.99012684e-01
9.98940088e-01
9.98867684e-01
9.98795344e-01
9.98722960e-01
9.98650425e-01
9.98577629e-01
9.98504505e-01
9.98431030e-01
9.98357151e-01
9.98282849e-01
9.98208219e-01
9.98133355e-01
9.98058262e-01
9.97983115e-01
9.97908257e-01
9.97833798e-01
9.97759804e-01
9.97686857e-01
9.97615430e-01
9.97545384e-01
9.97477114e-01
9.97411738e-01
9.97349272e-01
9.97289340e-01
9.97233252e-01
9.97182006e-01
9.97134604e-01
9.97091446e-01
9.97054356e-01
9.97022751e-01
9.96996291e-01
9.96976072e-01
9.96962541e-01
9.96953819e-01
1.00657254e+00
1.00656478e+00
1.00655183e+00
1.00653412e+00
1.00651065e+00
1.00648200e+00
1.00644875e+00
1.00641026e+00
1.00636648e+00
1.00631796e+00
1.00626495e+00
1.00620733e+00
1.00614511e+00
1.00607867e+00
1.00600828e+00
1.00593394e+00
1.00585581e+00
1.00577425e+00
1.00568948e+00
1.00560159e+00
1.00551088e+00
1.00541764e+00
1.00532208e+00
1.00522439e+00
1.00512488e+00
1.00502379e+00
1.00492135e+00
1.00481778e+00
1.00471336e+00
1.00460831e+00
1.00450283e+00
1.00439716e+00
1.00429151e+00
1.00418606e+00
1.00408101e+00
1.00397654e+00
1.00387280e+00
1.00376993e+00
1.00366807e+00
1.00356732e+00
1.00346779e+00
1.00336953e+00
1.00327260e+00
1.00317704e+00
1.00308286e+00
1.00299005e+00
1.00289859e+00
1.00280842e+00
1.00271949e+00
1.00263172e+00
1.00254501e+00
1.00245926e+00
1.00237437e+00
1.00229020e+00
1.00220664e+00
1.00212356e+00
1.00204084e+00
1.00195836e+00
1.00187600e+00
1.00179365e+00
1.00171123e+00
1.00162864e+00
1.00154581e+00
1.00146268e+00
1.00137922e+00
1.00129538e+00
1.00121116e+00
1.00112657e+00
1.00104163e+00
1.00095636e+00
1.00087082e+00
1.00078507e+00
1.00069920e+00
1.00061328e+00
1.00052742e+00
1.00044171e+00
1.00035627e+00
1.00027120e+00
1.00018660e+00
1.00010259e+00
1.00001926e+00
9.99936686e-01
9.99854951e-01
9.99774110e-01
9.99694205e-01
9.99615258e-01
9.99537272e-01
9.99460229e-01
9.99384094e-01
9.99308809e-01
9.99234301e-01
9.99160480e-01
9.99087244e-01
9.99014480e-01
9.98942067e-01
9.98869887e-01
9.98797819e-01
9.98725742e-01
9.98653557e-01
9.98581180e-01
9.98508529e-01
9.98435547e-01
9.98362230e-01
9.98288587e-01
9.98214620e-01
9.98140415e-01
9.98066126e-01
9.97991858e-01
9.97917741e-01
9.97844076e-01
9.97771162e-01
9.97699149e-01
9.97628352e-01
9.97559310e-01
9.97492335e-01
9.97427578e-01
9.97365581e-01
9.97307011e-01
9.97252069e-01
9.97200839e-01
9.97153952e-01
9.97112231e-01
9.97075725e-01
9.97043930e-01
9.97017923e-01
9.96998359e-01
9.96984009e-01
9.96975570e-01
1.00654926e+00
1.00654121e+00
1.00652826e+00
1.00651049e+00
1.00648760e+00
1.00645901e+00
1.00642522e+00
1.00638694e+00
1.00634355e+00
1.00629496e+00
1.00624205e+00
1.00618473e+00
1.00612263e+00
1.00605636e+00
1.00598631e+00
1.00591223e+00
1.00583433e+00
1.00575315e+00
1.00566877e+00
1.00558124e+00
1.00549094e+00
1.00539818e+00
1.00530308e+00
1.00520587e+00
1.00510688e+00
1.00500634e+00
1.00490442e+00
1.00480141e+00
1.00469756e+00
1.00459307e+00
1.00448816e+00
1.00438305e+00
1.00427796e+00
1.00417307e+00
1.00406856e+00
1.00396461e+00
1.00386138e+00
1.00375900e+00
1.00365761e+00
1.00355731e+00
1.00345819e+00
1.00336033e+00
1.00326377e+00
1.00316856e+00
1.00307470e+00
1.00298219e+00
1.00289100e+00
1.00280109e+00
1.00271240e+00
1.00262485e+00
1.00253835e+00
1.00245280e+00
1.00236810e+00
1.00228412e+00
1.00220075e+00
1.00211786e+00
1.00203533e+00
1.00195304e+00
1.00187089e+00
1.00178876e+00
1.00170656e+00
1.00162421e+00
1.00154163e+00
1.00145876e+00
1.00137556e+00
1.00129201e+00
1.00120808e+00
1.00112379e+00
1.00103914e+00
1.00095418e+00
1.00086895e+00
1.00078350e+00
1.00069793e+00
1.00061230e+00
1.00052672e+00
1.00044128e+00
1.00035609e+00
1.00027125e+00
1.00018688e+00
1.00010307e+00
1.00001991e+00
9.99937504e-01
9.99855914e-01
9.99775203e-01
9.99695415e-01
9.99616577e-01
9.99538694e-01
9.99461754e-01
9.99385726e-01
9.99310558e-01
9.99236182e-01
9.99162513e-01
9.99089457e-01
9.99016905e-01
9.98944741e-01
9.98872851e-01
9.98801124e-01
9.98729439e-01
9.98657694e-01
9.98585814e-01
9.98513726e-01
9.98441358e-01
9.98368701e-01
9.98295792e-01
9.98222622e-01
9.98149231e-01
9.98075808e-01
9.98002497e-01
9.97929337e-01
9.97856606e-01
9.97784732e-01
9.97713800e-01
9.97643959e-01
9.97575919e-01
9.97510083e-01
9.97446279e-01
9.97385140e-01
9.97327663e-01
9.97273608e-01
9.97222953e-01
9.97177107e-01
9.97136298e-01
9.97099758e-01
9.97068445e-01
9.97043576e-01
9.97024374e-01
9.97010045e-01
9.97001537e-01
1.00652309e+00
1.00651533e+00
1.00650246e+00
1.00648409e+00
1.00646089e+00
1.00643280e+00
1.00639919e+00
1.00636046e+00
1.00631720e+00
1.00626917e+00
1.00621618e+00
1.00615867e+00
1.00609706e+00
1.00603120e+00
1.00596109e+00
1.00588724e+00
1.00580991e+00
1.00572904e+00
1.00564488e+00
1.00555785e+00
1.00546809e+00
1.00537574e+00
1.00528112e+00
1.00518451e+00
1.00508609e+00
1.00498609e+00
1.00488479e+00
1.00478242e+00
1.00467918e+00
1.00457531e+00
1.00447104e+00
1.00436657e+00
1.00426209e+00
1.00415782e+00
1.00405392e+00
1.00395056e+00
1.00384789e+00
1.00374607e+00
1.00364520e+00
1.00354540e+00
1.00344676e+00
1.00334935e+00
1.00325322e+00
1.00315840e+00
1.00306491e+00
1.00297274e+00
1.00288188e+00
1.00279227e+00
1.00270385e+00
1.00261657e+00
1.00253032e+00
1.00244502e+00
1.00236055e+00
1.00227681e+00
1.00219367e+00
1.00211101e+00
1.00202872e+00
1.00194669e+00
1.00186479e+00
1.00178293e+00
1.00170101e+00
1.00161895e+00
1.00153667e+00
1.00145412e+00
1.00137126e+00
1.00128804e+00
1.00120446e+00
1.00112053e+00
1.00103624e+00
1.00095164e+00
1.00086677e+00
1.00078169e+00
1.00069646e+00
1.00061118e+00
1.00052593e+00
1.00044081e+00
1.00035591e+00
1.00027136e+00
1.00018725e+00
1.00010367e+00
1.00002074e+00
9.99938532e-01
9.99857125e-01
9.99776582e-01
9.99696950e-01
9.99618258e-01
9.99540518e-01
9.99463722e-01
9.99387844e-01
9.99312838e-01
9.99238644e-01
9.99165182e-01
9.99092361e-01
9.99020081e-01
9.98948237e-01
9.98876710e-01
9.98805390e-01
9.98734179e-01
9.98662972e-01
9.98591671e-01
9.98520221e-01
9.98448588e-01
9.98376715e-01
9.98304596e-01
9.98232320e-01
9.98159937e-01
9.98087467e-01
9.98015104e-01
9.97943110e-01
9.97871565e-01
9.97800625e-01
9.97730783e-01
9.97662369e-01
9.97595398e-01
9.97530304e-01
9.97467840e-01
9.97408151e-01
9.97351224e-01
9.97297840e-01
9.97248751e-01
9.97203794e-01
9.97162960e-01
9.97127297e-01
9.97097371e-01
9.97072385e-01
9.97052694e-01
9.97039275e-01
9.97031370e-01
1.00649395e+00
1.00648572e+00
1.00647322e+00
1.00645513e+00
1.00643158e+00
1.00640331e+00
1.00637002e+00
1.00633138e+00
1.00628796e+00
1.00624004e+00
1.00618727e+00
1.00612992e+00
1.00606845e+00
1.00600276e+00
1.00593293e+00
1.00585943e+00
1.00578239e+00
1.00570184e+00
1.00561814e+00
1.00553158e+00
1.00544227e+00
1.00535043e+00
1.00525639e+00
1.00516036e+00
1.00506253e+00
1.00496317e+00
1.00486254e+00
1.00476083e+00
1.00465826e+00
1.00455509e+00
1.00445151e+00
1.00434773e+00
1.00424394e+00
1.00414035e+00
1.00403711e+00
1.00393439e+00
1.00383236e+00
1.00373114e+00
1.00363085e+00
1.00353161e+00
1.00343350e+00
1.00333658e+00
1.00324092e+00
1.00314655e+00
1.00305347e+00
1.00296169e+00
1.00287119e+00
1.00278192e+00
1.00269383e+00
1.00260685e+00
1.00252090e+00
1.00243588e+00
1.00235169e+00
1.00226822e+00
1.00218536e+00
1.00210299e+00
1.00202099e+00
1.00193925e+00
1.00185766e+00
1.00177612e+00
1.00169454e+00
1.00161283e+00
1.00153092e+00
1.00144875e+00
1.00136628e+00
1.00128347e+00
1.00120030e+00
1.00111678e+00
1.00103292e+00
1.00094875e+00
1.00086430e+00
1.00077964e+00
1.00069483e+00
1.00060995e+00
1.00052508e+00
1.00044033e+00
1.00035579e+00
1.00027157e+00
1.00018776e+00
1.00010448e+00
1.00002181e+00
9.99939847e-01
9.99858665e-01
9.99778331e-01
9.99698894e-01
9.99620389e-01
9.99542832e-01
9.99466222e-01
9.99390537e-01
9.99315738e-01
9.99241771e-01
9.99168564e-01
9.99096033e-01
9.99024081e-01
9.98952610e-01
9.98881512e-01
9.98810675e-01
9.98740000e-01
9.98669398e-01
9.98598775e-01
9.98528055e-01
9.98457211e-01
9.98386219e-01
9.98315041e-01
9.98243727e-01
9.98172384e-01
9.98101053e-01
9.98029818e-01
9.97958948e-01
9.97888648e-01
9.97818994e-01
9.97750327e-01
9.97683111e-01
9.97617466e-01
9.97553620e-01
9.97492262e-01
9.97433700e-01
9.97377933e-01
9.97325668e-01
9.97277531e-01
9.97233279e-01
9.97193315e-01
9.97158647e-01
9.97129140e-01
9.97104348e-01
9.97085354e-01
9.97072634e-01
9.97064431e-01
1.00646259e+00
1.00645430e+00
1.00644083e+00
1.00642294e+00
1.00639983e+00
1.00637111e+00
1.00633761e+00
1.00629945e+00
1.00625610e+00
1.00620787e+00
1.00615537e+00
1.00609843e+00
1.00603690e+00
1.00597130e+00
1.00590198e+00
1.00582878e+00
1.00575188e+00
1.00567178e+00
1.00558863e+00
1.00550245e+00
1.00541359e+00
1.00532238e+00
1.00522895e+00
1.00513348e+00
1.00503631e+00
1.00493767e+00
1.00483772e+00
1.00473671e+00
1.00463489e+00
1.00453247e+00
1.00442962e+00
1.00432658e+00
1.00422355e+00
1.00412068e+00
1.00401815e+00
1.00391614e+00
1.00381479e+00
1.00371423e+00
1.00361457e+00
1.00351593e+00
1.00341839e+00
1.00332202e+00
1.00322687e+00
1.00313298e+00
1.00304036e+00
1.00294901e+00
1.00285891e+00
1.00277002e+00
1.00268229e+00
1.00259566e+00
1.00251004e+00
1.00242535e+00
1.00234148e+00
1.00225834e+00
1.00217580e+00
1.00209376e+00
1.00201210e+00
1.00193071e+00
1.00184949e+00
1.00176833e+00
1.00168715e+00
1.00160585e+00
1.00152437e+00
1.00144265e+00
1.00136063e+00
1.00127829e+00
1.00119561e+00
1.00111258e+00
1.00102921e+00
1.00094554e+00
1.00086158e+00
1.00077741e+00
1.00069308e+00
1.00060866e+00
1.00052424e+00
1.00043992e+00
1.00035579e+00
1.00027196e+00
1.00018852e+00
1.00010557e+00
1.00002322e+00
9.99941546e-01
9.99860637e-01
9.99780557e-01
9.99701362e-01
9.99623090e-01
9.99545762e-01
9.99469382e-01
9.99393937e-01
9.99319396e-01
9.99245707e-01
9.99172807e-01
9.99100622e-01
9.99029060e-01
9.98958022e-01
9.98887413e-01
9.98817134e-01
9.98747072e-01
9.98677139e-01
9.98607272e-01
9.98537387e-01
9.98467413e-01
9.98397360e-01
9.98327242e-01
9.98257022e-01
9.98186759e-01
9.98116637e-01
9.98046733e-01
9.97977077e-01
9.97907985e-01
9.97839802e-01
9.97772553e-01
9.97706447e-01
9.97642138e-01
9.97579908e-01
9.97519681e-01
9.97462040e-01
9.97407795e-01
9.97356870e-01
9.97309250e-01
9.97265935e-01
9.97227491e-01
9.97193310e-01
9.97163758e-01
9.97140154e-01
9.97122047e-01
9.97108438e-01
9.97100283e-01
1.00642766e+00
1.00641941e+00
1.00640615e+00
1.00638802e+00
1.00636486e+00
1.00633634e+00
1.00630277e+00
1.00626445e+00
1.00622126e+00
1.00617325e+00
1.00612074e+00
1.00606384e+00
1.00600260e+00
1.00593730e+00
1.00586814e+00
1.00579518e+00
1.00571875e+00
1.00563907e+00
1.00555627e+00
1.00547059e+00
1.00538233e+00
1.00529168e+00
1.00519881e+00
1.00510403e+00
1.00500757e+00
1.00490961e+00
1.00481040e+00
1.00471017e+00
1.00460913e+00
1.00450748e+00
1.00440543e+00
1.00430319e+00
1.00420094e+00
1.00409884e+00
1.00399709e+00
1.00389583e+00
1.00379520e+00
1.00369534e+00
1.00359636e+00
1.00349837e+00
1.00340144e+00
1.00330566e+00
1.00321106e+00
1.00311769e+00
1.00302557e+00
1.00293468e+00
1.00284502e+00
1.00275655e+00
1.00266922e+00
1.00258297e+00
1.00249773e+00
1.00241340e+00
1.00232990e+00
1.00224712e+00
1.00216495e+00
1.00208329e+00
1.00200202e+00
1.00192105e+00
1.00184025e+00
1.00175953e+00
1.00167881e+00
1.00159799e+00
1.00151701e+00
1.00143580e+00
1.00135432e+00
1.00127253e+00
1.00119040e+00
1.00110794e+00
1.00102514e+00
1.00094203e+00
1.00085865e+00
1.00077503e+00
1.00069125e+00
1.00060737e+00
1.00052347e+00
1.00043965e+00
1.00035599e+00
1.00027260e+00
1.00018958e+00
1.00010703e+00
1.00002505e+00
9.99943723e-01
9.99863136e-01
9.99783360e-01
9.99704454e-01
9.99626461e-01
9.99549409e-01
9.99473307e-01
9.99398148e-01
9.99323908e-01
9.99250546e-01
9.99178004e-01
9.99106211e-01
9.99035090e-01
9.98964546e-01
9.98894483e-01
9.98824810e-01
9.98755433e-01
9.98686250e-01
9.98617187e-01
9.98548195e-01
9.98479207e-01
9.98410178e-01
9.98341137e-01
9.98272118e-01
9.98203115e-01
9.98134224e-01
9.98065634e-01
9.97997439e-01
9.97929746e-01
9.97862875e-01
9.97797112e-01
9.97732574e-01
9.97669593e-01
9.97608642e-01
9.97549929e-01
9.97493724e-01
9.97440563e-01
9.97390739e-01
9.97344451e-01
9.97302237e-01
9.97264442e-01
9.97231056e-01
9.97202503e-01
9.97179369e-01
9.97161440e-01
9.97148481e-01
9.97140709e-01
1.00639018e+00
1.00638199e+00
1.00636904e+00
1.00635055e+00
1.00632699e+00
1.00629882e+00
1.00626542e+00
1.00622678e+00
1.00618363e+00
1.00613597e+00
1.00608347e+00
1.00602654e+00
1.00596565e+00
1.00590064e+00
1.00583157e+00
1.00575897e+00
1.00568302e+00
1.00560368e+00
1.00552127e+00
1.00543618e+00
1.00534849e+00
1.00525837e+00
1.00516616e+00
1.00507210e+00
1.00497634e+00
1.00487910e+00
1.00478069e+00
1.00468126e+00
1.00458102e+00
1.00448019e+00
1.00437899e+00
1.00427759e+00
1.00417616e+00
1.00407489e+00
1.00397395e+00
1.00387347e+00
1.00377361e+00
1.00367450e+00
1.00357624e+00
1.00347893e+00
1.00338266e+00
1.00328749e+00
1.00319349e+00
1.00310068e+00
1.00300908e+00
1.00291869e+00
1.00282950e+00
1.00274148e+00
1.00265459e+00
1.00256876e+00
1.00248393e+00
1.00240001e+00
1.00231692e+00
1.00223455e+00
1.00215280e+00
1.00207158e+00
1.00199076e+00
1.00191024e+00
1.00182993e+00
1.00174972e+00
1.00166953e+00
1.00158926e+00
1.00150885e+00
1.00142823e+00
1.00134736e+00
1.00126619e+00
1.00118470e+00
1.00110288e+00
1.00102074e+00
1.00093828e+00
1.00085554e+00
1.00077257e+00
1.00068941e+00
1.00060614e+00
1.00052284e+00
1.00043958e+00
1.00035647e+00
1.00027360e+00
1.00019106e+00
1.00010897e+00
1.00002742e+00
9.99946498e-01
9.99866291e-01
9.99786875e-01
9.99708312e-01
9.99630651e-01
9.99553926e-01
9.99478153e-01
9.99403332e-01
9.99329446e-01
9.99256461e-01
9.99184330e-01
9.99112986e-01
9.99042356e-01
9.98972363e-01
9.98902910e-01
9.98833902e-01
9.98765261e-01
9.98696902e-01
9.98628726e-01
9.98560677e-01
9.98492735e-01
9.98424843e-01
9.98356961e-01
9.98289166e-01
9.98221526e-01
9.98154021e-01
9.98086772e-01
9.98020053e-01
9.97953954e-01
9.97888526e-01
9.97824187e-01
9.97761316e-01
9.97699899e-01
9.97640226e-01
9.97583010e-01
9.97528433e-01
9.97476419e-01
9.97427679e-01
9.97382911e-01
9.97341821e-01
9.97304533e-01
9.97272187e-01
9.97244882e-01
9.97221890e-01
9.97204007e-01
9.97191969e-01
9.97184537e-01
1.00635044e+00
1.00634191e+00
1.00632871e+00
1.00631049e+00
1.00628705e+00
1.00625856e+00
1.00622511e+00
1.00618678e+00
1.00614364e+00
1.00609584e+00
1.00604355e+00
1.00598694e+00
1.00592610e+00
1.00586122e+00
1.00579258e+00
1.00572034e+00
1.00564463e+00
1.00556571e+00
1.00548389e+00
1.00539929e+00
1.00531210e+00
1.00522264e+00
1.00513114e+00
1.00503774e+00
1.00494270e+00
1.00484628e+00
1.00474867e+00
1.00465005e+00
1.00455066e+00
1.00445071e+00
1.00435036e+00
1.00424982e+00
1.00414926e+00
1.00404886e+00
1.00394876e+00
1.00384911e+00
1.00375006e+00
1.00365172e+00
1.00355421e+00
1.00345762e+00
1.00336204e+00
1.00326753e+00
1.00317415e+00
1.00308193e+00
1.00299089e+00
1.00290103e+00
1.00281235e+00
1.00272482e+00
1.00263840e+00
1.00255303e+00
1.00246865e+00
1.00238518e+00
1.00230253e+00
1.00222062e+00
1.00213935e+00
1.00205860e+00
1.00197829e+00
1.00189830e+00
1.00181854e+00
1.00173890e+00
1.00165931e+00
1.00157967e+00
1.00149990e+00
1.00141996e+00
1.00133978e+00
1.00125932e+00
1.00117855e+00
1.00109746e+00
1.00101605e+00
1.00093433e+00
1.00085232e+00
1.00077007e+00
1.00068763e+00
1.00060505e+00
1.00052241e+00
1.00043980e+00
1.00035731e+00
1.00027503e+00
1.00019305e+00
1.00011149e+00
1.00003043e+00
9.99949975e-01
9.99870208e-01
9.99791208e-01
9.99713044e-01
9.99635768e-01
9.99559422e-01
9.99484027e-01
9.99409594e-01
9.99336110e-01
9.99263549e-01
9.99191874e-01
9.99121028e-01
9.99050941e-01
9.98981538e-01
9.98912744e-01
9.98844465e-01
9.98776609e-01
9.98709108e-01
9.98641890e-01
9.98574867e-01
9.98507998e-01
9.98441283e-01
9.98374689e-01
9.98308195e-01
9.98241893e-01
9.98175882e-01
9.98110177e-01
9.98044910e-01
9.97980353e-01
9.97916651e-01
9.97853909e-01
9.97792482e-01
9.97732732e-01
9.97674799e-01
9.97618964e-01
9.97565708e-01
9.97515334e-01
9.97468037e-01
9.97424204e-01
9.97384234e-01
9.97348356e-01
9.97316811e-01
9.97289884e-01
9.97267779e-01
9.97250782e-01
9.97238794e-01
9.97231245e-01
1.00630812e+00
1.00629961e+00
1.00628597e+00
1.00626779e+00
1.00624454e+00
1.00621585e+00
1.00618233e+00
1.00614422e+00
1.00610112e+00
1.00605328e+00
1.00600119e+00
1.00594480e+00
1.00588406e+00
1.00581943e+00
1.00575116e+00
1.00567921e+00
1.00560383e+00
1.00552542e+00
1.00544410e+00
1.00535997e+00
1.00527339e+00
1.00518462e+00
1.00509376e+00
1.00500106e+00
1.00490682e+00
1.00481120e+00
1.00471439e+00
1.00461663e+00
1.00451813e+00
1.00441906e+00
1.00431960e+00
1.00421997e+00
1.00412031e+00
1.00402079e+00
1.00392156e+00
1.00382278e+00
1.00372457e+00
1.00362704e+00
1.00353031e+00
1.00343448e+00
1.00333962e+00
1.00324579e+00
1.00315306e+00
1.00306146e+00
1.00297101e+00
1.00288172e+00
1.00279358e+00
1.00270656e+00
1.00262064e+00
1.00253577e+00
1.00245188e+00
1.00236890e+00
1.00228675e+00
1.00220534e+00
1.00212459e+00
1.00204438e+00
1.00196463e+00
1.00188523e+00
1.00180608e+00
1.00172709e+00
1.00164817e+00
1.00156923e+00
1.00149020e+00
1.00141101e+00
1.00133161e+00
1.00125194e+00
1.00117198e+00
1.00109172e+00
1.00101113e+00
1.00093024e+00
1.00084906e+00
1.00076762e+00
1.00068597e+00
1.00060418e+00
1.00052230e+00
1.00044042e+00
1.00035862e+00
1.00027701e+00
1.00019567e+00
1.00011470e+00
1.00003421e+00
9.99954292e-01
9.99875031e-01
9.99796512e-01
9.99718807e-01
9.99641977e-01
9.99566067e-01
9.99491107e-01
9.99417113e-01
9.99344085e-01
9.99272003e-01
9.99200832e-01
9.99130532e-01
9.99061041e-01
9.98992284e-01
9.98924191e-01
9.98856688e-01
9.98789684e-01
9.98723093e-01
9.98656863e-01
9.98590935e-01
9.98525226e-01
9.98459718e-01
9.98394442e-01
9.98329369e-01
9.98264491e-01
9.98199951e-01
9.98135866e-01
9.98072236e-01
9.98009239e-01
9.97947207e-01
9.97886243e-01
9.97826439e-01
9.97768264e-01
9.97712078e-01
9.97657874e-01
9.97606012e-01
9.97557161e-01
9.97511398e-01
9.97468710e-01
9.97429858e-01
9.97395302e-01
9.97364648e-01
9.97338274e-01
9.97317085e-01
9.97300761e-01
9.97288725e-01
9.97281461e-01
1.00626291e+00
1.00625446e+00
1.00624113e+00
1.00622269e+00
1.00619922e+00
1.00617081e+00
1.00613740e+00
1.00609905e+00
1.00605605e+00
1.00600853e+00
1.00595649e+00
1.00590011e+00
1.00583972e+00
1.00577543e+00
1.00570731e+00
1.00563569e+00
1.00556084e+00
1.00548286e+00
1.00540194e+00
1.00531842e+00
1.00523250e+00
1.00514432e+00
1.00505413e+00
1.00496223e+00
1.00486877e+00
1.00477393e+00
1.00467797e+00
1.00458111e+00
1.00448349e+00
1.00438531e+00
1.00428679e+00
1.00418808e+00
1.00408934e+00
1.00399074e+00
1.00389242e+00
1.00379453e+00
1.00369717e+00
1.00360049e+00
1.00350457e+00
1.00340952e+00
1.00331540e+00
1.00322229e+00
1.00313024e+00
1.00303929e+00
1.00294945e+00
1.00286076e+00
1.00277318e+00
1.00268672e+00
1.00260134e+00
1.00251699e+00
1.00243363e+00
1.00235118e+00
1.00226957e+00
1.00218872e+00
1.00210854e+00
1.00202893e+00
1.00194980e+00
1.00187105e+00
1.00179259e+00
1.00171432e+00
1.00163615e+00
1.00155799e+00
1.00147977e+00
1.00140143e+00
1.00132289e+00
1.00124411e+00
1.00116506e+00
1.00108571e+00
1.00100605e+00
1.00092608e+00
1.00084581e+00
1.00076528e+00
1.00068453e+00
1.00060360e+00
1.00052257e+00
1.00044151e+00
1.00036050e+00
1.00027963e+00
1.00019900e+00
1.00011872e+00
1.00003887e+00
9.99959550e-01
9.99880863e-01
9.99802889e-01
9.99725706e-01
9.99649379e-01
9.99573961e-01
9.99499490e-01
9.99425988e-01
9.99353462e-01
9.99281904e-01
9.99211288e-01
9.99141573e-01
9.99072715e-01
9.99004651e-01
9.98937304e-01
9.98870605e-01
9.98804489e-01
9.98738871e-01
9.98673668e-01
9.98608846e-01
9.98544362e-01
9.98480145e-01
9.98416189e-01
9.98352553e-01
9.98289235e-01
9.98226234e-01
9.98163707e-01
9.98101813e-01
9.98040578e-01
9.97980167e-01
9.97920921e-01
9.97863013e-01
9.97806539e-01
9.97751880e-01
9.97699450e-01
9.97649365e-01
9.97601845e-01
9.97557413e-01
9.97516384e-01
9.97478804e-01
9.97445011e-01
9.97415472e-01
9.97390320e-01
9.97369572e-01
9.97353506e-01
9.97342310e-01
9.97335480e-01
1.00621556e+00
1.00620702e+00
1.00619370e+00
1.00617520e+00
1.00615165e+00
1.00612332e+00
1.00608996e+00
1.00605161e+00
1.00600873e+00
1.00596136e+00
1.00590941e+00
1.00585324e+00
1.00579313e+00
1.00572906e+00
1.00566124e+00
1.00559005e+00
1.00551561e+00
1.00543804e+00
1.00535766e+00
1.00527475e+00
1.00518941e+00
1.00510187e+00
1.00501244e+00
1.00492129e+00
1.00482859e+00
1.00473459e+00
1.00463952e+00
1.00454353e+00
1.00444681e+00
1.00434958e+00
1.00425200e+00
1.00415423e+00
1.00405643e+00
1.00395877e+00
1.00386138e+00
1.00376439e+00
1.00366793e+00
1.00357211e+00
1.00347702e+00
1.00338277e+00
1.00328943e+00
1.00319706e+00
1.00310571e+00
1.00301544e+00
1.00292625e+00
1.00283817e+00
1.00275120e+00
1.00266532e+00
1.00258051e+00
1.00249673e+00
1.00241394e+00
1.00233206e+00
1.00225104e+00
1.00217079e+00
1.00209123e+00
1.00201228e+00
1.00193384e+00
1.00185581e+00
1.00177811e+00
1.00170063e+00
1.00162329e+00
1.00154600e+00
1.00146868e+00
1.00139126e+00
1.00131368e+00