# vtk DataFile Version 2.0
LBM Flow Field - Timestep 4990
ASCII
DATASET STRUCTURED_POINTS
DIMENSIONS 128 128 1
ORIGIN 0.0 0.0 0.0
SPACING 1.0 1.0 1.0
POINT_DATA 16384
SCALARS density double 1
LOOKUP_TABLE default
1.00087227e+00
1.00086522e+00
1.00085499e+00
1.00085026e+00
1.00084225e+00
1.00082997e+00
1.00081720e+00
1.00080391e+00
1.00078809e+00
1.00077060e+00
1.00075242e+00
1.00073307e+00
1.00071226e+00
1.00069063e+00
1.00066838e+00
1.00064536e+00
1.00062173e+00
1.00059788e+00
1.00057389e+00
1.00054983e+00
1.00052599e+00
1.00050260e+00
1.00047978e+00
1.00045774e+00
1.00043672e+00
1.00041691e+00
1.00039849e+00
1.00038167e+00
1.00036666e+00
1.00035361e+00
1.00034271e+00
1.00033414e+00
1.00032803e+00
1.00032453e+00
1.00032377e+00
1.00032585e+00
1.00033086e+00
1.00033889e+00
1.00035000e+00
1.00036421e+00
1.00038157e+00
1.00040206e+00
1.00042568e+00
1.00045241e+00
1.00048219e+00
1.00051497e+00
1.00055068e+00
1.00058923e+00
1.00063052e+00
1.00067445e+00
1.00072091e+00
1.00076977e+00
1.00082091e+00
1.00087420e+00
1.00092951e+00
1.00098671e+00
1.00104566e+00
1.00110624e+00
1.00116832e+00
1.00123177e+00
1.00129649e+00
1.00136236e+00
1.00142926e+00
1.00149711e+00
1.00156579e+00
1.00163524e+00
1.00170535e+00
1.00177604e+00
1.00184725e+00
1.00191889e+00
1.00199089e+00
1.00206318e+00
1.00213568e+00
1.00220833e+00
1.00228103e+00
1.00235372e+00
1.00242629e+00
1.00249867e+00
1.00257074e+00
1.00264241e+00
1.00271357e+00
1.00278408e+00
1.00285384e+00
1.00292270e+00
1.00299054e+00
1.00305722e+00
1.00312261e+00
1.00318656e+00
1.00324894e+00
1.00330964e+00
1.00336851e+00
1.00342545e+00
1.00348036e+00
1.00353314e+00
1.00358371e+00
1.00363202e+00
1.00367801e+00
1.00372165e+00
1.00376291e+00
1.00380182e+00
1.00383839e+00
1.00387261e+00
1.00390456e+00
1.00393433e+00
1.00396192e+00
1.00398739e+00
1.00401092e+00
1.00403260e+00
1.00405238e+00
1.00407043e+00
1.00408704e+00
1.00410210e+00
1.00411553e+00
1.00412783e+00
1.00413916e+00
1.00414897e+00
1.00415752e+00
1.00416583e+00
1.00417322e+00
1.00417862e+00
1.00418385e+00
1.00418998e+00
1.00419361e+00
1.00419478e+00
1.00419932e+00
1.00420434e+00
1.00419818e+00
1.00419349e+00
1.00086571e+00
1.00086300e+00
1.00085425e+00
1.00084792e+00
1.00083994e+00
1.00082896e+00
1.00081613e+00
1.00080254e+00
1.00078718e+00
1.00077013e+00
1.00075189e+00
1.00073266e+00
1.00071217e+00
1.00069073e+00
1.00066855e+00
1.00064574e+00
1.00062234e+00
1.00059864e+00
1.00057481e+00
1.00055097e+00
1.00052732e+00
1.00050409e+00
1.00048146e+00
1.00045961e+00
1.00043876e+00
1.00041912e+00
1.00040086e+00
1.00038420e+00
1.00036932e+00
1.00035641e+00
1.00034563e+00
1.00033715e+00
1.00033113e+00
1.00032770e+00
1.00032699e+00
1.00032911e+00
1.00033415e+00
1.00034218e+00
1.00035328e+00
1.00036747e+00
1.00038478e+00
1.00040521e+00
1.00042877e+00
1.00045541e+00
1.00048510e+00
1.00051778e+00
1.00055338e+00
1.00059181e+00
1.00063298e+00
1.00067678e+00
1.00072311e+00
1.00077184e+00
1.00082285e+00
1.00087601e+00
1.00093120e+00
1.00098827e+00
1.00104711e+00
1.00110757e+00
1.00116955e+00
1.00123291e+00
1.00129753e+00
1.00136331e+00
1.00143014e+00
1.00149791e+00
1.00156653e+00
1.00163592e+00
1.00170597e+00
1.00177661e+00
1.00184777e+00
1.00191936e+00
1.00199132e+00
1.00206356e+00
1.00213601e+00
1.00220860e+00
1.00228125e+00
1.00235387e+00
1.00242638e+00
1.00249868e+00
1.00257067e+00
1.00264225e+00
1.00271331e+00
1.00278372e+00
1.00285336e+00
1.00292211e+00
1.00298983e+00
1.00305639e+00
1.00312164e+00
1.00318546e+00
1.00324772e+00
1.00330828e+00
1.00336703e+00
1.00342385e+00
1.00347865e+00
1.00353132e+00
1.00358180e+00
1.00363002e+00
1.00367594e+00
1.00371951e+00
1.00376074e+00
1.00379962e+00
1.00383616e+00
1.00387038e+00
1.00390235e+00
1.00393212e+00
1.00395974e+00
1.00398529e+00
1.00400889e+00
1.00403060e+00
1.00405047e+00
1.00406867e+00
1.00408533e+00
1.00410042e+00
1.00411407e+00
1.00412653e+00
1.00413779e+00
1.00414772e+00
1.00415667e+00
1.00416494e+00
1.00417205e+00
1.00417797e+00
1.00418365e+00
1.00418901e+00
1.00419242e+00
1.00419508e+00
1.00419902e+00
1.00420174e+00
1.00419792e+00
1.00419850e+00
1.00085711e+00
1.00085615e+00
1.00085553e+00
1.00084679e+00
1.00083640e+00
1.00082739e+00
1.00081570e+00
1.00080110e+00
1.00078586e+00
1.00076969e+00
1.00075156e+00
1.00073215e+00
1.00071208e+00
1.00069100e+00
1.00066888e+00
1.00064622e+00
1.00062317e+00
1.00059967e+00
1.00057597e+00
1.00055237e+00
1.00052897e+00
1.00050591e+00
1.00048346e+00
1.00046183e+00
1.00044117e+00
1.00042168e+00
1.00040359e+00
1.00038709e+00
1.00037234e+00
1.00035955e+00
1.00034888e+00
1.00034050e+00
1.00033456e+00
1.00033119e+00
1.00033053e+00
1.00033268e+00
1.00033773e+00
1.00034576e+00
1.00035684e+00
1.00037100e+00
1.00038826e+00
1.00040864e+00
1.00043213e+00
1.00045869e+00
1.00048830e+00
1.00052088e+00
1.00055638e+00
1.00059471e+00
1.00063577e+00
1.00067947e+00
1.00072569e+00
1.00077432e+00
1.00082523e+00
1.00087829e+00
1.00093338e+00
1.00099037e+00
1.00104913e+00
1.00110952e+00
1.00117143e+00
1.00123473e+00
1.00129930e+00
1.00136504e+00
1.00143183e+00
1.00149957e+00
1.00156816e+00
1.00163752e+00
1.00170755e+00
1.00177818e+00
1.00184931e+00
1.00192088e+00
1.00199281e+00
1.00206502e+00
1.00213744e+00
1.00220999e+00
1.00228258e+00
1.00235515e+00
1.00242758e+00
1.00249980e+00
1.00257170e+00
1.00264317e+00
1.00271411e+00
1.00278439e+00
1.00285389e+00
1.00292249e+00
1.00299005e+00
1.00305643e+00
1.00312151e+00
1.00318515e+00
1.00324722e+00
1.00330759e+00
1.00336615e+00
1.00342279e+00
1.00347740e+00
1.00352989e+00
1.00358020e+00
1.00362827e+00
1.00367402e+00
1.00371747e+00
1.00375858e+00
1.00379733e+00
1.00383376e+00
1.00386793e+00
1.00389985e+00
1.00392954e+00
1.00395713e+00
1.00398272e+00
1.00400628e+00
1.00402794e+00
1.00404792e+00
1.00406623e+00
1.00408278e+00
1.00409792e+00
1.00411189e+00
1.00412433e+00
1.00413534e+00
1.00414568e+00
1.00415511e+00
1.00416277e+00
1.00416970e+00
1.00417698e+00
1.00418257e+00
1.00418591e+00
1.00419072e+00
1.00419636e+00
1.00419654e+00
1.00419558e+00
1.00420185e+00
1.00420487e+00
1.00085712e+00
1.00085478e+00
1.00085100e+00
1.00084385e+00
1.00083554e+00
1.00082547e+00
1.00081346e+00
1.00079990e+00
1.00078495e+00
1.00076853e+00
1.00075081e+00
1.00073190e+00
1.00071192e+00
1.00069100e+00
1.00066928e+00
1.00064690e+00
1.00062401e+00
1.00060080e+00
1.00057741e+00
1.00055403e+00
1.00053086e+00
1.00050807e+00
1.00048587e+00
1.00046444e+00
1.00044400e+00
1.00042473e+00
1.00040683e+00
1.00039049e+00
1.00037592e+00
1.00036327e+00
1.00035274e+00
1.00034447e+00
1.00033863e+00
1.00033534e+00
1.00033474e+00
1.00033693e+00
1.00034201e+00
1.00035005e+00
1.00036113e+00
1.00037526e+00
1.00039250e+00
1.00041283e+00
1.00043626e+00
1.00046276e+00
1.00049229e+00
1.00052480e+00
1.00056021e+00
1.00059845e+00
1.00063942e+00
1.00068302e+00
1.00072915e+00
1.00077769e+00
1.00082851e+00
1.00088150e+00
1.00093651e+00
1.00099343e+00
1.00105212e+00
1.00111246e+00
1.00117431e+00
1.00123757e+00
1.00130210e+00
1.00136781e+00
1.00143457e+00
1.00150229e+00
1.00157086e+00
1.00164020e+00
1.00171021e+00
1.00178081e+00
1.00185192e+00
1.00192346e+00
1.00199535e+00
1.00206751e+00
1.00213987e+00
1.00221235e+00
1.00228487e+00
1.00235733e+00
1.00242966e+00
1.00250175e+00
1.00257350e+00
1.00264482e+00
1.00271558e+00
1.00278567e+00
1.00285497e+00
1.00292334e+00
1.00299067e+00
1.00305681e+00
1.00312164e+00
1.00318502e+00
1.00324683e+00
1.00330695e+00
1.00336525e+00
1.00342162e+00
1.00347598e+00
1.00352824e+00
1.00357831e+00
1.00362615e+00
1.00367171e+00
1.00371496e+00
1.00375588e+00
1.00379449e+00
1.00383080e+00
1.00386483e+00
1.00389664e+00
1.00392628e+00
1.00395382e+00
1.00397932e+00
1.00400288e+00
1.00402459e+00
1.00404454e+00
1.00406281e+00
1.00407952e+00
1.00409475e+00
1.00410859e+00
1.00412115e+00
1.00413251e+00
1.00414273e+00
1.00415192e+00
1.00416015e+00
1.00416743e+00
1.00417389e+00
1.00417962e+00
1.00418447e+00
1.00418855e+00
1.00419215e+00
1.00419489e+00
1.00419649e+00
1.00419934e+00
1.00420035e+00
1.00085571e+00
1.00085257e+00
1.00084650e+00
1.00084145e+00
1.00083423e+00
1.00082291e+00
1.00081096e+00
1.00079852e+00
1.00078373e+00
1.00076713e+00
1.00074986e+00
1.00073149e+00
1.00071166e+00
1.00069095e+00
1.00066968e+00
1.00064764e+00
1.00062498e+00
1.00060209e+00
1.00057908e+00
1.00055598e+00
1.00053308e+00
1.00051062e+00
1.00048871e+00
1.00046754e+00
1.00044735e+00
1.00042834e+00
1.00041067e+00
1.00039455e+00
1.00038017e+00
1.00036771e+00
1.00035733e+00
1.00034921e+00
1.00034348e+00
1.00034030e+00
1.00033977e+00
1.00034203e+00
1.00034715e+00
1.00035521e+00
1.00036629e+00
1.00038042e+00
1.00039762e+00
1.00041792e+00
1.00044129e+00
1.00046773e+00
1.00049718e+00
1.00052961e+00
1.00056493e+00
1.00060308e+00
1.00064396e+00
1.00068748e+00
1.00073351e+00
1.00078196e+00
1.00083270e+00
1.00088560e+00
1.00094055e+00
1.00099740e+00
1.00105603e+00
1.00111631e+00
1.00117812e+00
1.00124134e+00
1.00130584e+00
1.00137152e+00
1.00143826e+00
1.00150596e+00
1.00157451e+00
1.00164383e+00
1.00171382e+00
1.00178440e+00
1.00185548e+00
1.00192699e+00
1.00199883e+00
1.00207093e+00
1.00214322e+00
1.00221561e+00
1.00228802e+00
1.00236036e+00
1.00243254e+00
1.00250446e+00
1.00257603e+00
1.00264714e+00
1.00271767e+00
1.00278751e+00
1.00285654e+00
1.00292464e+00
1.00299166e+00
1.00305749e+00
1.00312200e+00
1.00318505e+00
1.00324652e+00
1.00330630e+00
1.00336425e+00
1.00342030e+00
1.00347433e+00
1.00352626e+00
1.00357603e+00
1.00362358e+00
1.00366887e+00
1.00371186e+00
1.00375255e+00
1.00379095e+00
1.00382708e+00
1.00386093e+00
1.00389259e+00
1.00392214e+00
1.00394959e+00
1.00397499e+00
1.00399852e+00
1.00402026e+00
1.00404015e+00
1.00405839e+00
1.00407523e+00
1.00409054e+00
1.00410427e+00
1.00411694e+00
1.00412863e+00
1.00413877e+00
1.00414774e+00
1.00415648e+00
1.00416418e+00
1.00416991e+00
1.00417557e+00
1.00418191e+00
1.00418572e+00
1.00418733e+00
1.00419185e+00
1.00419603e+00
1.00419524e+00
1.00419591e+00
1.00085179e+00
1.00084956e+00
1.00084521e+00
1.00083877e+00
1.00083025e+00
1.00082062e+00
1.00080950e+00
1.00079625e+00
1.00078167e+00
1.00076605e+00
1.00074897e+00
1.00073058e+00
1.00071130e+00
1.00069112e+00
1.00067004e+00
1.00064832e+00
1.00062617e+00
1.00060364e+00
1.00058090e+00
1.00055820e+00
1.00053570e+00
1.00051353e+00
1.00049194e+00
1.00047111e+00
1.00045123e+00
1.00043249e+00
1.00041509e+00
1.00039922e+00
1.00038507e+00
1.00037281e+00
1.00036262e+00
1.00035465e+00
1.00034907e+00
1.00034600e+00
1.00034557e+00
1.00034789e+00
1.00035306e+00
1.00036116e+00
1.00037225e+00
1.00038637e+00
1.00040355e+00
1.00042380e+00
1.00044712e+00
1.00047350e+00
1.00050288e+00
1.00053522e+00
1.00057046e+00
1.00060851e+00
1.00064930e+00
1.00069272e+00
1.00073867e+00
1.00078703e+00
1.00083769e+00
1.00089051e+00
1.00094538e+00
1.00100217e+00
1.00106075e+00
1.00112098e+00
1.00118275e+00
1.00124594e+00
1.00131042e+00
1.00137607e+00
1.00144280e+00
1.00151048e+00
1.00157903e+00
1.00164833e+00
1.00171831e+00
1.00178887e+00
1.00185992e+00
1.00193138e+00
1.00200317e+00
1.00207521e+00
1.00214741e+00
1.00221969e+00
1.00229197e+00
1.00236416e+00
1.00243617e+00
1.00250789e+00
1.00257924e+00
1.00265009e+00
1.00272035e+00
1.00278989e+00
1.00285860e+00
1.00292635e+00
1.00299302e+00
1.00305847e+00
1.00312259e+00
1.00318524e+00
1.00324630e+00
1.00330567e+00
1.00336322e+00
1.00341885e+00
1.00347248e+00
1.00352403e+00
1.00357343e+00
1.00362062e+00
1.00366556e+00
1.00370824e+00
1.00374864e+00
1.00378677e+00
1.00382264e+00
1.00385631e+00
1.00388780e+00
1.00391715e+00
1.00394447e+00
1.00396983e+00
1.00399326e+00
1.00401487e+00
1.00403482e+00
1.00405312e+00
1.00406983e+00
1.00408515e+00
1.00409918e+00
1.00411182e+00
1.00412325e+00
1.00413378e+00
1.00414322e+00
1.00415140e+00
1.00415891e+00
1.00416590e+00
1.00417159e+00
1.00417625e+00
1.00418100e+00
1.00418502e+00
1.00418761e+00
1.00418982e+00
1.00419183e+00
1.00419403e+00
1.00084870e+00
1.00084607e+00
1.00084255e+00
1.00083562e+00
1.00082711e+00
1.00081825e+00
1.00080710e+00
1.00079382e+00
1.00077984e+00
1.00076467e+00
1.00074775e+00
1.00072972e+00
1.00071095e+00
1.00069116e+00
1.00067042e+00
1.00064914e+00
1.00062744e+00
1.00060529e+00
1.00058295e+00
1.00056068e+00
1.00053857e+00
1.00051678e+00
1.00049555e+00
1.00047509e+00
1.00045554e+00
1.00043711e+00
1.00042002e+00
1.00040443e+00
1.00039053e+00
1.00037850e+00
1.00036852e+00
1.00036073e+00
1.00035530e+00
1.00035236e+00
1.00035204e+00
1.00035445e+00
1.00035968e+00
1.00036781e+00
1.00037892e+00
1.00039303e+00
1.00041019e+00
1.00043041e+00
1.00045368e+00
1.00047998e+00
1.00050929e+00
1.00054155e+00
1.00057670e+00
1.00061467e+00
1.00065536e+00
1.00069869e+00
1.00074454e+00
1.00079281e+00
1.00084339e+00
1.00089613e+00
1.00095094e+00
1.00100766e+00
1.00106618e+00
1.00112638e+00
1.00118811e+00
1.00125127e+00
1.00131573e+00
1.00138137e+00
1.00144808e+00
1.00151576e+00
1.00158430e+00
1.00165359e+00
1.00172356e+00
1.00179409e+00
1.00186511e+00
1.00193653e+00
1.00200826e+00
1.00208021e+00
1.00215232e+00
1.00222448e+00
1.00229661e+00
1.00236863e+00
1.00244043e+00
1.00251192e+00
1.00258301e+00
1.00265357e+00
1.00272351e+00
1.00279271e+00
1.00286104e+00
1.00292839e+00
1.00299464e+00
1.00305965e+00
1.00312332e+00
1.00318550e+00
1.00324609e+00
1.00330498e+00
1.00336205e+00
1.00341721e+00
1.00347037e+00
1.00352146e+00
1.00357042e+00
1.00361719e+00
1.00366174e+00
1.00370404e+00
1.00374410e+00
1.00378191e+00
1.00381749e+00
1.00385090e+00
1.00388218e+00
1.00391133e+00
1.00393848e+00
1.00396372e+00
1.00398706e+00
1.00400858e+00
1.00402849e+00
1.00404681e+00
1.00406350e+00
1.00407879e+00
1.00409293e+00
1.00410569e+00
1.00411706e+00
1.00412764e+00
1.00413740e+00
1.00414563e+00
1.00415291e+00
1.00416022e+00
1.00416638e+00
1.00417065e+00
1.00417527e+00
1.00418024e+00
1.00418248e+00
1.00418403e+00
1.00418751e+00
1.00418932e+00
1.00084661e+00
1.00084338e+00
1.00083841e+00
1.00083236e+00
1.00082483e+00
1.00081506e+00
1.00080385e+00
1.00079179e+00
1.00077806e+00
1.00076265e+00
1.00074634e+00
1.00072905e+00
1.00071048e+00
1.00069098e+00
1.00067088e+00
1.00065009e+00
1.00062870e+00
1.00060703e+00
1.00058523e+00
1.00056336e+00
1.00054164e+00
1.00052030e+00
1.00049950e+00
1.00047940e+00
1.00046022e+00
1.00044216e+00
1.00042539e+00
1.00041009e+00
1.00039648e+00
1.00038471e+00
1.00037494e+00
1.00036736e+00
1.00036210e+00
1.00035931e+00
1.00035911e+00
1.00036161e+00
1.00036691e+00
1.00037509e+00
1.00038621e+00
1.00040033e+00
1.00041747e+00
1.00043765e+00
1.00046087e+00
1.00048712e+00
1.00051635e+00
1.00054853e+00
1.00058359e+00
1.00062146e+00
1.00066206e+00
1.00070529e+00
1.00075105e+00
1.00079923e+00
1.00084972e+00
1.00090240e+00
1.00095713e+00
1.00101380e+00
1.00107227e+00
1.00113242e+00
1.00119413e+00
1.00125726e+00
1.00132170e+00
1.00138733e+00
1.00145404e+00
1.00152171e+00
1.00159024e+00
1.00165953e+00
1.00172948e+00
1.00179999e+00
1.00187097e+00
1.00194234e+00
1.00201400e+00
1.00208587e+00
1.00215786e+00
1.00222988e+00
1.00230185e+00
1.00237366e+00
1.00244524e+00
1.00251647e+00
1.00258726e+00
1.00265750e+00
1.00272707e+00
1.00279588e+00
1.00286379e+00
1.00293070e+00
1.00299647e+00
1.00306099e+00
1.00312414e+00
1.00318580e+00
1.00324586e+00
1.00330420e+00
1.00336073e+00
1.00341536e+00
1.00346800e+00
1.00351858e+00
1.00356703e+00
1.00361333e+00
1.00365743e+00
1.00369930e+00
1.00373896e+00
1.00377641e+00
1.00381168e+00
1.00384477e+00
1.00387577e+00
1.00390474e+00
1.00393171e+00
1.00395673e+00
1.00397998e+00
1.00400149e+00
1.00402125e+00
1.00403947e+00
1.00405631e+00
1.00407166e+00
1.00408558e+00
1.00409845e+00
1.00411026e+00
1.00412066e+00
1.00413006e+00
1.00413898e+00
1.00414676e+00
1.00415314e+00
1.00415928e+00
1.00416516e+00
1.00416938e+00
1.00417271e+00
1.00417642e+00
1.00417940e+00
1.00418083e+00
1.00418184e+00
1.00084315e+00
1.00083993e+00
1.00083491e+00
1.00082900e+00
1.00082142e+00
1.00081177e+00
1.00080110e+00
1.00078927e+00
1.00077565e+00
1.00076077e+00
1.00074500e+00
1.00072800e+00
1.00070984e+00
1.00069091e+00
1.00067129e+00
1.00065093e+00
1.00063005e+00
1.00060890e+00
1.00058756e+00
1.00056615e+00
1.00054492e+00
1.00052405e+00
1.00050367e+00
1.00048399e+00
1.00046522e+00
1.00044754e+00
1.00043112e+00
1.00041616e+00
1.00040285e+00
1.00039135e+00
1.00038183e+00
1.00037447e+00
1.00036940e+00
1.00036677e+00
1.00036670e+00
1.00036931e+00
1.00037469e+00
1.00038292e+00
1.00039407e+00
1.00040820e+00
1.00042532e+00
1.00044547e+00
1.00046864e+00
1.00049482e+00
1.00052398e+00
1.00055607e+00
1.00059104e+00
1.00062882e+00
1.00066932e+00
1.00071246e+00
1.00075813e+00
1.00080622e+00
1.00085663e+00
1.00090922e+00
1.00096389e+00
1.00102050e+00
1.00107892e+00
1.00113903e+00
1.00120071e+00
1.00126382e+00
1.00132824e+00
1.00139386e+00
1.00146057e+00
1.00152823e+00
1.00159676e+00
1.00166604e+00
1.00173597e+00
1.00180645e+00
1.00187740e+00
1.00194871e+00
1.00202029e+00
1.00209206e+00
1.00216393e+00
1.00223579e+00
1.00230757e+00
1.00237917e+00
1.00245048e+00
1.00252142e+00
1.00259188e+00
1.00266175e+00
1.00273093e+00
1.00279930e+00
1.00286674e+00
1.00293315e+00
1.00299839e+00
1.00306237e+00
1.00312495e+00
1.00318603e+00
1.00324549e+00
1.00330324e+00
1.00335917e+00
1.00341320e+00
1.00346525e+00
1.00351526e+00
1.00356317e+00
1.00360893e+00
1.00365253e+00
1.00369393e+00
1.00373315e+00
1.00377019e+00
1.00380509e+00
1.00383786e+00
1.00386856e+00
1.00389727e+00
1.00392404e+00
1.00394890e+00
1.00397198e+00
1.00399339e+00
1.00401312e+00
1.00403127e+00
1.00404805e+00
1.00406348e+00
1.00407748e+00
1.00409029e+00
1.00410216e+00
1.00411283e+00
1.00412227e+00
1.00413105e+00
1.00413913e+00
1.00414584e+00
1.00415177e+00
1.00415764e+00
1.00416232e+00
1.00416564e+00
1.00416930e+00
1.00417239e+00
1.00417370e+00
1.00417512e+00
1.00083915e+00
1.00083609e+00
1.00083170e+00
1.00082527e+00
1.00081736e+00
1.00080860e+00
1.00079830e+00
1.00078617e+00
1.00077305e+00
1.00075898e+00
1.00074340e+00
1.00072665e+00
1.00070920e+00
1.00069085e+00
1.00067156e+00
1.00065171e+00
1.00063148e+00
1.00061081e+00
1.00058992e+00
1.00056907e+00
1.00054836e+00
1.00052793e+00
1.00050802e+00
1.00048882e+00
1.00047048e+00
1.00045318e+00
1.00043715e+00
1.00042255e+00
1.00040955e+00
1.00039835e+00
1.00038911e+00
1.00038198e+00
1.00037712e+00
1.00037466e+00
1.00037474e+00
1.00037746e+00
1.00038293e+00
1.00039122e+00
1.00040241e+00
1.00041655e+00
1.00043366e+00
1.00045378e+00
1.00047691e+00
1.00050303e+00
1.00053211e+00
1.00056412e+00
1.00059900e+00
1.00063668e+00
1.00067709e+00
1.00072013e+00
1.00076570e+00
1.00081371e+00
1.00086403e+00
1.00091655e+00
1.00097114e+00
1.00102769e+00
1.00108607e+00
1.00114614e+00
1.00120778e+00
1.00127087e+00
1.00133528e+00
1.00140090e+00
1.00146759e+00
1.00153526e+00
1.00160378e+00
1.00167305e+00
1.00174296e+00
1.00181341e+00
1.00188431e+00
1.00195556e+00
1.00202706e+00
1.00209871e+00
1.00217044e+00
1.00224213e+00
1.00231370e+00
1.00238505e+00
1.00245609e+00
1.00252671e+00
1.00259681e+00
1.00266628e+00
1.00273501e+00
1.00280291e+00
1.00286984e+00
1.00293570e+00
1.00300038e+00
1.00306375e+00
1.00312571e+00
1.00318616e+00
1.00324497e+00
1.00330207e+00
1.00335735e+00
1.00341074e+00
1.00346215e+00
1.00351154e+00
1.00355885e+00
1.00360403e+00
1.00364707e+00
1.00368797e+00
1.00372672e+00
1.00376331e+00
1.00379779e+00
1.00383023e+00
1.00386062e+00
1.00388902e+00
1.00391554e+00
1.00394027e+00
1.00396318e+00
1.00398439e+00
1.00400411e+00
1.00402230e+00
1.00403893e+00
1.00405430e+00
1.00406855e+00
1.00408143e+00
1.00409304e+00
1.00410393e+00
1.00411388e+00
1.00412240e+00
1.00413017e+00
1.00413770e+00
1.00414396e+00
1.00414891e+00
1.00415391e+00
1.00415847e+00
1.00416139e+00
1.00416365e+00
1.00416622e+00
1.00416806e+00
1.00083548e+00
1.00083209e+00
1.00082753e+00
1.00082131e+00
1.00081374e+00
1.00080502e+00
1.00079477e+00
1.00078320e+00
1.00077059e+00
1.00075667e+00
1.00074152e+00
1.00072545e+00
1.00070845e+00
1.00069049e+00
1.00067180e+00
1.00065257e+00
1.00063281e+00
1.00061266e+00
1.00059236e+00
1.00057205e+00
1.00055184e+00
1.00053193e+00
1.00051253e+00
1.00049379e+00
1.00047589e+00
1.00045904e+00
1.00044341e+00
1.00042918e+00
1.00041653e+00
1.00040565e+00
1.00039669e+00
1.00038981e+00
1.00038517e+00
1.00038291e+00
1.00038314e+00
1.00038599e+00
1.00039156e+00
1.00039992e+00
1.00041115e+00
1.00042531e+00
1.00044242e+00
1.00046252e+00
1.00048560e+00
1.00051166e+00
1.00054067e+00
1.00057260e+00
1.00060739e+00
1.00064497e+00
1.00068528e+00
1.00072822e+00
1.00077370e+00
1.00082161e+00
1.00087185e+00
1.00092429e+00
1.00097881e+00
1.00103530e+00
1.00109363e+00
1.00115366e+00
1.00121527e+00
1.00127834e+00
1.00134273e+00
1.00140834e+00
1.00147503e+00
1.00154268e+00
1.00161120e+00
1.00168045e+00
1.00175034e+00
1.00182076e+00
1.00189161e+00
1.00196278e+00
1.00203418e+00
1.00210571e+00
1.00217728e+00
1.00224879e+00
1.00232013e+00
1.00239122e+00
1.00246194e+00
1.00253221e+00
1.00260192e+00
1.00267095e+00
1.00273921e+00
1.00280659e+00
1.00287297e+00
1.00293824e+00
1.00300229e+00
1.00306502e+00
1.00312632e+00
1.00318607e+00
1.00324420e+00
1.00330059e+00
1.00335516e+00
1.00340785e+00
1.00345858e+00
1.00350730e+00
1.00355396e+00
1.00359853e+00
1.00364098e+00
1.00368132e+00
1.00371954e+00
1.00375567e+00
1.00378973e+00
1.00382175e+00
1.00385181e+00
1.00387994e+00
1.00390619e+00
1.00393068e+00
1.00395346e+00
1.00397458e+00
1.00399413e+00
1.00401228e+00
1.00402900e+00
1.00404433e+00
1.00405849e+00
1.00407156e+00
1.00408338e+00
1.00409413e+00
1.00410411e+00
1.00411308e+00
1.00412094e+00
1.00412818e+00
1.00413475e+00
1.00414020e+00
1.00414499e+00
1.00414936e+00
1.00415265e+00
1.00415525e+00
1.00415764e+00
1.00415909e+00
1.00083162e+00
1.00082805e+00
1.00082306e+00
1.00081716e+00
1.00080995e+00
1.00080108e+00
1.00079109e+00
1.00078019e+00
1.00076781e+00
1.00075411e+00
1.00073961e+00
1.00072412e+00
1.00070746e+00
1.00069004e+00
1.00067203e+00
1.00065331e+00
1.00063404e+00
1.00061451e+00
1.00059482e+00
1.00057501e+00
1.00055533e+00
1.00053599e+00
1.00051711e+00
1.00049884e+00
1.00048142e+00
1.00046503e+00
1.00044982e+00
1.00043598e+00
1.00042370e+00
1.00041316e+00
1.00040449e+00
1.00039789e+00
1.00039349e+00
1.00039142e+00
1.00039183e+00
1.00039482e+00
1.00040049e+00
1.00040893e+00
1.00042021e+00
1.00043439e+00
1.00045151e+00
1.00047158e+00
1.00049463e+00
1.00052063e+00
1.00054957e+00
1.00058142e+00
1.00061612e+00
1.00065361e+00
1.00069382e+00
1.00073666e+00
1.00078204e+00
1.00082986e+00
1.00088001e+00
1.00093237e+00
1.00098683e+00
1.00104325e+00
1.00110153e+00
1.00116152e+00
1.00122310e+00
1.00128614e+00
1.00135052e+00
1.00141611e+00
1.00148279e+00
1.00155044e+00
1.00161894e+00
1.00168817e+00
1.00175804e+00
1.00182841e+00
1.00189920e+00
1.00197029e+00
1.00204159e+00
1.00211298e+00
1.00218438e+00
1.00225568e+00
1.00232678e+00
1.00239758e+00
1.00246797e+00
1.00253787e+00
1.00260715e+00
1.00267572e+00
1.00274347e+00
1.00281029e+00
1.00287608e+00
1.00294073e+00
1.00300412e+00
1.00306616e+00
1.00312674e+00
1.00318577e+00
1.00324315e+00
1.00329879e+00
1.00335262e+00
1.00340457e+00
1.00345457e+00
1.00350258e+00
1.00354855e+00
1.00359245e+00
1.00363429e+00
1.00367404e+00
1.00371171e+00
1.00374734e+00
1.00378095e+00
1.00381255e+00
1.00384223e+00
1.00387007e+00
1.00389607e+00
1.00392030e+00
1.00394290e+00
1.00396395e+00
1.00398340e+00
1.00400140e+00
1.00401817e+00
1.00403361e+00
1.00404767e+00
1.00406072e+00
1.00407286e+00
1.00408371e+00
1.00409348e+00
1.00410272e+00
1.00411105e+00
1.00411804e+00
1.00412451e+00
1.00413066e+00
1.00413550e+00
1.00413933e+00
1.00414313e+00
1.00414624e+00
1.00414798e+00
1.00414932e+00
1.00082709e+00
1.00082357e+00
1.00081879e+00
1.00081279e+00
1.00080555e+00
1.00079710e+00
1.00078753e+00
1.00077672e+00
1.00076468e+00
1.00075166e+00
1.00073758e+00
1.00072241e+00
1.00070638e+00
1.00068960e+00
1.00067205e+00
1.00065386e+00
1.00063526e+00
1.00061632e+00
1.00059714e+00
1.00057792e+00
1.00055885e+00
1.00054004e+00
1.00052166e+00
1.00050394e+00
1.00048702e+00
1.00047108e+00
1.00045630e+00
1.00044289e+00
1.00043099e+00
1.00042078e+00
1.00041244e+00
1.00040612e+00
1.00040197e+00
1.00040012e+00
1.00040071e+00
1.00040385e+00
1.00040964e+00
1.00041817e+00
1.00042952e+00
1.00044373e+00
1.00046085e+00
1.00048091e+00
1.00050392e+00
1.00052987e+00
1.00055875e+00
1.00059051e+00
1.00062513e+00
1.00066252e+00
1.00070263e+00
1.00074538e+00
1.00079066e+00
1.00083838e+00
1.00088844e+00
1.00094072e+00
1.00099510e+00
1.00105147e+00
1.00110968e+00
1.00116963e+00
1.00123117e+00
1.00129419e+00
1.00135855e+00
1.00142412e+00
1.00149079e+00
1.00155842e+00
1.00162691e+00
1.00169612e+00
1.00176594e+00
1.00183627e+00
1.00190699e+00
1.00197799e+00
1.00204917e+00
1.00212042e+00
1.00219163e+00
1.00226270e+00
1.00233354e+00
1.00240403e+00
1.00247407e+00
1.00254356e+00
1.00261239e+00
1.00268047e+00
1.00274768e+00
1.00281391e+00
1.00287907e+00
1.00294305e+00
1.00300574e+00
1.00306705e+00
1.00312687e+00
1.00318513e+00
1.00324172e+00
1.00329657e+00
1.00334961e+00
1.00340077e+00
1.00345000e+00
1.00349726e+00
1.00354250e+00
1.00358571e+00
1.00362688e+00
1.00366602e+00
1.00370312e+00
1.00373820e+00
1.00377133e+00
1.00380252e+00
1.00383182e+00
1.00385930e+00
1.00388504e+00
1.00390908e+00
1.00393147e+00
1.00395234e+00
1.00397177e+00
1.00398975e+00
1.00400638e+00
1.00402185e+00
1.00403613e+00
1.00404917e+00
1.00406121e+00
1.00407236e+00
1.00408242e+00
1.00409148e+00
1.00409986e+00
1.00410740e+00
1.00411393e+00
1.00411978e+00
1.00412496e+00
1.00412926e+00
1.00413285e+00
1.00413573e+00
1.00413790e+00
1.00413954e+00
1.00082248e+00
1.00081890e+00
1.00081426e+00
1.00080821e+00
1.00080104e+00
1.00079299e+00
1.00078367e+00
1.00077305e+00
1.00076152e+00
1.00074901e+00
1.00073527e+00
1.00072060e+00
1.00070521e+00
1.00068895e+00
1.00067190e+00
1.00065435e+00
1.00063637e+00
1.00061797e+00
1.00059937e+00
1.00058078e+00
1.00056228e+00
1.00054400e+00
1.00052619e+00
1.00050901e+00
1.00049258e+00
1.00047712e+00
1.00046281e+00
1.00044982e+00
1.00043831e+00
1.00042847e+00
1.00042046e+00
1.00041444e+00
1.00041054e+00
1.00040893e+00
1.00040971e+00
1.00041301e+00
1.00041893e+00
1.00042756e+00
1.00043897e+00
1.00045322e+00
1.00047036e+00
1.00049041e+00
1.00051339e+00
1.00053929e+00
1.00056811e+00
1.00059980e+00
1.00063432e+00
1.00067163e+00
1.00071164e+00
1.00075429e+00
1.00079947e+00
1.00084710e+00
1.00089707e+00
1.00094926e+00
1.00100357e+00
1.00105986e+00
1.00111802e+00
1.00117792e+00
1.00123942e+00
1.00130241e+00
1.00136674e+00
1.00143229e+00
1.00149894e+00
1.00156656e+00
1.00163502e+00
1.00170420e+00
1.00177399e+00
1.00184426e+00
1.00191490e+00
1.00198580e+00
1.00205685e+00
1.00212793e+00
1.00219895e+00
1.00226978e+00
1.00234034e+00
1.00241050e+00
1.00248017e+00
1.00254923e+00
1.00261759e+00
1.00268514e+00
1.00275178e+00
1.00281740e+00
1.00288189e+00
1.00294517e+00
1.00300712e+00
1.00306767e+00
1.00312670e+00
1.00318414e+00
1.00323991e+00
1.00329394e+00
1.00334615e+00
1.00339649e+00
1.00344492e+00
1.00349138e+00
1.00353587e+00
1.00357836e+00
1.00361884e+00
1.00365732e+00
1.00369383e+00
1.00372838e+00
1.00376098e+00
1.00379173e+00
1.00382066e+00
1.00384779e+00
1.00387322e+00
1.00389705e+00
1.00391928e+00
1.00393997e+00
1.00395929e+00
1.00397730e+00
1.00399391e+00
1.00400930e+00
1.00402369e+00
1.00403691e+00
1.00404892e+00
1.00406011e+00
1.00407049e+00
1.00407969e+00
1.00408798e+00
1.00409579e+00
1.00410264e+00
1.00410837e+00
1.00411364e+00
1.00411836e+00
1.00412187e+00
1.00412463e+00
1.00412718e+00
1.00412886e+00
1.00081787e+00
1.00081410e+00
1.00080928e+00
1.00080346e+00
1.00079659e+00
1.00078857e+00
1.00077947e+00
1.00076940e+00
1.00075825e+00
1.00074599e+00
1.00073280e+00
1.00071877e+00
1.00070381e+00
1.00068803e+00
1.00067166e+00
1.00065472e+00
1.00063724e+00
1.00061946e+00
1.00060152e+00
1.00058349e+00
1.00056554e+00
1.00054787e+00
1.00053063e+00
1.00051396e+00
1.00049805e+00
1.00048310e+00
1.00046925e+00
1.00045669e+00
1.00044559e+00
1.00043613e+00
1.00042846e+00
1.00042274e+00
1.00041913e+00
1.00041775e+00
1.00041874e+00
1.00042221e+00
1.00042828e+00
1.00043701e+00
1.00044850e+00
1.00046280e+00
1.00047996e+00
1.00050001e+00
1.00052297e+00
1.00054883e+00
1.00057758e+00
1.00060920e+00
1.00064364e+00
1.00068085e+00
1.00072077e+00
1.00076331e+00
1.00080840e+00
1.00085593e+00
1.00090581e+00
1.00095792e+00
1.00101214e+00
1.00106837e+00
1.00112646e+00
1.00118630e+00
1.00124776e+00
1.00131071e+00
1.00137501e+00
1.00144054e+00
1.00150716e+00
1.00157475e+00
1.00164318e+00
1.00171233e+00
1.00178207e+00
1.00185227e+00
1.00192283e+00
1.00199362e+00
1.00206452e+00
1.00213543e+00
1.00220623e+00
1.00227681e+00
1.00234707e+00
1.00241688e+00
1.00248615e+00
1.00255477e+00
1.00262263e+00
1.00268963e+00
1.00275567e+00
1.00282064e+00
1.00288444e+00
1.00294698e+00
1.00300817e+00
1.00306791e+00
1.00312611e+00
1.00318271e+00
1.00323762e+00
1.00329077e+00
1.00334212e+00
1.00339160e+00
1.00343919e+00
1.00348484e+00
1.00352854e+00
1.00357027e+00
1.00361004e+00
1.00364785e+00
1.00368373e+00
1.00371771e+00
1.00374982e+00
1.00378008e+00
1.00380860e+00
1.00383541e+00
1.00386055e+00
1.00388409e+00
1.00390616e+00
1.00392678e+00
1.00394595e+00
1.00396386e+00
1.00398058e+00
1.00399603e+00
1.00401032e+00
1.00402366e+00
1.00403598e+00
1.00404718e+00
1.00405751e+00
1.00406708e+00
1.00407566e+00
1.00408330e+00
1.00409030e+00
1.00409653e+00
1.00410181e+00
1.00410632e+00
1.00411017e+00
1.00411329e+00
1.00411560e+00
1.00411715e+00
1.00081295e+00
1.00080914e+00
1.00080426e+00
1.00079855e+00
1.00079184e+00
1.00078400e+00
1.00077522e+00
1.00076552e+00
1.00075470e+00
1.00074288e+00
1.00073023e+00
1.00071666e+00
1.00070218e+00
1.00068702e+00
1.00067124e+00
1.00065483e+00
1.00063796e+00
1.00062081e+00
1.00060345e+00
1.00058600e+00
1.00056866e+00
1.00055158e+00
1.00053488e+00
1.00051875e+00
1.00050338e+00
1.00048893e+00
1.00047555e+00
1.00046344e+00
1.00045277e+00
1.00044369e+00
1.00043637e+00
1.00043098e+00
1.00042765e+00
1.00042652e+00
1.00042773e+00
1.00043138e+00
1.00043759e+00
1.00044645e+00
1.00045802e+00
1.00047238e+00
1.00048957e+00
1.00050962e+00
1.00053256e+00
1.00055839e+00
1.00058709e+00
1.00061864e+00
1.00065300e+00
1.00069012e+00
1.00072994e+00
1.00077239e+00
1.00081737e+00
1.00086480e+00
1.00091458e+00
1.00096660e+00
1.00102075e+00
1.00107689e+00
1.00113492e+00
1.00119471e+00
1.00125612e+00
1.00131902e+00
1.00138328e+00
1.00144878e+00
1.00151537e+00
1.00158293e+00
1.00165132e+00