# vtk DataFile Version 2.0
LBM Flow Field - Timestep 4120
ASCII
DATASET STRUCTURED_POINTS
DIMENSIONS 128 128 1
ORIGIN 0.0 0.0 0.0
SPACING 1.0 1.0 1.0
POINT_DATA 16384
SCALARS density double 1
LOOKUP_TABLE default
9.98656534e-01
9.98664174e-01
9.98674069e-01
9.98668837e-01
9.98665716e-01
9.98666426e-01
9.98664445e-01
9.98659677e-01
9.98656619e-01
9.98653534e-01
9.98649412e-01
9.98645251e-01
9.98641892e-01
9.98638608e-01
9.98635728e-01
9.98633646e-01
9.98632560e-01
9.98632501e-01
9.98633811e-01
9.98636658e-01
9.98641283e-01
9.98647895e-01
9.98656708e-01
9.98667899e-01
9.98681714e-01
9.98698322e-01
9.98717876e-01
9.98740545e-01
9.98766496e-01
9.98795829e-01
9.98828645e-01
9.98865049e-01
9.98905110e-01
9.98948860e-01
9.98996337e-01
9.99047558e-01
9.99102511e-01
9.99161168e-01
9.99223495e-01
9.99289441e-01
9.99358931e-01
9.99431888e-01
9.99508224e-01
9.99587837e-01
9.99670615e-01
9.99756444e-01
9.99845199e-01
9.99936750e-01
1.00003096e+00
1.00012770e+00
1.00022681e+00
1.00032816e+00
1.00043159e+00
1.00053696e+00
1.00064409e+00
1.00075285e+00
1.00086306e+00
1.00097456e+00
1.00108719e+00
1.00120077e+00
1.00131514e+00
1.00143010e+00
1.00154549e+00
1.00166111e+00
1.00177676e+00
1.00189226e+00
1.00200738e+00
1.00212192e+00
1.00223567e+00
1.00234838e+00
1.00245985e+00
1.00256982e+00
1.00267807e+00
1.00278435e+00
1.00288844e+00
1.00299009e+00
1.00308909e+00
1.00318521e+00
1.00327826e+00
1.00336805e+00
1.00345441e+00
1.00353719e+00
1.00361629e+00
1.00369161e+00
1.00376310e+00
1.00383073e+00
1.00389452e+00
1.00395451e+00
1.00401079e+00
1.00406346e+00
1.00411266e+00
1.00415857e+00
1.00420139e+00
1.00424134e+00
1.00427864e+00
1.00431355e+00
1.00434633e+00
1.00437722e+00
1.00440649e+00
1.00443440e+00
1.00446117e+00
1.00448702e+00
1.00451216e+00
1.00453680e+00
1.00456106e+00
1.00458505e+00
1.00460893e+00
1.00463276e+00
1.00465650e+00
1.00468019e+00
1.00470395e+00
1.00472756e+00
1.00475091e+00
1.00477405e+00
1.00479696e+00
1.00481911e+00
1.00484059e+00
1.00486140e+00
1.00488126e+00
1.00489960e+00
1.00491693e+00
1.00493273e+00
1.00494694e+00
1.00495934e+00
1.00496999e+00
1.00497748e+00
1.00498501e+00
1.00498996e+00
9.98665243e-01
9.98665899e-01
9.98674120e-01
9.98672000e-01
9.98669761e-01
9.98668340e-01
9.98667087e-01
9.98663238e-01
9.98659944e-01
9.98656440e-01
9.98652876e-01
9.98648855e-01
9.98645410e-01
9.98642171e-01
9.98639529e-01
9.98637483e-01
9.98636466e-01
9.98636506e-01
9.98637936e-01
9.98640862e-01
9.98645588e-01
9.98652282e-01
9.98661190e-01
9.98672464e-01
9.98686350e-01
9.98703012e-01
9.98722625e-01
9.98745333e-01
9.98771299e-01
9.98800636e-01
9.98833446e-01
9.98869817e-01
9.98909823e-01
9.98953506e-01
9.99000894e-01
9.99052003e-01
9.99106826e-01
9.99165337e-01
9.99227499e-01
9.99293260e-01
9.99362553e-01
9.99435298e-01
9.99511408e-01
9.99590784e-01
9.99673317e-01
9.99758893e-01
9.99847390e-01
9.99938679e-01
1.00003263e+00
1.00012910e+00
1.00022795e+00
1.00032904e+00
1.00043222e+00
1.00053733e+00
1.00064423e+00
1.00075275e+00
1.00086274e+00
1.00097403e+00
1.00108645e+00
1.00119983e+00
1.00131401e+00
1.00142880e+00
1.00154401e+00
1.00165946e+00
1.00177495e+00
1.00189029e+00
1.00200525e+00
1.00211964e+00
1.00223323e+00
1.00234579e+00
1.00245710e+00
1.00256691e+00
1.00267500e+00
1.00278113e+00
1.00288506e+00
1.00298655e+00
1.00308539e+00
1.00318136e+00
1.00327426e+00
1.00336391e+00
1.00345013e+00
1.00353280e+00
1.00361179e+00
1.00368703e+00
1.00375845e+00
1.00382603e+00
1.00388979e+00
1.00394978e+00
1.00400607e+00
1.00405877e+00
1.00410804e+00
1.00415403e+00
1.00419695e+00
1.00423701e+00
1.00427444e+00
1.00430950e+00
1.00434243e+00
1.00437348e+00
1.00440291e+00
1.00443097e+00
1.00445790e+00
1.00448390e+00
1.00450920e+00
1.00453396e+00
1.00455833e+00
1.00458244e+00
1.00460642e+00
1.00463029e+00
1.00465411e+00
1.00467787e+00
1.00470164e+00
1.00472522e+00
1.00474864e+00
1.00477178e+00
1.00479462e+00
1.00481671e+00
1.00483829e+00
1.00485898e+00
1.00487879e+00
1.00489708e+00
1.00491448e+00
1.00493008e+00
1.00494445e+00
1.00495646e+00
1.00496709e+00
1.00497483e+00
1.00498279e+00
1.00498634e+00
9.98677787e-01
9.98676977e-01
9.98671636e-01
9.98675057e-01
9.98677116e-01
9.98672553e-01
9.98669558e-01
9.98668228e-01
9.98664952e-01
9.98660554e-01
9.98657177e-01
9.98653809e-01
9.98650123e-01
9.98646871e-01
9.98644392e-01
9.98642490e-01
9.98641477e-01
9.98641627e-01
9.98643119e-01
9.98646149e-01
9.98650960e-01
9.98657723e-01
9.98666682e-01
9.98678051e-01
9.98691990e-01
9.98708678e-01
9.98728324e-01
9.98751066e-01
9.98777020e-01
9.98806329e-01
9.98839108e-01
9.98875422e-01
9.98915337e-01
9.98958916e-01
9.99006182e-01
9.99057138e-01
9.99111785e-01
9.99170103e-01
9.99232051e-01
9.99297573e-01
9.99366612e-01
9.99439088e-01
9.99514913e-01
9.99593990e-01
9.99676216e-01
9.99761476e-01
9.99849651e-01
9.99940616e-01
1.00003424e+00
1.00013039e+00
1.00022892e+00
1.00032970e+00
1.00043258e+00
1.00053740e+00
1.00064401e+00
1.00075226e+00
1.00086199e+00
1.00097303e+00
1.00108523e+00
1.00119840e+00
1.00131237e+00
1.00142697e+00
1.00154200e+00
1.00165728e+00
1.00177262e+00
1.00188780e+00
1.00200262e+00
1.00211686e+00
1.00223030e+00
1.00234272e+00
1.00245389e+00
1.00256356e+00
1.00267150e+00
1.00277747e+00
1.00288125e+00
1.00298258e+00
1.00308126e+00
1.00317708e+00
1.00326982e+00
1.00335930e+00
1.00344538e+00
1.00352790e+00
1.00360675e+00
1.00368186e+00
1.00375316e+00
1.00382065e+00
1.00388432e+00
1.00394424e+00
1.00400049e+00
1.00405316e+00
1.00410242e+00
1.00414842e+00
1.00419137e+00
1.00423147e+00
1.00426897e+00
1.00430410e+00
1.00433711e+00
1.00436826e+00
1.00439781e+00
1.00442597e+00
1.00445301e+00
1.00447914e+00
1.00450455e+00
1.00452940e+00
1.00455388e+00
1.00457813e+00
1.00460217e+00
1.00462609e+00
1.00465003e+00
1.00467391e+00
1.00469763e+00
1.00472127e+00
1.00474484e+00
1.00476799e+00
1.00479064e+00
1.00481295e+00
1.00483464e+00
1.00485516e+00
1.00487481e+00
1.00489352e+00
1.00491075e+00
1.00492627e+00
1.00494044e+00
1.00495262e+00
1.00496327e+00
1.00497193e+00
1.00497739e+00
1.00498132e+00
9.98678037e-01
9.98680302e-01
9.98679985e-01
9.98680958e-01
9.98679590e-01
9.98677588e-01
9.98675476e-01
9.98672842e-01
9.98669421e-01
9.98666031e-01
9.98662514e-01
9.98658923e-01
9.98655495e-01
9.98652530e-01
9.98650023e-01
9.98648228e-01
9.98647379e-01
9.98647673e-01
9.98649266e-01
9.98652420e-01
9.98657345e-01
9.98664239e-01
9.98673302e-01
9.98684752e-01
9.98698775e-01
9.98715545e-01
9.98735232e-01
9.98757994e-01
9.98783965e-01
9.98813263e-01
9.98845993e-01
9.98882240e-01
9.98922068e-01
9.98965524e-01
9.99012637e-01
9.99063420e-01
9.99117866e-01
9.99175954e-01
9.99237648e-01
9.99302897e-01
9.99371639e-01
9.99443798e-01
9.99519291e-01
9.99598022e-01
9.99679889e-01
9.99764783e-01
9.99852586e-01
9.99943176e-01
1.00003643e+00
1.00013220e+00
1.00023037e+00
1.00033079e+00
1.00043331e+00
1.00053779e+00
1.00064407e+00
1.00075201e+00
1.00086144e+00
1.00097220e+00
1.00108412e+00
1.00119703e+00
1.00131076e+00
1.00142512e+00
1.00153993e+00
1.00165500e+00
1.00177013e+00
1.00188511e+00
1.00199973e+00
1.00211378e+00
1.00222703e+00
1.00233925e+00
1.00245021e+00
1.00255968e+00
1.00266742e+00
1.00277318e+00
1.00287673e+00
1.00297785e+00
1.00307631e+00
1.00317190e+00
1.00326442e+00
1.00335369e+00
1.00343955e+00
1.00352186e+00
1.00360052e+00
1.00367545e+00
1.00374658e+00
1.00381392e+00
1.00387747e+00
1.00393727e+00
1.00399343e+00
1.00404604e+00
1.00409525e+00
1.00414123e+00
1.00418418e+00
1.00422431e+00
1.00426185e+00
1.00429703e+00
1.00433012e+00
1.00436137e+00
1.00439101e+00
1.00441929e+00
1.00444645e+00
1.00447270e+00
1.00449823e+00
1.00452322e+00
1.00454783e+00
1.00457217e+00
1.00459634e+00
1.00462041e+00
1.00464441e+00
1.00466836e+00
1.00469222e+00
1.00471597e+00
1.00473951e+00
1.00476275e+00
1.00478557e+00
1.00480789e+00
1.00482945e+00
1.00485018e+00
1.00486993e+00
1.00488853e+00
1.00490562e+00
1.00492142e+00
1.00493559e+00
1.00494777e+00
1.00495781e+00
1.00496672e+00
1.00497335e+00
1.00497785e+00
9.98682067e-01
9.98684573e-01
9.98688544e-01
9.98686072e-01
9.98683126e-01
9.98683759e-01
9.98681858e-01
9.98677732e-01
9.98674761e-01
9.98672174e-01
9.98668415e-01
9.98664713e-01
9.98661691e-01
9.98658898e-01
9.98656437e-01
9.98654839e-01
9.98654196e-01
9.98654629e-01
9.98656408e-01
9.98659742e-01
9.98664815e-01
9.98671875e-01
9.98681102e-01
9.98692673e-01
9.98706811e-01
9.98723698e-01
9.98743462e-01
9.98766267e-01
9.98792273e-01
9.98821577e-01
9.98854269e-01
9.98890450e-01
9.98930188e-01
9.98973514e-01
9.99020461e-01
9.99071049e-01
9.99125268e-01
9.99183094e-01
9.99244496e-01
9.99309429e-01
9.99377826e-01
9.99449617e-01
9.99524722e-01
9.99603049e-01
9.99684496e-01
9.99768959e-01
9.99856325e-01
9.99946474e-01
1.00003928e+00
1.00013462e+00
1.00023235e+00
1.00033234e+00
1.00043444e+00
1.00053852e+00
1.00064441e+00
1.00075198e+00
1.00086104e+00
1.00097146e+00
1.00108305e+00
1.00119566e+00
1.00130909e+00
1.00142317e+00
1.00153771e+00
1.00165252e+00
1.00176739e+00
1.00188212e+00
1.00199650e+00
1.00211030e+00
1.00222330e+00
1.00233528e+00
1.00244599e+00
1.00255520e+00
1.00266267e+00
1.00276817e+00
1.00287145e+00
1.00297229e+00
1.00307047e+00
1.00316577e+00
1.00325801e+00
1.00334700e+00
1.00343259e+00
1.00351464e+00
1.00359304e+00
1.00366773e+00
1.00373865e+00
1.00380578e+00
1.00386915e+00
1.00392880e+00
1.00398483e+00
1.00403734e+00
1.00408648e+00
1.00413241e+00
1.00417534e+00
1.00421548e+00
1.00425304e+00
1.00428828e+00
1.00432145e+00
1.00435278e+00
1.00438252e+00
1.00441092e+00
1.00443822e+00
1.00446459e+00
1.00449025e+00
1.00451541e+00
1.00454016e+00
1.00456461e+00
1.00458893e+00
1.00461317e+00
1.00463726e+00
1.00466130e+00
1.00468534e+00
1.00470920e+00
1.00473274e+00
1.00475610e+00
1.00477912e+00
1.00480139e+00
1.00482293e+00
1.00484388e+00
1.00486370e+00
1.00488213e+00
1.00489937e+00
1.00491526e+00
1.00492922e+00
1.00494159e+00
1.00495194e+00
1.00496027e+00
1.00496694e+00
1.00497165e+00
9.98691452e-01
9.98691469e-01
9.98692146e-01
9.98692003e-01
9.98691602e-01
9.98689566e-01
9.98686711e-01
9.98684465e-01
9.98681808e-01
9.98678239e-01
9.98674808e-01
9.98671775e-01
9.98668734e-01
9.98665910e-01
9.98663797e-01
9.98662461e-01
9.98661965e-01
9.98662594e-01
9.98664609e-01
9.98668163e-01
9.98673445e-01
9.98680685e-01
9.98690095e-01
9.98701856e-01
9.98716143e-01
9.98733139e-01
9.98753014e-01
9.98775907e-01
9.98801944e-01
9.98831249e-01
9.98863925e-01
9.98900045e-01
9.98939671e-01
9.98982856e-01
9.99029628e-01
9.99079993e-01
9.99133950e-01
9.99191484e-01
9.99252558e-01
9.99317124e-01
9.99385129e-01
9.99456501e-01
9.99531162e-01
9.99609023e-01
9.99689990e-01
9.99773960e-01
9.99860823e-01
9.99950463e-01
1.00004276e+00
1.00013759e+00
1.00023482e+00
1.00033432e+00
1.00043594e+00
1.00053955e+00
1.00064499e+00
1.00075212e+00
1.00086077e+00
1.00097078e+00
1.00108200e+00
1.00119423e+00
1.00130732e+00
1.00142107e+00
1.00153529e+00
1.00164978e+00
1.00176436e+00
1.00187879e+00
1.00199288e+00
1.00210639e+00
1.00221911e+00
1.00233079e+00
1.00244120e+00
1.00255011e+00
1.00265727e+00
1.00276245e+00
1.00286541e+00
1.00296592e+00
1.00306377e+00
1.00315874e+00
1.00325065e+00
1.00333931e+00
1.00342457e+00
1.00350631e+00
1.00358441e+00
1.00365881e+00
1.00372946e+00
1.00379635e+00
1.00385950e+00
1.00391896e+00
1.00397482e+00
1.00402720e+00
1.00407623e+00
1.00412209e+00
1.00416497e+00
1.00420509e+00
1.00424266e+00
1.00427794e+00
1.00431116e+00
1.00434257e+00
1.00437242e+00
1.00440093e+00
1.00442834e+00
1.00445487e+00
1.00448069e+00
1.00450596e+00
1.00453087e+00
1.00455551e+00
1.00457997e+00
1.00460430e+00
1.00462859e+00
1.00465281e+00
1.00467689e+00
1.00470085e+00
1.00472463e+00
1.00474806e+00
1.00477102e+00
1.00479348e+00
1.00481526e+00
1.00483609e+00
1.00485585e+00
1.00487452e+00
1.00489192e+00
1.00490762e+00
1.00492154e+00
1.00493394e+00
1.00494455e+00
1.00495291e+00
1.00495955e+00
1.00496388e+00
9.98699479e-01
9.98699943e-01
9.98698527e-01
9.98699089e-01
9.98698875e-01
9.98695841e-01
9.98693670e-01
9.98691992e-01
9.98688771e-01
9.98685236e-01
9.98682451e-01
9.98679511e-01
9.98676418e-01
9.98673949e-01
9.98672166e-01
9.98670958e-01
9.98670697e-01
9.98671644e-01
9.98673893e-01
9.98677668e-01
9.98683217e-01
9.98690696e-01
9.98700311e-01
9.98712277e-01
9.98726751e-01
9.98743893e-01
9.98763892e-01
9.98786880e-01
9.98812971e-01
9.98842290e-01
9.98874944e-01
9.98910997e-01
9.98950510e-01
9.98993541e-01
9.99040113e-01
9.99090232e-01
9.99143901e-01
9.99201106e-01
9.99261810e-01
9.99325969e-01
9.99393533e-01
9.99464434e-01
9.99538595e-01
9.99615934e-01
9.99696360e-01
9.99779774e-01
9.99866070e-01
9.99955138e-01
1.00004686e+00
1.00014112e+00
1.00023778e+00
1.00033672e+00
1.00043780e+00
1.00054088e+00
1.00064581e+00
1.00075244e+00
1.00086061e+00
1.00097017e+00
1.00108095e+00
1.00119277e+00
1.00130546e+00
1.00141882e+00
1.00153267e+00
1.00164681e+00
1.00176104e+00
1.00187514e+00
1.00198889e+00
1.00210206e+00
1.00221444e+00
1.00232579e+00
1.00243586e+00
1.00254441e+00
1.00265122e+00
1.00275604e+00
1.00285863e+00
1.00295876e+00
1.00305623e+00
1.00315082e+00
1.00324234e+00
1.00333062e+00
1.00341551e+00
1.00349689e+00
1.00357464e+00
1.00364871e+00
1.00371905e+00
1.00378566e+00
1.00384854e+00
1.00390777e+00
1.00396343e+00
1.00401564e+00
1.00406453e+00
1.00411029e+00
1.00415310e+00
1.00419317e+00
1.00423074e+00
1.00426604e+00
1.00429930e+00
1.00433078e+00
1.00436072e+00
1.00438935e+00
1.00441688e+00
1.00444354e+00
1.00446951e+00
1.00449494e+00
1.00452000e+00
1.00454481e+00
1.00456943e+00
1.00459391e+00
1.00461836e+00
1.00464274e+00
1.00466695e+00
1.00469103e+00
1.00471498e+00
1.00473852e+00
1.00476154e+00
1.00478414e+00
1.00480603e+00
1.00482686e+00
1.00484674e+00
1.00486556e+00
1.00488283e+00
1.00489852e+00
1.00491278e+00
1.00492513e+00
1.00493545e+00
1.00494386e+00
1.00495040e+00
1.00495474e+00
9.98705958e-01
9.98706988e-01
9.98707796e-01
9.98706947e-01
9.98705118e-01
9.98703857e-01
9.98702229e-01
9.98699189e-01
9.98696219e-01
9.98693755e-01
9.98690819e-01
9.98687654e-01
9.98685086e-01
9.98683024e-01
9.98681317e-01
9.98680359e-01
9.98680465e-01
9.98681695e-01
9.98684210e-01
9.98688275e-01
9.98694102e-01
9.98701860e-01
9.98711733e-01
9.98723913e-01
9.98738594e-01
9.98755933e-01
9.98776070e-01
9.98799153e-01
9.98825321e-01
9.98854673e-01
9.98887295e-01
9.98923276e-01
9.98962680e-01
9.99005542e-01
9.99051890e-01
9.99101745e-01
9.99155103e-01
9.99211942e-01
9.99272239e-01
9.99335954e-01
9.99403032e-01
9.99473411e-01
9.99547022e-01
9.99623786e-01
9.99703614e-01
9.99786413e-01
9.99872083e-01
9.99960517e-01
1.00005160e+00
1.00014523e+00
1.00024126e+00
1.00033958e+00
1.00044005e+00
1.00054254e+00
1.00064690e+00
1.00075298e+00
1.00086062e+00
1.00096967e+00
1.00107996e+00
1.00119131e+00
1.00130354e+00
1.00141647e+00
1.00152991e+00
1.00164365e+00
1.00175748e+00
1.00187119e+00
1.00198455e+00
1.00209735e+00
1.00220935e+00
1.00232031e+00
1.00242999e+00
1.00253815e+00
1.00264456e+00
1.00274896e+00
1.00285114e+00
1.00295085e+00
1.00304789e+00
1.00314205e+00
1.00323315e+00
1.00332101e+00
1.00340548e+00
1.00348645e+00
1.00356382e+00
1.00363752e+00
1.00370751e+00
1.00377379e+00
1.00383638e+00
1.00389534e+00
1.00395077e+00
1.00400277e+00
1.00405150e+00
1.00409713e+00
1.00413984e+00
1.00417986e+00
1.00421740e+00
1.00425270e+00
1.00428600e+00
1.00431753e+00
1.00434755e+00
1.00437628e+00
1.00440394e+00
1.00443073e+00
1.00445684e+00
1.00448245e+00
1.00450766e+00
1.00453261e+00
1.00455741e+00
1.00458210e+00
1.00460666e+00
1.00463116e+00
1.00465560e+00
1.00467985e+00
1.00470381e+00
1.00472750e+00
1.00475080e+00
1.00477340e+00
1.00479524e+00
1.00481632e+00
1.00483637e+00
1.00485506e+00
1.00487236e+00
1.00488828e+00
1.00490252e+00
1.00491472e+00
1.00492512e+00
1.00493370e+00
1.00494009e+00
1.00494429e+00
9.98715114e-01
9.98715565e-01
9.98716197e-01
9.98715028e-01
9.98713484e-01
9.98712486e-01
9.98710264e-01
9.98707438e-01
9.98705191e-01
9.98702608e-01
9.98699522e-01
9.98696916e-01
9.98694759e-01
9.98692726e-01
9.98691284e-01
9.98690797e-01
9.98691199e-01
9.98692667e-01
9.98695544e-01
9.98699972e-01
9.98706086e-01
9.98714134e-01
9.98724309e-01
9.98736756e-01
9.98751664e-01
9.98769206e-01
9.98789512e-01
9.98812722e-01
9.98838971e-01
9.98868354e-01
9.98900961e-01
9.98936875e-01
9.98976155e-01
9.99018837e-01
9.99064955e-01
9.99114524e-01
9.99167540e-01
9.99223989e-01
9.99283847e-01
9.99347077e-01
9.99413627e-01
9.99483442e-01
9.99556455e-01
9.99632591e-01
9.99711768e-01
9.99793897e-01
9.99878884e-01
9.99966626e-01
1.00005702e+00
1.00014995e+00
1.00024529e+00
1.00034293e+00
1.00044274e+00
1.00054458e+00
1.00064830e+00
1.00075377e+00
1.00086083e+00
1.00096931e+00
1.00107905e+00
1.00118988e+00
1.00130161e+00
1.00141406e+00
1.00152703e+00
1.00164032e+00
1.00175370e+00
1.00186698e+00
1.00197992e+00
1.00209229e+00
1.00220386e+00
1.00231439e+00
1.00242364e+00
1.00253136e+00
1.00263732e+00
1.00274127e+00
1.00284298e+00
1.00294223e+00
1.00303880e+00
1.00313249e+00
1.00322312e+00
1.00331051e+00
1.00339453e+00
1.00347505e+00
1.00355199e+00
1.00362527e+00
1.00369487e+00
1.00376079e+00
1.00382305e+00
1.00388172e+00
1.00393687e+00
1.00398865e+00
1.00403719e+00
1.00408266e+00
1.00412526e+00
1.00416519e+00
1.00420268e+00
1.00423796e+00
1.00427128e+00
1.00430287e+00
1.00433295e+00
1.00436177e+00
1.00438955e+00
1.00441646e+00
1.00444271e+00
1.00446847e+00
1.00449385e+00
1.00451896e+00
1.00454392e+00
1.00456878e+00
1.00459353e+00
1.00461817e+00
1.00464275e+00
1.00466717e+00
1.00469128e+00
1.00471509e+00
1.00473849e+00
1.00476122e+00
1.00478319e+00
1.00480438e+00
1.00482443e+00
1.00484317e+00
1.00486066e+00
1.00487662e+00
1.00489070e+00
1.00490301e+00
1.00491355e+00
1.00492199e+00
1.00492818e+00
1.00493244e+00
9.98725043e-01
9.98724804e-01
9.98724367e-01
9.98724020e-01
9.98723152e-01
9.98721094e-01
9.98718826e-01
9.98717037e-01
9.98714658e-01
9.98711738e-01
9.98709287e-01
9.98707150e-01
9.98704956e-01
9.98703212e-01
9.98702289e-01
9.98702096e-01
9.98702771e-01
9.98704649e-01
9.98707904e-01
9.98712665e-01
9.98719138e-01
9.98727524e-01
9.98738006e-01
9.98750757e-01
9.98765931e-01
9.98783685e-01
9.98804184e-01
9.98827549e-01
9.98853883e-01
9.98883304e-01
9.98915909e-01
9.98951755e-01
9.98990900e-01
9.99033399e-01
9.99079276e-01
9.99128538e-01
9.99181190e-01
9.99237225e-01
9.99296614e-01
9.99359322e-01
9.99425308e-01
9.99494519e-01
9.99566889e-01
9.99642351e-01
9.99720828e-01
9.99802237e-01
9.99886488e-01
9.99973484e-01
1.00006313e+00
1.00015530e+00
1.00024991e+00
1.00034681e+00
1.00044590e+00
1.00054703e+00
1.00065007e+00
1.00075487e+00
1.00086128e+00
1.00096915e+00
1.00107829e+00
1.00118855e+00
1.00129973e+00
1.00141164e+00
1.00152410e+00
1.00163688e+00
1.00174978e+00
1.00186257e+00
1.00197504e+00
1.00208694e+00
1.00219803e+00
1.00230809e+00
1.00241686e+00
1.00252410e+00
1.00262957e+00
1.00273302e+00
1.00283424e+00
1.00293298e+00
1.00302904e+00
1.00312222e+00
1.00321234e+00
1.00329923e+00
1.00338275e+00
1.00346279e+00
1.00353926e+00
1.00361210e+00
1.00368129e+00
1.00374681e+00
1.00380871e+00
1.00386704e+00
1.00392191e+00
1.00397343e+00
1.00402175e+00
1.00406705e+00
1.00410950e+00
1.00414933e+00
1.00418676e+00
1.00422201e+00
1.00425532e+00
1.00428694e+00
1.00431709e+00
1.00434598e+00
1.00437385e+00
1.00440090e+00
1.00442729e+00
1.00445316e+00
1.00447870e+00
1.00450400e+00
1.00452911e+00
1.00455409e+00
1.00457903e+00
1.00460388e+00
1.00462855e+00
1.00465308e+00
1.00467743e+00
1.00470136e+00
1.00472476e+00
1.00474767e+00
1.00476986e+00
1.00479099e+00
1.00481107e+00
1.00483005e+00
1.00484758e+00
1.00486339e+00
1.00487760e+00
1.00489011e+00
1.00490045e+00
1.00490875e+00
1.00491528e+00
1.00491948e+00
9.98734648e-01
9.98734739e-01
9.98734237e-01
9.98733584e-01
9.98732389e-01
9.98730553e-01
9.98728852e-01
9.98726884e-01
9.98724327e-01
9.98722026e-01
9.98719997e-01
9.98717791e-01
9.98715892e-01
9.98714734e-01
9.98714119e-01
9.98714155e-01
9.98715281e-01
9.98717625e-01
9.98721225e-01
9.98726348e-01
9.98733235e-01
9.98742001e-01
9.98752814e-01
9.98765879e-01
9.98781349e-01
9.98799360e-01
9.98820062e-01
9.98843582e-01
9.98870029e-01
9.98899507e-01
9.98932101e-01
9.98967878e-01
9.99006898e-01
9.99049204e-01
9.99094821e-01
9.99143763e-01
9.99196037e-01
9.99251630e-01
9.99310521e-01
9.99372681e-01
9.99438069e-01
9.99506635e-01
9.99578323e-01
9.99653069e-01
9.99730802e-01
9.99811443e-01
9.99894909e-01
9.99981110e-01
1.00006995e+00
1.00016133e+00
1.00025513e+00
1.00035125e+00
1.00044956e+00
1.00054993e+00
1.00065223e+00
1.00075631e+00
1.00086203e+00
1.00096922e+00
1.00107772e+00
1.00118735e+00
1.00129793e+00
1.00140926e+00
1.00152115e+00
1.00163338e+00
1.00174575e+00
1.00185801e+00
1.00196996e+00
1.00208134e+00
1.00219193e+00
1.00230146e+00
1.00240971e+00
1.00251643e+00
1.00262137e+00
1.00272429e+00
1.00282496e+00
1.00292315e+00
1.00301867e+00
1.00311130e+00
1.00320087e+00
1.00328722e+00
1.00337021e+00
1.00344974e+00
1.00352571e+00
1.00359808e+00
1.00366681e+00
1.00373191e+00
1.00379342e+00
1.00385140e+00
1.00390594e+00
1.00395718e+00
1.00400526e+00
1.00405035e+00
1.00409264e+00
1.00413235e+00
1.00416968e+00
1.00420488e+00
1.00423818e+00
1.00426980e+00
1.00429998e+00
1.00432895e+00
1.00435690e+00
1.00438404e+00
1.00441055e+00
1.00443657e+00
1.00446224e+00
1.00448767e+00
1.00451295e+00
1.00453809e+00
1.00456315e+00
1.00458815e+00
1.00461300e+00
1.00463767e+00
1.00466210e+00
1.00468618e+00
1.00470975e+00
1.00473273e+00
1.00475496e+00
1.00477622e+00
1.00479644e+00
1.00481544e+00
1.00483294e+00
1.00484888e+00
1.00486318e+00
1.00487560e+00
1.00488594e+00
1.00489432e+00
1.00490071e+00
1.00490484e+00
9.98744722e-01
9.98744692e-01
9.98744685e-01
9.98743695e-01
9.98742254e-01
9.98740975e-01
9.98739310e-01
9.98737067e-01
9.98735028e-01
9.98733181e-01
9.98731074e-01
9.98729170e-01
9.98727874e-01
9.98726987e-01
9.98726619e-01
9.98727171e-01
9.98728761e-01
9.98731448e-01
9.98735479e-01
9.98741068e-01
9.98748348e-01
9.98757500e-01
9.98768705e-01
9.98782113e-01
9.98797889e-01
9.98816181e-01
9.98837108e-01
9.98860796e-01
9.98887371e-01
9.98916913e-01
9.98949500e-01
9.98985212e-01
9.99024106e-01
9.99066210e-01
9.99111557e-01
9.99160170e-01
9.99212046e-01
9.99267176e-01
9.99325546e-01
9.99387130e-01
9.99451889e-01
9.99519778e-01
9.99590749e-01
9.99664741e-01
9.99741688e-01
9.99821519e-01
9.99904158e-01
9.99989518e-01
1.00007751e+00
1.00016804e+00
1.00026099e+00
1.00035627e+00
1.00045376e+00
1.00055332e+00
1.00065483e+00
1.00075815e+00
1.00086312e+00
1.00096959e+00
1.00107740e+00
1.00118635e+00
1.00129628e+00
1.00140698e+00
1.00151826e+00
1.00162990e+00
1.00174168e+00
1.00185337e+00
1.00196475e+00
1.00207558e+00
1.00218560e+00
1.00229459e+00
1.00240228e+00
1.00250843e+00
1.00261280e+00
1.00271514e+00
1.00281524e+00
1.00291286e+00
1.00300779e+00
1.00309984e+00
1.00318883e+00
1.00327462e+00
1.00335705e+00
1.00343603e+00
1.00351148e+00
1.00358334e+00
1.00365160e+00
1.00371625e+00
1.00377734e+00
1.00383494e+00
1.00388915e+00
1.00394008e+00
1.00398790e+00
1.00403276e+00
1.00407487e+00
1.00411443e+00
1.00415165e+00
1.00418678e+00
1.00422004e+00
1.00425165e+00
1.00428184e+00
1.00431085e+00
1.00433888e+00
1.00436609e+00
1.00439269e+00
1.00441884e+00
1.00444464e+00
1.00447017e+00
1.00449558e+00
1.00452089e+00
1.00454608e+00
1.00457116e+00
1.00459618e+00
1.00462100e+00
1.00464549e+00
1.00466967e+00
1.00469343e+00
1.00471647e+00
1.00473870e+00
1.00476014e+00
1.00478046e+00
1.00479937e+00
1.00481695e+00
1.00483308e+00
1.00484732e+00
1.00485958e+00
1.00487010e+00
1.00487861e+00
1.00488476e+00
1.00488881e+00
9.98755977e-01
9.98755651e-01
9.98755229e-01
9.98754342e-01
9.98753186e-01
9.98751818e-01
9.98750038e-01
9.98748251e-01
9.98746589e-01
9.98744688e-01
9.98742859e-01
9.98741551e-01
9.98740552e-01
9.98739890e-01
9.98740030e-01
9.98741100e-01
9.98743058e-01
9.98746166e-01
9.98750704e-01
9.98756753e-01
9.98764449e-01
9.98774022e-01
9.98785639e-01
9.98799423e-01
9.98815528e-01
9.98834106e-01
9.98855281e-01
9.98879167e-01
9.98905867e-01
9.98935475e-01
9.98968073e-01
9.99003724e-01
9.99042478e-01
9.99084378e-01
9.99129455e-01
9.99177721e-01
9.99229181e-01
9.99283834e-01
9.99341664e-01
9.99402645e-01
9.99466747e-01
9.99533932e-01
9.99604153e-01
9.99677356e-01
9.99753483e-01
9.99832468e-01
9.99914238e-01
9.99998716e-01
1.00008582e+00
1.00017545e+00
1.00026752e+00
1.00036192e+00
1.00045853e+00
1.00055724e+00
1.00065792e+00
1.00076042e+00
1.00086460e+00
1.00097030e+00
1.00107736e+00
1.00118560e+00
1.00129483e+00
1.00140485e+00
1.00151547e+00
1.00162647e+00
1.00173763e+00
1.00184871e+00
1.00195948e+00
1.00206970e+00
1.00217913e+00
1.00228752e+00
1.00239461e+00
1.00250016e+00
1.00260392e+00
1.00270566e+00
1.00280515e+00
1.00290215e+00
1.00299647e+00
1.00308791e+00
1.00317630e+00
1.00326149e+00
1.00334334e+00
1.00342175e+00
1.00349665e+00
1.00356798e+00
1.00363573e+00
1.00369992e+00
1.00376057e+00
1.00381777e+00
1.00387161e+00
1.00392221e+00
1.00396974e+00
1.00401435e+00
1.00405625e+00
1.00409564e+00
1.00413273e+00
1.00416776e+00
1.00420094e+00
1.00423252e+00
1.00426271e+00
1.00429173e+00
1.00431979e+00
1.00434708e+00
1.00437375e+00
1.00439996e+00
1.00442586e+00
1.00445153e+00
1.00447702e+00
1.00450242e+00
1.00452775e+00
1.00455296e+00
1.00457804e+00
1.00460296e+00
1.00462762e+00
1.00465187e+00
1.00467565e+00
1.00469881e+00
1.00472118e+00
1.00474261e+00
1.00476293e+00
1.00478199e+00
1.00479964e+00
1.00481566e+00
1.00482993e+00
1.00484236e+00
1.00485281e+00
1.00486116e+00
1.00486741e+00
1.00487155e+00
9.98767492e-01
9.98766999e-01
9.98766424e-01
9.98765704e-01
9.98764623e-01
9.98763133e-01
9.98761627e-01
9.98760201e-01
9.98758537e-01
9.98756891e-01
9.98755631e-01
9.98754588e-01
9.98753810e-01
9.98753706e-01
9.98754358e-01
9.98755759e-01
9.98758184e-01
9.98761859e-01
9.98766853e-01
9.98773336e-01
9.98781528e-01
9.98791564e-01
9.98803584e-01
9.98817760e-01
9.98834228e-01
9.98853110e-01
9.98874543e-01
9.98898635e-01
9.98925474e-01
9.98955159e-01
9.98987768e-01
9.99023355e-01
9.99061972e-01
9.99103666e-01
9.99148462e-01
9.99196370e-01
9.99247404e-01
9.99301564e-01
9.99358832e-01
9.99419191e-01
9.99482615e-01
9.99549071e-01
9.99618514e-01
9.99690900e-01
9.99766175e-01
9.99844280e-01
9.99925149e-01
1.00000871e+00
1.00009489e+00
1.00018359e+00
1.00027473e+00
1.00036820e+00
1.00046391e+00
1.00056172e+00
1.00066152e+00
1.00076316e+00
1.00086651e+00
1.00097140e+00
1.00107767e+00
1.00118514e+00
1.00129363e+00
1.00140294e+00
1.00151286e+00
1.00162317e+00
1.00173366e+00
1.00184408e+00
1.00195421e+00
1.00206379e+00
1.00217259e+00
1.00228034e+00
1.00238679e+00
1.00249171e+00
1.00259484e+00
1.00269594e+00
1.00279479e+00
1.00289115e+00
1.00298483e+00
1.00307564e+00
1.00316340e+00
1.00324797e+00
1.00332921e+00
1.00340704e+00
1.00348137e+00
1.00355215e+00
1.00361939e+00
1.00368308e+00
1.00374328e+00
1.00380005e+00
1.00385351e+00
1.00390377e+00
1.00395098e+00
1.00399533e+00
1.00403700e+00
1.00407619e+00
1.00411313e+00
1.00414803e+00
1.00418112e+00
1.00421264e+00
1.00424280e+00
1.00427181e+00
1.00429987e+00
1.00432718e+00
1.00435391e+00
1.00438017e+00
1.00440612e+00
1.00443187e+00
1.00445746e+00
1.00448291e+00
1.00450832e+00
1.00453364e+00
1.00455879e+00
1.00458375e+00
1.00460851e+00
1.00463285e+00
1.00465664e+00
1.00467986e+00
1.00470233e+00
1.00472375e+00
1.00474408e+00
1.00476325e+00
1.00478091e+00
1.00479685e+00
1.00481118e+00
1.00482371e+00
1.00483405e+00
1.00484234e+00
1.00484873e+00
1.00485284e+00
9.98779471e-01
9.98779034e-01
9.98778451e-01
9.98777583e-01
9.98776460e-01
9.98775234e-01
9.98773994e-01
9.98772602e-01
9.98771162e-01
9.98770005e-01
9.98769040e-01
9.98768234e-01
9.98767957e-01
9.98768365e-01
9.98769389e-01
9.98771252e-01
9.98774238e-01
9.98778410e-01
9.98783874e-01
9.98790868e-01
9.98799562e-01
9.98810061e-01
9.98822519e-01
9.98837104e-01
9.98853944e-01
9.98873154e-01
9.98894854e-01
9.98919153e-01
9.98946148e-01
9.98975918e-01
9.99008533e-01
9.99044057e-01
9.99082543e-01
9.99124023e-01
9.99168524e-01
9.99216071e-01
9.99266671e-01
9.99320319e-01
9.99377010e-01
9.99436732e-01
9.99499458e-01
9.99565160e-01
9.99633804e-01
9.99705349e-01
9.99779746e-01
9.99856942e-01
9.99936880e-01
1.00001949e+00
1.00010471e+00
1.00019245e+00
1.00028263e+00
1.00037514e+00
1.00046990e+00
1.00056678e+00
1.00066566e+00
1.00076641e+00
1.00086888e+00
1.00097292e+00
1.00107836e+00
1.00118503e+00
1.00129273e+00
1.00140128e+00
1.00151046e+00
1.00162005e+00
1.00172983e+00
1.00183956e+00
1.00194900e+00
1.00205791e+00
1.00216603e+00
1.00227311e+00
1.00237890e+00
1.00248315e+00
1.00258561e+00
1.00268605e+00
1.00278423e+00
1.00287993e+00
1.00297295e+00
1.00306310e+00
1.00315021e+00
1.00323414e+00
1.00331476e+00
1.00339198e+00
1.00346572e+00
1.00353595e+00
1.00360264e+00
1.00366583e+00
1.00372555e+00
1.00378189e+00
1.00383494e+00
1.00388483e+00
1.00393171e+00
1.00397577e+00
1.00401718e+00
1.00405615e+00
1.00409290e+00
1.00412765e+00
1.00416063e+00
1.00419204e+00
1.00422213e+00
1.00425110e+00
1.00427914e+00
1.00430643e+00
1.00433316e+00
1.00435946e+00
1.00438543e+00
1.00441119e+00
1.00443683e+00
1.00446236e+00
1.00448778e+00
1.00451312e+00
1.00453836e+00
1.00456338e+00
1.00458811e+00
1.00461249e+00
1.00463639e+00
1.00465960e+00
1.00468202e+00
1.00470354e+00
1.00472394e+00
1.00474300e+00
1.00476065e+00
1.00477674e+00
1.00479103e+00
1.00480340e+00
1.00481384e+00
1.00482224e+00
1.00482844e+00
1.00483246e+00
9.98792089e-01
9.98791492e-01
9.98790942e-01
9.98790087e-01
9.98789064e-01
9.98788023e-01
9.98786858e-01
9.98785666e-01
9.98784660e-01
9.98783780e-01
9.98783029e-01
9.98782727e-01
9.98782966e-01
9.98783705e-01
9.98785191e-01
9.98787662e-01
9.98791141e-01
9.98795769e-01
9.98801794e-01
9.98809339e-01
9.98818505e-01
9.98829480e-01
9.98842417e-01
9.98857425e-01
9.98874636e-01
9.98894184e-01
9.98916166e-01
9.98940683e-01
9.98967833e-01
9.98997688e-01
9.99030315e-01
9.99065778e-01
9.99104124e-01
9.99145384e-01
9.99189592e-01
9.99236768e-01
9.99286918e-01
9.99340045e-01
9.99396150e-01
9.99455217e-01
9.99517228e-01
9.99582161e-01
9.99649986e-01
9.99720668e-01
9.99794165e-01
9.99870432e-01
9.99949415e-01
1.00003105e+00
1.00011528e+00
1.00020203e+00
1.00029122e+00
1.00038275e+00
1.00047652e+00
1.00057243e+00
1.00067036e+00
1.00077018e+00
1.00087174e+00
1.00097489e+00
1.00107947e+00
1.00118529e+00
1.00129218e+00
1.00139993e+00
1.00150833e+00
1.00161716e+00
1.00172619e+00