# vtk DataFile Version 2.0
LBM Flow Field - Timestep 2700
ASCII
DATASET STRUCTURED_POINTS
DIMENSIONS 128 128 1
ORIGIN 0.0 0.0 0.0
SPACING 1.0 1.0 1.0
POINT_DATA 16384
SCALARS density double 1
LOOKUP_TABLE default
1.00264788e+00
1.00265379e+00
1.00266294e+00
1.00267923e+00
1.00270058e+00
1.00272255e+00
1.00274949e+00
1.00278119e+00
1.00281408e+00
1.00284824e+00
1.00288554e+00
1.00292385e+00
1.00296157e+00
1.00299943e+00
1.00303718e+00
1.00307322e+00
1.00310722e+00
1.00313931e+00
1.00316877e+00
1.00319494e+00
1.00321778e+00
1.00323715e+00
1.00325264e+00
1.00326412e+00
1.00327165e+00
1.00327516e+00
1.00327463e+00
1.00327018e+00
1.00326194e+00
1.00325006e+00
1.00323470e+00
1.00321610e+00
1.00319449e+00
1.00317010e+00
1.00314318e+00
1.00311399e+00
1.00308278e+00
1.00304979e+00
1.00301525e+00
1.00297937e+00
1.00294235e+00
1.00290437e+00
1.00286558e+00
1.00282610e+00
1.00278603e+00
1.00274545e+00
1.00270438e+00
1.00266285e+00
1.00262082e+00
1.00257827e+00
1.00253511e+00
1.00249126e+00
1.00244659e+00
1.00240099e+00
1.00235431e+00
1.00230640e+00
1.00225713e+00
1.00220633e+00
1.00215387e+00
1.00209962e+00
1.00204347e+00
1.00198531e+00
1.00192506e+00
1.00186265e+00
1.00179804e+00
1.00173119e+00
1.00166210e+00
1.00159075e+00
1.00151717e+00
1.00144139e+00
1.00136346e+00
1.00128343e+00
1.00120139e+00
1.00111745e+00
1.00103172e+00
1.00094436e+00
1.00085553e+00
1.00076543e+00
1.00067428e+00
1.00058234e+00
1.00048985e+00
1.00039711e+00
1.00030440e+00
1.00021201e+00
1.00012025e+00
1.00002940e+00
9.99939724e-01
9.99851489e-01
9.99764929e-01
9.99680258e-01
9.99597669e-01
9.99517334e-01
9.99439410e-01
9.99364035e-01
9.99291337e-01
9.99221441e-01
9.99154471e-01
9.99090542e-01
9.99029777e-01
9.98972314e-01
9.98918280e-01
9.98867797e-01
9.98821007e-01
9.98778050e-01
9.98739021e-01
9.98704007e-01
9.98673125e-01
9.98646418e-01
9.98623836e-01
9.98605372e-01
9.98591052e-01
9.98580634e-01
9.98573826e-01
9.98570614e-01
9.98570828e-01
9.98573593e-01
9.98578636e-01
9.98586327e-01
9.98595676e-01
9.98604867e-01
9.98615224e-01
9.98627415e-01
9.98637498e-01
9.98644423e-01
9.98654758e-01
9.98665189e-01
9.98664607e-01
9.98663426e-01
1.00265219e+00
1.00265877e+00
1.00266961e+00
1.00268443e+00
1.00270529e+00
1.00272776e+00
1.00275418e+00
1.00278453e+00
1.00281741e+00
1.00285138e+00
1.00288756e+00
1.00292502e+00
1.00296252e+00
1.00299969e+00
1.00303650e+00
1.00307203e+00
1.00310561e+00
1.00313703e+00
1.00316592e+00
1.00319176e+00
1.00321423e+00
1.00323321e+00
1.00324844e+00
1.00325976e+00
1.00326711e+00
1.00327050e+00
1.00326993e+00
1.00326547e+00
1.00325725e+00
1.00324542e+00
1.00323016e+00
1.00321167e+00
1.00319018e+00
1.00316593e+00
1.00313917e+00
1.00311014e+00
1.00307908e+00
1.00304625e+00
1.00301186e+00
1.00297614e+00
1.00293926e+00
1.00290141e+00
1.00286273e+00
1.00282335e+00
1.00278337e+00
1.00274285e+00
1.00270183e+00
1.00266032e+00
1.00261830e+00
1.00257573e+00
1.00253255e+00
1.00248865e+00
1.00244392e+00
1.00239825e+00
1.00235150e+00
1.00230351e+00
1.00225416e+00
1.00220329e+00
1.00215076e+00
1.00209647e+00
1.00204028e+00
1.00198210e+00
1.00192185e+00
1.00185947e+00
1.00179490e+00
1.00172813e+00
1.00165913e+00
1.00158790e+00
1.00151446e+00
1.00143886e+00
1.00136112e+00
1.00128131e+00
1.00119953e+00
1.00111586e+00
1.00103043e+00
1.00094338e+00
1.00085489e+00
1.00076515e+00
1.00067437e+00
1.00058279e+00
1.00049068e+00
1.00039830e+00
1.00030594e+00
1.00021389e+00
1.00012245e+00
1.00003188e+00
9.99942459e-01
9.99854448e-01
9.99768079e-01
9.99683568e-01
9.99601108e-01
9.99520876e-01
9.99443029e-01
9.99367709e-01
9.99295050e-01
9.99225180e-01
9.99158220e-01
9.99094292e-01
9.99033525e-01
9.98976049e-01
9.98921990e-01
9.98871481e-01
9.98824659e-01
9.98781647e-01
9.98742551e-01
9.98707472e-01
9.98676501e-01
9.98649657e-01
9.98626950e-01
9.98608369e-01
9.98593848e-01
9.98583179e-01
9.98576238e-01
9.98572839e-01
9.98572649e-01
9.98575130e-01
9.98580211e-01
9.98587493e-01
9.98596156e-01
9.98605491e-01
9.98616221e-01
9.98627184e-01
9.98636667e-01
9.98645217e-01
9.98655475e-01
9.98662602e-01
9.98663612e-01
9.98667353e-01
1.00265838e+00
1.00266631e+00
1.00267930e+00
1.00269263e+00
1.00271035e+00
1.00273483e+00
1.00276183e+00
1.00278953e+00
1.00282142e+00
1.00285642e+00
1.00289145e+00
1.00292714e+00
1.00296442e+00
1.00300133e+00
1.00303684e+00
1.00307148e+00
1.00310475e+00
1.00313550e+00
1.00316356e+00
1.00318891e+00
1.00321102e+00
1.00322947e+00
1.00324428e+00
1.00325534e+00
1.00326245e+00
1.00326559e+00
1.00326487e+00
1.00326032e+00
1.00325202e+00
1.00324014e+00
1.00322488e+00
1.00320641e+00
1.00318495e+00
1.00316076e+00
1.00313406e+00
1.00310511e+00
1.00307414e+00
1.00304139e+00
1.00300708e+00
1.00297143e+00
1.00293463e+00
1.00289684e+00
1.00285822e+00
1.00281888e+00
1.00277893e+00
1.00273842e+00
1.00269740e+00
1.00265588e+00
1.00261384e+00
1.00257124e+00
1.00252800e+00
1.00248405e+00
1.00243926e+00
1.00239353e+00
1.00234672e+00
1.00229868e+00
1.00224929e+00
1.00219839e+00
1.00214586e+00
1.00209157e+00
1.00203541e+00
1.00197730e+00
1.00191714e+00
1.00185488e+00
1.00179046e+00
1.00172387e+00
1.00165507e+00
1.00158408e+00
1.00151091e+00
1.00143559e+00
1.00135817e+00
1.00127870e+00
1.00119728e+00
1.00111399e+00
1.00102896e+00
1.00094232e+00
1.00085426e+00
1.00076494e+00
1.00067459e+00
1.00058345e+00
1.00049176e+00
1.00039979e+00
1.00030784e+00
1.00021617e+00
1.00012507e+00
1.00003483e+00
9.99945717e-01
9.99857977e-01
9.99771849e-01
9.99687547e-01
9.99605269e-01
9.99525190e-01
9.99447468e-01
9.99372249e-01
9.99299670e-01
9.99229854e-01
9.99162925e-01
9.99099012e-01
9.99038241e-01
9.98980731e-01
9.98926617e-01
9.98876043e-01
9.98829126e-01
9.98785979e-01
9.98746738e-01
9.98711507e-01
9.98680320e-01
9.98653229e-01
9.98630307e-01
9.98611477e-01
9.98596579e-01
9.98585601e-01
9.98578464e-01
9.98574658e-01
9.98573874e-01
9.98576269e-01
9.98581270e-01
9.98587613e-01
9.98595682e-01
9.98605997e-01
9.98616146e-01
9.98624820e-01
9.98635541e-01
9.98647065e-01
9.98652716e-01
9.98656501e-01
9.98667277e-01
9.98672949e-01
1.00267004e+00
1.00267660e+00
1.00268812e+00
1.00270323e+00
1.00272114e+00
1.00274323e+00
1.00276918e+00
1.00279773e+00
1.00282861e+00
1.00286171e+00
1.00289631e+00
1.00293174e+00
1.00296759e+00
1.00300332e+00
1.00303838e+00
1.00307220e+00
1.00310435e+00
1.00313438e+00
1.00316189e+00
1.00318650e+00
1.00320792e+00
1.00322592e+00
1.00324029e+00
1.00325088e+00
1.00325765e+00
1.00326054e+00
1.00325958e+00
1.00325483e+00
1.00324640e+00
1.00323443e+00
1.00321910e+00
1.00320058e+00
1.00317912e+00
1.00315492e+00
1.00312823e+00
1.00309929e+00
1.00306834e+00
1.00303561e+00
1.00300132e+00
1.00296567e+00
1.00292886e+00
1.00289106e+00
1.00285241e+00
1.00281303e+00
1.00277303e+00
1.00273245e+00
1.00269135e+00
1.00264974e+00
1.00260760e+00
1.00256488e+00
1.00252154e+00
1.00247747e+00
1.00243259e+00
1.00238676e+00
1.00233987e+00
1.00229177e+00
1.00224234e+00
1.00219144e+00
1.00213894e+00
1.00208472e+00
1.00202867e+00
1.00197070e+00
1.00191072e+00
1.00184868e+00
1.00178452e+00
1.00171822e+00
1.00164975e+00
1.00157911e+00
1.00150632e+00
1.00143139e+00
1.00135439e+00
1.00127535e+00
1.00119437e+00
1.00111154e+00
1.00102697e+00
1.00094081e+00
1.00085321e+00
1.00076437e+00
1.00067449e+00
1.00058382e+00
1.00049259e+00
1.00040108e+00
1.00030956e+00
1.00021832e+00
1.00012764e+00
1.00003779e+00
9.99949043e-01
9.99861652e-01
9.99775849e-01
9.99691850e-01
9.99609849e-01
9.99530022e-01
9.99452529e-01
9.99377514e-01
9.99305110e-01
9.99235444e-01
9.99168641e-01
9.99104820e-01
9.99044105e-01
9.98986624e-01
9.98932505e-01
9.98881876e-01
9.98834864e-01
9.98791594e-01
9.98752176e-01
9.98716702e-01
9.98685250e-01
9.98657868e-01
9.98634558e-01
9.98615296e-01
9.98600016e-01
9.98588582e-01
9.98580814e-01
9.98576514e-01
9.98575377e-01
9.98577058e-01
9.98581219e-01
9.98587448e-01
9.98595218e-01
9.98604180e-01
9.98613838e-01
9.98623574e-01
9.98633080e-01
9.98642210e-01
9.98649929e-01
9.98656022e-01
9.98662083e-01
9.98665683e-01
1.00268602e+00
1.00269199e+00
1.00270010e+00
1.00271541e+00
1.00273453e+00
1.00275464e+00
1.00277891e+00
1.00280792e+00
1.00283797e+00
1.00286899e+00
1.00290282e+00
1.00293781e+00
1.00297215e+00
1.00300651e+00
1.00304087e+00
1.00307373e+00
1.00310464e+00
1.00313378e+00
1.00316057e+00
1.00318431e+00
1.00320494e+00
1.00322235e+00
1.00323617e+00
1.00324623e+00
1.00325256e+00
1.00325512e+00
1.00325385e+00
1.00324885e+00
1.00324023e+00
1.00322812e+00
1.00321266e+00
1.00319406e+00
1.00317253e+00
1.00314828e+00
1.00312156e+00
1.00309259e+00
1.00306160e+00
1.00302884e+00
1.00299450e+00
1.00295881e+00
1.00292194e+00
1.00288406e+00
1.00284533e+00
1.00280585e+00
1.00276572e+00
1.00272501e+00
1.00268377e+00
1.00264200e+00
1.00259970e+00
1.00255682e+00
1.00251330e+00
1.00246908e+00
1.00242404e+00
1.00237809e+00
1.00233109e+00
1.00228292e+00
1.00223345e+00
1.00218254e+00
1.00213009e+00
1.00207596e+00
1.00202005e+00
1.00196227e+00
1.00190253e+00
1.00184078e+00
1.00177695e+00
1.00171102e+00
1.00164296e+00
1.00157276e+00
1.00150044e+00
1.00142601e+00
1.00134951e+00
1.00127101e+00
1.00119056e+00
1.00110828e+00
1.00102426e+00
1.00093866e+00
1.00085162e+00
1.00076334e+00
1.00067403e+00
1.00058390e+00
1.00049322e+00
1.00040225e+00
1.00031126e+00
1.00022053e+00
1.00013034e+00
1.00004097e+00
9.99952678e-01
9.99865721e-01
9.99780329e-01
9.99696716e-01
9.99615076e-01
9.99535584e-01
9.99458398e-01
9.99383661e-01
9.99311503e-01
9.99242052e-01
9.99175429e-01
9.99111747e-01
9.99051128e-01
9.98993702e-01
9.98939589e-01
9.98888904e-01
9.98841783e-01
9.98798356e-01
9.98758709e-01
9.98722931e-01
9.98691135e-01
9.98663357e-01
9.98639551e-01
9.98619734e-01
9.98603920e-01
9.98591876e-01
9.98583340e-01
9.98578349e-01
9.98576667e-01
9.98577492e-01
9.98580640e-01
9.98586489e-01
9.98593855e-01
9.98601312e-01
9.98610185e-01
9.98620816e-01
9.98629355e-01
9.98635723e-01
9.98644789e-01
9.98653175e-01
9.98655232e-01
9.98657638e-01
1.00270162e+00
1.00270783e+00
1.00271773e+00
1.00273065e+00
1.00274779e+00
1.00276906e+00
1.00279283e+00
1.00281901e+00
1.00284810e+00
1.00287929e+00
1.00291144e+00
1.00294436e+00
1.00297803e+00
1.00301157e+00
1.00304420e+00
1.00307577e+00
1.00310593e+00
1.00313398e+00
1.00315954e+00
1.00318245e+00
1.00320236e+00
1.00321893e+00
1.00323202e+00
1.00324155e+00
1.00324738e+00
1.00324945e+00
1.00324781e+00
1.00324251e+00
1.00323362e+00
1.00322128e+00
1.00320565e+00
1.00318691e+00
1.00316525e+00
1.00314090e+00
1.00311408e+00
1.00308502e+00
1.00305394e+00
1.00302108e+00
1.00298665e+00
1.00295084e+00
1.00291385e+00
1.00287583e+00
1.00283694e+00
1.00279729e+00
1.00275698e+00
1.00271608e+00
1.00267463e+00
1.00263264e+00
1.00259011e+00
1.00254701e+00
1.00250328e+00
1.00245885e+00
1.00241363e+00
1.00236752e+00
1.00232039e+00
1.00227213e+00
1.00222262e+00
1.00217173e+00
1.00211933e+00
1.00206533e+00
1.00200960e+00
1.00195206e+00
1.00189263e+00
1.00183123e+00
1.00176781e+00
1.00170234e+00
1.00163478e+00
1.00156511e+00
1.00149336e+00
1.00141952e+00
1.00134363e+00
1.00126575e+00
1.00118593e+00
1.00110429e+00
1.00102091e+00
1.00093595e+00
1.00084956e+00
1.00076191e+00
1.00067323e+00
1.00058374e+00
1.00049368e+00
1.00040331e+00
1.00031292e+00
1.00022278e+00
1.00013316e+00
1.00004434e+00
9.99956590e-01
9.99870148e-01
9.99785249e-01
9.99702105e-01
9.99620909e-01
9.99541832e-01
9.99465030e-01
9.99390645e-01
9.99318805e-01
9.99249630e-01
9.99183235e-01
9.99119739e-01
9.99059255e-01
9.99001898e-01
9.98947790e-01
9.98897057e-01
9.98849812e-01
9.98806168e-01
9.98766244e-01
9.98730133e-01
9.98697889e-01
9.98669573e-01
9.98645225e-01
9.98624786e-01
9.98608172e-01
9.98595355e-01
9.98586158e-01
9.98580235e-01
9.98577434e-01
9.98577618e-01
9.98580158e-01
9.98584507e-01
9.98590787e-01
9.98598539e-01
9.98606498e-01
9.98614553e-01
9.98623349e-01
9.98631589e-01
9.98638042e-01
9.98643476e-01
9.98648084e-01
9.98651877e-01
1.00272089e+00
1.00272643e+00
1.00273696e+00
1.00274879e+00
1.00276417e+00
1.00278494e+00
1.00280811e+00
1.00283267e+00
1.00286048e+00
1.00289074e+00
1.00292135e+00
1.00295274e+00
1.00298527e+00
1.00301745e+00
1.00304855e+00
1.00307889e+00
1.00310790e+00
1.00313468e+00
1.00315910e+00
1.00318105e+00
1.00320002e+00
1.00321569e+00
1.00322804e+00
1.00323692e+00
1.00324213e+00
1.00324368e+00
1.00324160e+00
1.00323592e+00
1.00322670e+00
1.00321408e+00
1.00319821e+00
1.00317926e+00
1.00315741e+00
1.00313290e+00
1.00310592e+00
1.00307670e+00
1.00304548e+00
1.00301246e+00
1.00297786e+00
1.00294187e+00
1.00290469e+00
1.00286646e+00
1.00282735e+00
1.00278746e+00
1.00274690e+00
1.00270573e+00
1.00266400e+00
1.00262174e+00
1.00257893e+00
1.00253555e+00
1.00249156e+00
1.00244688e+00
1.00240144e+00
1.00235514e+00
1.00230786e+00
1.00225951e+00
1.00220995e+00
1.00215908e+00
1.00210677e+00
1.00205291e+00
1.00199741e+00
1.00194016e+00
1.00188109e+00
1.00182011e+00
1.00175718e+00
1.00169224e+00
1.00162525e+00
1.00155621e+00
1.00148510e+00
1.00141194e+00
1.00133675e+00
1.00125957e+00
1.00118048e+00
1.00109955e+00
1.00101690e+00
1.00093266e+00
1.00084699e+00
1.00076006e+00
1.00067209e+00
1.00058330e+00
1.00049393e+00
1.00040425e+00
1.00031453e+00
1.00022505e+00
1.00013608e+00
1.00004790e+00
9.99960756e-01
9.99874907e-01
9.99790579e-01
9.99707980e-01
9.99627302e-01
9.99548714e-01
9.99472368e-01
9.99398401e-01
9.99326938e-01
9.99258096e-01
9.99191981e-01
9.99128709e-01
9.99068389e-01
9.99011125e-01
9.98957035e-01
9.98906243e-01
9.98858857e-01
9.98814979e-01
9.98774730e-01
9.98738213e-01
9.98705469e-01
9.98676546e-01
9.98651519e-01
9.98630351e-01
9.98612896e-01
9.98599131e-01
9.98589027e-01
9.98582183e-01
9.98578237e-01
9.98577301e-01
9.98579032e-01
9.98582342e-01
9.98587212e-01
9.98594169e-01
9.98601686e-01
9.98608389e-01
9.98616077e-01
9.98624436e-01
9.98629866e-01
9.98634109e-01
9.98640058e-01
9.98643022e-01
1.00274390e+00
1.00274818e+00
1.00275603e+00
1.00276859e+00
1.00278444e+00
1.00280244e+00
1.00282397e+00
1.00284884e+00
1.00287518e+00
1.00290284e+00
1.00293249e+00
1.00296316e+00
1.00299360e+00
1.00302394e+00
1.00305413e+00
1.00308314e+00
1.00311042e+00
1.00313598e+00
1.00315943e+00
1.00318017e+00
1.00319799e+00
1.00321283e+00
1.00322439e+00
1.00323244e+00
1.00323698e+00
1.00323799e+00
1.00323539e+00
1.00322924e+00
1.00321964e+00
1.00320669e+00
1.00319051e+00
1.00317128e+00
1.00314919e+00
1.00312444e+00
1.00309724e+00
1.00306780e+00
1.00303636e+00
1.00300311e+00
1.00296827e+00
1.00293203e+00
1.00289458e+00
1.00285608e+00
1.00281667e+00
1.00277647e+00
1.00273559e+00
1.00269409e+00
1.00265202e+00
1.00260941e+00
1.00256626e+00
1.00252256e+00
1.00247825e+00
1.00243329e+00
1.00238759e+00
1.00234107e+00
1.00229363e+00
1.00224517e+00
1.00219557e+00
1.00214472e+00
1.00209251e+00
1.00203883e+00
1.00198359e+00
1.00192667e+00
1.00186801e+00
1.00180751e+00
1.00174512e+00
1.00168079e+00
1.00161446e+00
1.00154611e+00
1.00147573e+00
1.00140333e+00
1.00132891e+00
1.00125252e+00
1.00117422e+00
1.00109410e+00
1.00101224e+00
1.00092880e+00
1.00084391e+00
1.00075777e+00
1.00067058e+00
1.00058255e+00
1.00049395e+00
1.00040503e+00
1.00031605e+00
1.00022730e+00
1.00013905e+00
1.00005157e+00
9.99965114e-01
9.99879931e-01
9.99796248e-01
9.99714270e-01
9.99634183e-01
9.99556155e-01
9.99480334e-01
9.99406851e-01
9.99335824e-01
9.99267367e-01
9.99201584e-01
9.99138574e-01
9.99078441e-01
9.99021295e-01
9.98967239e-01
9.98916377e-01
9.98868829e-01
9.98824709e-01
9.98784099e-01
9.98747093e-01
9.98713797e-01
9.98684241e-01
9.98658406e-01
9.98636345e-01
9.98618048e-01
9.98603292e-01
9.98591939e-01
9.98584027e-01
9.98579204e-01
9.98576866e-01
9.98577044e-01
9.98579719e-01
9.98583801e-01
9.98588662e-01
9.98595011e-01
9.98602248e-01
9.98608544e-01
9.98614362e-01
9.98620625e-01
9.98625711e-01
9.98628659e-01
9.98630603e-01
1.00276740e+00
1.00277169e+00
1.00277854e+00
1.00279013e+00
1.00280519e+00
1.00282219e+00
1.00284246e+00
1.00286589e+00
1.00289079e+00
1.00291711e+00
1.00294528e+00
1.00297417e+00
1.00300301e+00
1.00303199e+00
1.00306061e+00
1.00308797e+00
1.00311387e+00
1.00313819e+00
1.00316029e+00
1.00317978e+00
1.00319658e+00
1.00321044e+00
1.00322104e+00
1.00322828e+00
1.00323214e+00
1.00323249e+00
1.00322931e+00
1.00322266e+00
1.00321262e+00
1.00319925e+00
1.00318271e+00
1.00316315e+00
1.00314076e+00
1.00311570e+00
1.00308821e+00
1.00305849e+00
1.00302674e+00
1.00299320e+00
1.00295804e+00
1.00292148e+00
1.00288369e+00
1.00284484e+00
1.00280506e+00
1.00276448e+00
1.00272321e+00
1.00268130e+00
1.00263883e+00
1.00259582e+00
1.00255228e+00
1.00250819e+00
1.00246353e+00
1.00241824e+00
1.00237225e+00
1.00232549e+00
1.00227786e+00
1.00222928e+00
1.00217963e+00
1.00212880e+00
1.00207671e+00
1.00202323e+00
1.00196826e+00
1.00191172e+00
1.00185350e+00
1.00179354e+00
1.00173174e+00
1.00166807e+00
1.00160245e+00
1.00153486e+00
1.00146528e+00
1.00139370e+00
1.00132012e+00
1.00124459e+00
1.00116716e+00
1.00108790e+00
1.00100691e+00
1.00092433e+00
1.00084031e+00
1.00075502e+00
1.00066867e+00
1.00058149e+00
1.00049371e+00
1.00040561e+00
1.00031745e+00
1.00022950e+00
1.00014203e+00
1.00005533e+00
9.99969627e-01
9.99885180e-01
9.99802210e-01
9.99720919e-01
9.99641490e-01
9.99564084e-01
9.99488846e-01
9.99415902e-01
9.99345364e-01
9.99277338e-01
9.99211921e-01
9.99149208e-01
9.99089291e-01
9.99032272e-01
9.98978252e-01
9.98927328e-01
9.98879605e-01
9.98835200e-01
9.98794203e-01
9.98756689e-01
9.98722753e-01
9.98692470e-01
9.98665824e-01
9.98642794e-01
9.98623432e-01
9.98607638e-01
9.98595137e-01
9.98585855e-01
9.98579778e-01
9.98576369e-01
9.98575130e-01
9.98576241e-01
9.98579343e-01
9.98583259e-01
9.98588021e-01
9.98594087e-01
9.98599901e-01
9.98604706e-01
9.98609955e-01
9.98614661e-01
9.98617215e-01
9.98619069e-01
1.00279168e+00
1.00279585e+00
1.00280375e+00
1.00281350e+00
1.00282649e+00
1.00284369e+00
1.00286306e+00
1.00288391e+00
1.00290749e+00
1.00293313e+00
1.00295925e+00
1.00298601e+00
1.00301373e+00
1.00304126e+00
1.00306784e+00
1.00309366e+00
1.00311839e+00
1.00314117e+00
1.00316176e+00
1.00318015e+00
1.00319589e+00
1.00320859e+00
1.00321822e+00
1.00322468e+00
1.00322774e+00
1.00322736e+00
1.00322357e+00
1.00321639e+00
1.00320582e+00
1.00319200e+00
1.00317504e+00
1.00315509e+00
1.00313230e+00
1.00310689e+00
1.00307904e+00
1.00304895e+00
1.00301684e+00
1.00298291e+00
1.00294737e+00
1.00291041e+00
1.00287220e+00
1.00283292e+00
1.00279270e+00
1.00275166e+00
1.00270992e+00
1.00266755e+00
1.00262461e+00
1.00258113e+00
1.00253714e+00
1.00249262e+00
1.00244755e+00
1.00240188e+00
1.00235557e+00
1.00230854e+00
1.00226071e+00
1.00221199e+00
1.00216228e+00
1.00211149e+00
1.00205951e+00
1.00200624e+00
1.00195158e+00
1.00189543e+00
1.00183770e+00
1.00177830e+00
1.00171715e+00
1.00165418e+00
1.00158933e+00
1.00152256e+00
1.00145383e+00
1.00138312e+00
1.00131045e+00
1.00123584e+00
1.00115933e+00
1.00108100e+00
1.00100094e+00
1.00091928e+00
1.00083617e+00
1.00075179e+00
1.00066635e+00
1.00058007e+00
1.00049318e+00
1.00040596e+00
1.00031868e+00
1.00023159e+00
1.00014498e+00
1.00005910e+00
9.99974224e-01
9.99890577e-01
9.99808383e-01
9.99727840e-01
9.99649128e-01
9.99572404e-01
9.99497803e-01
9.99425448e-01
9.99355448e-01
9.99287894e-01
9.99222878e-01
9.99160490e-01
9.99100816e-01
9.99043938e-01
9.98989954e-01
9.98938970e-01
9.98891072e-01
9.98846350e-01
9.98804927e-01
9.98766892e-01
9.98732279e-01
9.98701165e-01
9.98673647e-01
9.98649663e-01
9.98629112e-01
9.98612067e-01
9.98598462e-01
9.98587878e-01
9.98580162e-01
9.98575453e-01
9.98573202e-01
9.98572621e-01
9.98573957e-01
9.98577219e-01
9.98581013e-01
9.98584925e-01
9.98589884e-01
9.98594986e-01
9.98598666e-01
9.98601691e-01
9.98604898e-01
9.98606946e-01
1.00281885e+00
1.00282201e+00
1.00282887e+00
1.00283822e+00
1.00285048e+00
1.00286606e+00
1.00288394e+00
1.00290386e+00
1.00292598e+00
1.00294959e+00
1.00297412e+00
1.00299957e+00
1.00302547e+00
1.00305106e+00
1.00307617e+00
1.00310058e+00
1.00312360e+00
1.00314485e+00
1.00316424e+00
1.00318136e+00
1.00319581e+00
1.00320745e+00
1.00321617e+00
1.00322169e+00
1.00322391e+00
1.00322283e+00
1.00321839e+00
1.00321058e+00
1.00319946e+00
1.00318513e+00
1.00316769e+00
1.00314728e+00
1.00312405e+00
1.00309821e+00
1.00306992e+00
1.00303939e+00
1.00300684e+00
1.00297246e+00
1.00293645e+00
1.00289900e+00
1.00286030e+00
1.00282051e+00
1.00277976e+00
1.00273820e+00
1.00269592e+00
1.00265301e+00
1.00260954e+00
1.00256554e+00
1.00252103e+00
1.00247603e+00
1.00243050e+00
1.00238443e+00
1.00233776e+00
1.00229043e+00
1.00224236e+00
1.00219349e+00
1.00214372e+00
1.00209295e+00
1.00204110e+00
1.00198805e+00
1.00193370e+00
1.00187797e+00
1.00182075e+00
1.00176194e+00
1.00170146e+00
1.00163923e+00
1.00157519e+00
1.00150927e+00
1.00144143e+00
1.00137165e+00
1.00129993e+00
1.00122628e+00
1.00115075e+00
1.00107339e+00
1.00099431e+00
1.00091363e+00
1.00083149e+00
1.00074809e+00
1.00066360e+00
1.00057827e+00
1.00049234e+00
1.00040606e+00
1.00031971e+00
1.00023354e+00
1.00014784e+00
1.00006286e+00
9.99978857e-01
9.99896066e-01
9.99814703e-01
9.99734962e-01
9.99657017e-01
9.99581021e-01
9.99507104e-01
9.99435380e-01
9.99365950e-01
9.99298903e-01
9.99234318e-01
9.99172274e-01
9.99112853e-01
9.99056133e-01
9.99002195e-01
9.98951133e-01
9.98903046e-01
9.98858015e-01
9.98816133e-01
9.98777506e-01
9.98742209e-01
9.98710267e-01
9.98681745e-01
9.98656705e-01
9.98635059e-01
9.98616694e-01
9.98601652e-01
9.98589809e-01
9.98580744e-01
9.98574318e-01
9.98570563e-01
9.98568888e-01
9.98568698e-01
9.98570166e-01
9.98572956e-01
9.98576052e-01
9.98579495e-01
9.98583364e-01
9.98586606e-01
9.98589263e-01
9.98591821e-01
9.98593048e-01
1.00284713e+00
1.00284961e+00
1.00285476e+00
1.00286389e+00
1.00287581e+00
1.00288939e+00
1.00290579e+00
1.00292502e+00
1.00294542e+00
1.00296693e+00
1.00299017e+00
1.00301417e+00
1.00303798e+00
1.00306187e+00
1.00308564e+00
1.00310833e+00
1.00312962e+00
1.00314956e+00
1.00316766e+00
1.00318336e+00
1.00319660e+00
1.00320724e+00
1.00321493e+00
1.00321948e+00
1.00322090e+00
1.00321908e+00
1.00321391e+00
1.00320545e+00
1.00319375e+00
1.00317886e+00
1.00316088e+00
1.00313994e+00
1.00311622e+00
1.00308987e+00
1.00306107e+00
1.00303004e+00
1.00299696e+00
1.00296205e+00
1.00292549e+00
1.00288748e+00
1.00284821e+00
1.00280782e+00
1.00276648e+00
1.00272431e+00
1.00268142e+00
1.00263790e+00
1.00259383e+00
1.00254924e+00
1.00250417e+00
1.00245862e+00
1.00241260e+00
1.00236607e+00
1.00231901e+00
1.00227135e+00
1.00222303e+00
1.00217399e+00
1.00212414e+00
1.00207339e+00
1.00202165e+00
1.00196882e+00
1.00191480e+00
1.00185949e+00
1.00180279e+00
1.00174459e+00
1.00168481e+00
1.00162335e+00
1.00156013e+00
1.00149509e+00
1.00142819e+00
1.00135937e+00
1.00128863e+00
1.00121599e+00
1.00114146e+00
1.00106513e+00
1.00098707e+00
1.00090741e+00
1.00082629e+00
1.00074389e+00
1.00066042e+00
1.00057610e+00
1.00049116e+00
1.00040587e+00
1.00032050e+00
1.00023531e+00
1.00015056e+00
1.00006653e+00
9.99983458e-01
9.99901572e-01
9.99821088e-01
9.99742196e-01
9.99665063e-01
9.99589836e-01
9.99516642e-01
9.99445586e-01
9.99376758e-01
9.99310243e-01
9.99246114e-01
9.99184437e-01
9.99125280e-01
9.99068724e-01
9.99014843e-01
9.98963705e-01
9.98915410e-01
9.98870060e-01
9.98827720e-01
9.98788468e-01
9.98752428e-01
9.98719658e-01
9.98690132e-01
9.98663913e-01
9.98641089e-01
9.98621499e-01
9.98604957e-01
9.98591565e-01
9.98581199e-01
9.98573287e-01
9.98567692e-01
9.98564588e-01
9.98563284e-01
9.98563019e-01
9.98564166e-01
9.98566554e-01
9.98568904e-01
9.98571164e-01
9.98573920e-01
9.98576313e-01
9.98577594e-01
9.98578401e-01
1.00287520e+00
1.00287759e+00
1.00288264e+00
1.00289045e+00
1.00290094e+00
1.00291392e+00
1.00292925e+00
1.00294648e+00
1.00296533e+00
1.00298575e+00
1.00300721e+00
1.00302914e+00
1.00305148e+00
1.00307394e+00
1.00309581e+00
1.00311679e+00
1.00313678e+00
1.00315529e+00
1.00317184e+00
1.00318629e+00
1.00319846e+00
1.00320795e+00
1.00321457e+00
1.00321825e+00
1.00321884e+00
1.00321620e+00
1.00321031e+00
1.00320120e+00
1.00318887e+00
1.00317336e+00
1.00315480e+00
1.00313330e+00
1.00310901e+00
1.00308208e+00
1.00305272e+00
1.00302110e+00
1.00298743e+00
1.00295190e+00
1.00291471e+00
1.00287607e+00
1.00283613e+00
1.00279508e+00
1.00275306e+00
1.00271021e+00
1.00266663e+00
1.00262244e+00
1.00257770e+00
1.00253246e+00
1.00248677e+00
1.00244063e+00
1.00239407e+00
1.00234705e+00
1.00229955e+00
1.00225152e+00
1.00220293e+00
1.00215369e+00
1.00210374e+00
1.00205300e+00
1.00200137e+00
1.00194876e+00
1.00189506e+00
1.00184017e+00
1.00178400e+00
1.00172642e+00
1.00166733e+00
1.00160665e+00
1.00154428e+00
1.00148014e+00
1.00141418e+00
1.00134635e+00
1.00127662e+00
1.00120500e+00
1.00113152e+00
1.00105624e+00
1.00097923e+00
1.00090062e+00
1.00082056e+00
1.00073922e+00
1.00065680e+00
1.00057352e+00
1.00048963e+00
1.00040537e+00
1.00032103e+00
1.00023686e+00
1.00015312e+00
1.00007008e+00
9.99987974e-01
9.99907036e-01
9.99827470e-01
9.99749463e-01
9.99673177e-01
9.99598752e-01
9.99526307e-01
9.99455942e-01
9.99387742e-01
9.99321776e-01
9.99258113e-01
9.99196815e-01
9.99137937e-01
9.99081543e-01
9.99027709e-01
9.98976506e-01
9.98928004e-01
9.98882297e-01
9.98839485e-01
9.98799634e-01
9.98762809e-01
9.98729120e-01
9.98698624e-01
9.98671274e-01
9.98647104e-01
9.98626181e-01
9.98608339e-01
9.98593362e-01
9.98581297e-01
9.98572007e-01
9.98564967e-01
9.98559994e-01
9.98557133e-01
9.98555803e-01
9.98555452e-01
9.98556172e-01
9.98557630e-01
9.98559175e-01
9.98560733e-01
9.98562230e-01
9.98563442e-01
9.98564097e-01
1.00290409e+00
1.00290598e+00
1.00291089e+00
1.00291761e+00
1.00292681e+00
1.00293908e+00
1.00295315e+00
1.00296862e+00
1.00298616e+00
1.00300521e+00
1.00302477e+00
1.00304503e+00
1.00306596e+00
1.00308667e+00
1.00310677e+00
1.00312634e+00
1.00314490e+00
1.00316184e+00
1.00317704e+00
1.00319036e+00
1.00320132e+00
1.00320966e+00
1.00321533e+00
1.00321813e+00
1.00321782e+00
1.00321438e+00
1.00320779e+00
1.00319799e+00
1.00318497e+00
1.00316883e+00
1.00314966e+00
1.00312754e+00
1.00310262e+00
1.00307507e+00
1.00304507e+00
1.00301279e+00
1.00297845e+00
1.00294223e+00
1.00290434e+00
1.00286497e+00
1.00282430e+00
1.00278250e+00
1.00273973e+00
1.00269612e+00
1.00265179e+00
1.00260685e+00
1.00256138e+00
1.00251543e+00
1.00246906e+00
1.00242229e+00
1.00237513e+00
1.00232757e+00
1.00227960e+00
1.00223119e+00
1.00218228e+00
1.00213283e+00
1.00208276e+00
1.00203200e+00
1.00198047e+00
1.00192806e+00
1.00187467e+00
1.00182020e+00
1.00176454e+00
1.00170758e+00
1.00164920e+00
1.00158929e+00
1.00152777e+00
1.00146454e+00
1.00139953e+00
1.00133269e+00
1.00126398e+00
1.00119341e+00
1.00112098e+00
1.00104677e+00
1.00097084e+00
1.00089331e+00
1.00081433e+00
1.00073408e+00
1.00065274e+00
1.00057054e+00
1.00048773e+00
1.00040455e+00
1.00032127e+00
1.00023815e+00
1.00015546e+00
1.00007344e+00
9.99992347e-01
9.99912390e-01
9.99833776e-01
9.99756684e-01
9.99681272e-01
9.99607674e-01
9.99536000e-01
9.99466345e-01
9.99398787e-01
9.99333388e-01
9.99270203e-01
9.99209288e-01
9.99150696e-01
9.99094476e-01
9.99040687e-01
9.98989408e-01
9.98940709e-01
9.98894651e-01
9.98851337e-01
9.98810870e-01
9.98773294e-01
9.98738666e-01
9.98707111e-01
9.98678659e-01
9.98653217e-01
9.98630827e-01
9.98611564e-01
9.98595181e-01
9.98581440e-01
9.98570439e-01
9.98561986e-01
9.98555472e-01
9.98550806e-01
9.98548072e-01
9.98546556e-01
9.98545749e-01
9.98545929e-01
9.98546747e-01
9.98547355e-01
9.98547911e-01
9.98548773e-01
9.98549172e-01
1.00293386e+00
1.00293498e+00
1.00293874e+00
1.00294510e+00
1.00295373e+00
1.00296438e+00
1.00297702e+00
1.00299166e+00
1.00300773e+00
1.00302481e+00
1.00304297e+00
1.00306193e+00
1.00308101e+00
1.00309996e+00
1.00311875e+00
1.00313686e+00
1.00315375e+00
1.00316934e+00
1.00318340e+00
1.00319543e+00
1.00320517e+00
1.00321254e+00
1.00321728e+00
1.00321911e+00
1.00321797e+00
1.00321379e+00
1.00320646e+00
1.00319592e+00
1.00318224e+00
1.00316545e+00
1.00314561e+00
1.00312282e+00
1.00309724e+00
1.00306902e+00
1.00303831e+00
1.00300532e+00
1.00297024e+00
1.00293326e+00
1.00289459e+00
1.00285443e+00
1.00281295e+00
1.00277033e+00
1.00272673e+00
1.00268229e+00
1.00263714e+00
1.00259138e+00
1.00254511e+00
1.00249840e+00
1.00245129e+00
1.00240382e+00
1.00235602e+00
1.00230789e+00
1.00225941e+00
1.00221057e+00
1.00216132e+00
1.00211162e+00
1.00206141e+00
1.00201062e+00
1.00195916e+00
1.00190693e+00
1.00185384e+00
1.00179978e+00
1.00174462e+00
1.00168825e+00
1.00163056e+00
1.00157143e+00
1.00151074e+00
1.00144840e+00
1.00138434e+00
1.00131849e+00
1.00125080e+00
1.00118127e+00
1.00110991e+00
1.00103678e+00
1.00096194e+00
1.00088551e+00
1.00080764e+00
1.00072849e+00
1.00064826e+00
1.00056717e+00
1.00048546e+00
1.00040339e+00
1.00032120e+00
1.00023917e+00
1.00015755e+00
1.00007660e+00
9.99996531e-01
9.99917579e-01
9.99839938e-01
9.99763782e-01
9.99689260e-01
9.99616501e-01
9.99545612e-01
9.99476676e-01
9.99409763e-01
9.99344933e-01
9.99282232e-01
9.99221700e-01
9.99163386e-01
9.99107338e-01
9.99053603e-01
9.99002236e-01
9.98953320e-01
9.98906929e-01
9.98863121e-01
9.98821992e-01
9.98783656e-01
9.98748150e-01
9.98715508e-01
9.98685847e-01
9.98659201e-01
9.98635451e-01
9.98614596e-01
9.98596706e-01
9.98581543e-01
9.98568827e-01
9.98558601e-01
9.98550696e-01
9.98544572e-01
9.98540056e-01
9.98537141e-01
9.98535339e-01
9.98534211e-01
9.98533721e-01
9.98533663e-01
9.98533768e-01
9.98533923e-01
9.98533804e-01
1.00296323e+00
1.00296402e+00
1.00296700e+00
1.00297267e+00
1.00298046e+00
1.00298992e+00
1.00300145e+00
1.00301488e+00
1.00302939e+00
1.00304502e+00
1.00306184e+00
1.00307917e+00
1.00309658e+00
1.00311416e+00
1.00313150e+00
1.00314801e+00
1.00316354e+00
1.00317794e+00
1.00319069e+00
1.00320148e+00
1.00321022e+00
1.00321663e+00
1.00322037e+00
1.00322133e+00
1.00321943e+00
1.00321448e+00
1.00320639e+00
1.00319517e+00
1.00318082e+00
1.00316333e+00
1.00314280e+00
1.00311933e+00
1.00309305e+00
1.00306409e+00
1.00303263e+00
1.00299887e+00
1.00296299e+00
1.00292519e+00
1.00288568e+00
1.00284464e+00
1.00280228e+00
1.00275877e+00
1.00271427e+00
1.00266893e+00
1.00262289e+00
1.00257626e+00
1.00252913e+00
1.00248158e+00
1.00243369e+00
1.00238548e+00
1.00233699e+00
1.00228823e+00
1.00223921e+00
1.00218990e+00
1.00214028e+00
1.00209031e+00
1.00203993e+00
1.00198907e+00
1.00193765e+00
1.00188559e+00
1.00183277e+00
1.00177908e+00
1.00172441e+00
1.00166862e+00
1.00161159e+00