# vtk DataFile Version 2.0
LBM Flow Field - Timestep 800
ASCII
DATASET STRUCTURED_POINTS
DIMENSIONS 128 128 1
ORIGIN 0.0 0.0 0.0
SPACING 1.0 1.0 1.0
POINT_DATA 16384
SCALARS density double 1
LOOKUP_TABLE default
1.00747064e+00
1.00741141e+00
1.00733099e+00
1.00728066e+00
1.00720580e+00
1.00711659e+00
1.00701980e+00
1.00691988e+00
1.00681205e+00
1.00670211e+00
1.00659088e+00
1.00648059e+00
1.00637140e+00
1.00626525e+00
1.00616201e+00
1.00606230e+00
1.00596569e+00
1.00587185e+00
1.00578026e+00
1.00569097e+00
1.00560364e+00
1.00551859e+00
1.00543668e+00
1.00535917e+00
1.00528749e+00
1.00522351e+00
1.00516913e+00
1.00512611e+00
1.00509587e+00
1.00507932e+00
1.00507662e+00
1.00508716e+00
1.00510934e+00
1.00514067e+00
1.00517777e+00
1.00521664e+00
1.00525282e+00
1.00528176e+00
1.00529913e+00
1.00530111e+00
1.00528455e+00
1.00524703e+00
1.00518682e+00
1.00510272e+00
1.00499383e+00
1.00485948e+00
1.00469916e+00
1.00451259e+00
1.00429994e+00
1.00406209e+00
1.00380086e+00
1.00351913e+00
1.00322082e+00
1.00291066e+00
1.00259384e+00
1.00227549e+00
1.00196022e+00
1.00165168e+00
1.00135227e+00
1.00106303e+00
1.00078370e+00
1.00051300e+00
1.00024895e+00
9.99989301e-01
9.99731953e-01
9.99475361e-01
9.99218810e-01
9.98962600e-01
9.98708086e-01
9.98457592e-01
9.98214186e-01
9.97981376e-01
9.97762716e-01
9.97561403e-01
9.97379889e-01
9.97219565e-01
9.97080559e-01
9.96961674e-01
9.96860498e-01
9.96773656e-01
9.96697188e-01
9.96626987e-01
9.96559248e-01
9.96490837e-01
9.96419537e-01
9.96344140e-01
9.96264387e-01
9.96180769e-01
9.96094267e-01
9.96006074e-01
9.95917356e-01
9.95829092e-01
9.95741991e-01
9.95656529e-01
9.95572992e-01
9.95491533e-01
9.95412260e-01
9.95335304e-01
9.95260764e-01
9.95188699e-01
9.95119132e-01
9.95052044e-01
9.94987235e-01
9.94924453e-01
9.94863382e-01
9.94803689e-01
9.94744817e-01
9.94686395e-01
9.94627985e-01
9.94569200e-01
9.94509382e-01
9.94448515e-01
9.94386148e-01
9.94322300e-01
9.94256557e-01
9.94189764e-01
9.94121335e-01
9.94052944e-01
9.93983833e-01
9.93915538e-01
9.93847607e-01
9.93786362e-01
9.93723063e-01
9.93661377e-01
9.93611957e-01
9.93584516e-01
9.93506731e-01
9.93448360e-01
1.00740593e+00
1.00737072e+00
1.00729723e+00
1.00724540e+00
1.00717021e+00
1.00708931e+00
1.00699568e+00
1.00690000e+00
1.00679644e+00
1.00669179e+00
1.00658437e+00
1.00647825e+00
1.00637258e+00
1.00626980e+00
1.00616916e+00
1.00607179e+00
1.00597701e+00
1.00588490e+00
1.00579473e+00
1.00570672e+00
1.00562061e+00
1.00553683e+00
1.00545602e+00
1.00537945e+00
1.00530850e+00
1.00524493e+00
1.00519046e+00
1.00514681e+00
1.00511530e+00
1.00509681e+00
1.00509150e+00
1.00509876e+00
1.00511711e+00
1.00514421e+00
1.00517690e+00
1.00521143e+00
1.00524362e+00
1.00526917e+00
1.00528394e+00
1.00528416e+00
1.00526667e+00
1.00522892e+00
1.00516898e+00
1.00508547e+00
1.00497739e+00
1.00484403e+00
1.00468491e+00
1.00449990e+00
1.00428929e+00
1.00405407e+00
1.00379601e+00
1.00351789e+00
1.00322335e+00
1.00291682e+00
1.00260312e+00
1.00228708e+00
1.00197310e+00
1.00166470e+00
1.00136434e+00
1.00107320e+00
1.00079128e+00
1.00051760e+00
1.00025049e+00
9.99988020e-01
9.99728380e-01
9.99470232e-01
9.99212997e-01
9.98957024e-01
9.98703629e-01
9.98455007e-01
9.98214029e-01
9.97983939e-01
9.97768000e-01
9.97569104e-01
9.97389429e-01
9.97230146e-01
9.97091254e-01
9.96971533e-01
9.96868668e-01
9.96779488e-01
9.96700316e-01
9.96627371e-01
9.96557161e-01
9.96486801e-01
9.96414226e-01
9.96338265e-01
9.96258582e-01
9.96175512e-01
9.96089841e-01
9.96002572e-01
9.95914717e-01
9.95827167e-01
9.95740608e-01
9.95655534e-01
9.95572261e-01
9.95490990e-01
9.95411852e-01
9.95334965e-01
9.95260385e-01
9.95188158e-01
9.95118264e-01
9.95050657e-01
9.94985136e-01
9.94921525e-01
9.94859496e-01
9.94798785e-01
9.94738895e-01
9.94679602e-01
9.94620373e-01
9.94561023e-01
9.94500896e-01
9.94440199e-01
9.94378212e-01
9.94315413e-01
9.94250993e-01
9.94186377e-01
9.94120214e-01
9.94054910e-01
9.93988402e-01
9.93924751e-01
9.93860172e-01
9.93802072e-01
9.93741081e-01
9.93689258e-01
9.93638383e-01
9.93607194e-01
9.93538269e-01
9.93511073e-01
1.00731094e+00
1.00728041e+00
1.00725032e+00
1.00718674e+00
1.00711285e+00
1.00704139e+00
1.00695747e+00
1.00686602e+00
1.00677087e+00
1.00667360e+00
1.00657375e+00
1.00647397e+00
1.00637498e+00
1.00627766e+00
1.00618234e+00
1.00608925e+00
1.00599811e+00
1.00590907e+00
1.00582173e+00
1.00573575e+00
1.00565131e+00
1.00556894e+00
1.00548916e+00
1.00541307e+00
1.00534217e+00
1.00527807e+00
1.00522246e+00
1.00517698e+00
1.00514292e+00
1.00512115e+00
1.00511191e+00
1.00511464e+00
1.00512801e+00
1.00514985e+00
1.00517729e+00
1.00520681e+00
1.00523451e+00
1.00525634e+00
1.00526831e+00
1.00526671e+00
1.00524832e+00
1.00521048e+00
1.00515110e+00
1.00506860e+00
1.00496184e+00
1.00483007e+00
1.00467281e+00
1.00448996e+00
1.00428188e+00
1.00404956e+00
1.00379472e+00
1.00351997e+00
1.00322875e+00
1.00292521e+00
1.00261391e+00
1.00229946e+00
1.00198611e+00
1.00167737e+00
1.00137574e+00
1.00108256e+00
1.00079806e+00
1.00052151e+00
1.00025152e+00
9.99986430e-01
9.99724640e-01
9.99464989e-01
9.99207008e-01
9.98951085e-01
9.98698501e-01
9.98451346e-01
9.98212323e-01
9.97984461e-01
9.97770770e-01
9.97573890e-01
9.97395759e-01
9.97237359e-01
9.97098566e-01
9.96978136e-01
9.96873823e-01
9.96782618e-01
9.96701081e-01
9.96625707e-01
9.96553273e-01
9.96481118e-01
9.96407326e-01
9.96330775e-01
9.96251083e-01
9.96168466e-01
9.96083550e-01
9.95997171e-01
9.95910198e-01
9.95823426e-01
9.95737508e-01
9.95652918e-01
9.95569981e-01
9.95488929e-01
9.95409904e-01
9.95332969e-01
9.95258161e-01
9.95185509e-01
9.95114950e-01
9.95046370e-01
9.94979655e-01
9.94914657e-01
9.94851087e-01
9.94788702e-01
9.94727294e-01
9.94666590e-01
9.94606178e-01
9.94545944e-01
9.94485707e-01
9.94425227e-01
9.94364246e-01
9.94303104e-01
9.94241593e-01
9.94180016e-01
9.94118427e-01
9.94057453e-01
9.93996901e-01
9.93939135e-01
9.93882036e-01
9.93825859e-01
9.93775109e-01
9.93734756e-01
9.93682223e-01
9.93634157e-01
9.93621255e-01
9.93600278e-01
1.00722776e+00
1.00719399e+00
1.00715568e+00
1.00709996e+00
1.00704338e+00
1.00697675e+00
1.00690095e+00
1.00682055e+00
1.00673657e+00
1.00664879e+00
1.00655931e+00
1.00646921e+00
1.00637926e+00
1.00628980e+00
1.00620158e+00
1.00611461e+00
1.00602876e+00
1.00594387e+00
1.00585992e+00
1.00577675e+00
1.00569453e+00
1.00561368e+00
1.00553495e+00
1.00545943e+00
1.00538850e+00
1.00532368e+00
1.00526663e+00
1.00521890e+00
1.00518174e+00
1.00515600e+00
1.00514193e+00
1.00513910e+00
1.00514632e+00
1.00516165e+00
1.00518246e+00
1.00520556e+00
1.00522738e+00
1.00524410e+00
1.00525197e+00
1.00524740e+00
1.00522718e+00
1.00518855e+00
1.00512924e+00
1.00504752e+00
1.00494205e+00
1.00481193e+00
1.00465665e+00
1.00447610e+00
1.00427066e+00
1.00404131e+00
1.00378976e+00
1.00351850e+00
1.00323079e+00
1.00293053e+00
1.00262203e+00
1.00230965e+00
1.00199748e+00
1.00168894e+00
1.00138656e+00
1.00109182e+00
1.00080516e+00
1.00052611e+00
1.00025359e+00
9.99986198e-01
9.99722582e-01
9.99461761e-01
9.99203376e-01
9.98947836e-01
9.98696362e-01
9.98450908e-01
9.98213971e-01
9.97988324e-01
9.97776704e-01
9.97581480e-01
9.97404356e-01
9.97246149e-01
9.97106661e-01
9.96984681e-01
9.96878101e-01
9.96784144e-01
9.96699659e-01
9.96621445e-01
9.96546556e-01
9.96472540e-01
9.96397589e-01
9.96320586e-01
9.96241063e-01
9.96159085e-01
9.96075093e-01
9.95989749e-01
9.95903788e-01
9.95817907e-01
9.95732704e-01
9.95648647e-01
9.95566072e-01
9.95485199e-01
9.95406154e-01
9.95328992e-01
9.95253723e-01
9.95180305e-01
9.95108671e-01
9.95038729e-01
9.94970373e-01
9.94903464e-01
9.94837876e-01
9.94773456e-01
9.94710071e-01
9.94647563e-01
9.94585841e-01
9.94524783e-01
9.94464356e-01
9.94404458e-01
9.94345197e-01
9.94286598e-01
9.94228782e-01
9.94171745e-01
9.94116082e-01
9.94061800e-01
9.94008905e-01
9.93957852e-01
9.93910392e-01
9.93864351e-01
9.93819704e-01
9.93781633e-01
9.93749425e-01
9.93710973e-01
9.93686552e-01
9.93659769e-01
1.00711076e+00
1.00707989e+00
1.00704051e+00
1.00700158e+00
1.00695456e+00
1.00689371e+00
1.00683074e+00
1.00676447e+00
1.00669242e+00
1.00661710e+00
1.00654044e+00
1.00646222e+00
1.00638314e+00
1.00630382e+00
1.00622438e+00
1.00614496e+00
1.00606571e+00
1.00598630e+00
1.00590673e+00
1.00582727e+00
1.00574806e+00
1.00566947e+00
1.00559241e+00
1.00551793e+00
1.00544728e+00
1.00538193e+00
1.00532343e+00
1.00527320e+00
1.00523247e+00
1.00520203e+00
1.00518217e+00
1.00517256e+00
1.00517221e+00
1.00517943e+00
1.00519194e+00
1.00520695e+00
1.00522125e+00
1.00523143e+00
1.00523396e+00
1.00522543e+00
1.00520261e+00
1.00516263e+00
1.00510303e+00
1.00502182e+00
1.00491749e+00
1.00478902e+00
1.00463581e+00
1.00445779e+00
1.00425537e+00
1.00402955e+00
1.00378197e+00
1.00351498e+00
1.00323158e+00
1.00293537e+00
1.00263033e+00
1.00232055e+00
1.00200992e+00
1.00170177e+00
1.00139868e+00
1.00110228e+00
1.00081327e+00
1.00053150e+00
1.00025620e+00
9.99986288e-01
9.99720699e-01
9.99458651e-01
9.99199901e-01
9.98944885e-01
9.98694754e-01
9.98451300e-01
9.98216783e-01
9.97993687e-01
9.97784430e-01
9.97591069e-01
9.97415042e-01
9.97256970e-01
9.97116573e-01
9.96992672e-01
9.96883321e-01
9.96786011e-01
9.96697931e-01
9.96616244e-01
9.96538339e-01
9.96462018e-01
9.96385613e-01
9.96308018e-01
9.96228659e-01
9.96147410e-01
9.96064480e-01
9.95980302e-01
9.95895429e-01
9.95810436e-01
9.95725859e-01
9.95642162e-01
9.95559709e-01
9.95478729e-01
9.95399357e-01
9.95321657e-01
9.95245604e-01
9.95171105e-01
9.95098092e-01
9.95026505e-01
9.94956243e-01
9.94887225e-01
9.94819473e-01
9.94752971e-01
9.94687649e-01
9.94623541e-01
9.94560792e-01
9.94499367e-01
9.94439280e-01
9.94380776e-01
9.94324029e-01
9.94268963e-01
9.94215874e-01
9.94164942e-01
9.94116152e-01
9.94069900e-01
9.94026438e-01
9.93984413e-01
9.93945419e-01
9.93911877e-01
9.93878626e-01
9.93842793e-01
9.93820072e-01
9.93800907e-01
9.93771633e-01
9.93748451e-01
1.00696989e+00
1.00694795e+00
1.00691840e+00
1.00688533e+00
1.00684375e+00
1.00679876e+00
1.00675076e+00
1.00669651e+00
1.00663853e+00
1.00657871e+00
1.00651619e+00
1.00645130e+00
1.00638481e+00
1.00631711e+00
1.00624799e+00
1.00617750e+00
1.00610583e+00
1.00603302e+00
1.00595904e+00
1.00588409e+00
1.00580856e+00
1.00573307e+00
1.00565838e+00
1.00558547e+00
1.00551558e+00
1.00545010e+00
1.00539040e+00
1.00533777e+00
1.00529335e+00
1.00525790e+00
1.00523176e+00
1.00521468e+00
1.00520587e+00
1.00520396e+00
1.00520705e+00
1.00521274e+00
1.00521827e+00
1.00522063e+00
1.00521659e+00
1.00520294e+00
1.00517650e+00
1.00513433e+00
1.00507381e+00
1.00499273e+00
1.00488938e+00
1.00476256e+00
1.00461160e+00
1.00443635e+00
1.00423724e+00
1.00401524e+00
1.00377192e+00
1.00350946e+00
1.00323065e+00
1.00293878e+00
1.00263753e+00
1.00233068e+00
1.00202191e+00
1.00171447e+00
1.00141095e+00
1.00111313e+00
1.00082197e+00
1.00053760e+00
1.00025964e+00
9.99987309e-01
9.99719835e-01
9.99456649e-01
9.99197630e-01
9.98943235e-01
9.98694534e-01
9.98453141e-01
9.98221066e-01
9.98000485e-01
9.97793487e-01
9.97601812e-01
9.97426635e-01
9.97268399e-01
9.97126759e-01
9.97000601e-01
9.96888169e-01
9.96787243e-01
9.96695365e-01
9.96610066e-01
9.96529055e-01
9.96450368e-01
9.96372451e-01
9.96294189e-01
9.96214887e-01
9.96134223e-01
9.96052179e-01
9.95968966e-01
9.95884952e-01
9.95800598e-01
9.95716386e-01
9.95632761e-01
9.95550093e-01
9.95468656e-01
9.95388608e-01
9.95309994e-01
9.95232790e-01
9.95156944e-01
9.95082372e-01
9.95009011e-01
9.94936856e-01
9.94865948e-01
9.94796328e-01
9.94728110e-01
9.94661460e-01
9.94596529e-01
9.94533462e-01
9.94472504e-01
9.94413888e-01
9.94357828e-01
9.94304477e-01
9.94254072e-01
9.94206834e-01
9.94162967e-01
9.94122151e-01
9.94084462e-01
9.94050608e-01
9.94020223e-01
9.93991014e-01
9.93964930e-01
9.93944598e-01
9.93923833e-01
9.93902684e-01
9.93886847e-01
9.93869369e-01
9.93857099e-01
1.00681703e+00
1.00679940e+00
1.00677937e+00
1.00675378e+00
1.00672431e+00
1.00669412e+00
1.00665829e+00
1.00661856e+00
1.00657735e+00
1.00653303e+00
1.00648523e+00
1.00643519e+00
1.00638255e+00
1.00632711e+00
1.00626916e+00
1.00620873e+00
1.00614565e+00
1.00608026e+00
1.00601277e+00
1.00594338e+00
1.00587264e+00
1.00580126e+00
1.00572992e+00
1.00565963e+00
1.00559152e+00
1.00552676e+00
1.00546655e+00
1.00541209e+00
1.00536432e+00
1.00532395e+00
1.00529131e+00
1.00526630e+00
1.00524832e+00
1.00523635e+00
1.00522888e+00
1.00522403e+00
1.00521952e+00
1.00521278e+00
1.00520096e+00
1.00518106e+00
1.00514999e+00
1.00510475e+00
1.00504257e+00
1.00496102e+00
1.00485818e+00
1.00473269e+00
1.00458378e+00
1.00441130e+00
1.00421563e+00
1.00399772e+00
1.00375905e+00
1.00350163e+00
1.00322795e+00
1.00294100e+00
1.00264406e+00
1.00234062e+00
1.00203411e+00
1.00172766e+00
1.00142389e+00
1.00112475e+00
1.00083142e+00
1.00054442e+00
1.00026371e+00
9.99988880e-01
9.99719463e-01
9.99455124e-01
9.99195873e-01
9.98942190e-01
9.98695055e-01
9.98455894e-01
9.98226441e-01
9.98008541e-01
9.97803927e-01
9.97614002e-01
9.97439657e-01
9.97281149e-01
9.97138067e-01
9.97009372e-01
9.96893512e-01
9.96788585e-01
9.96692513e-01
9.96603219e-01
9.96518757e-01
9.96437412e-01
9.96357753e-01
9.96278649e-01
9.96199270e-01
9.96119072e-01
9.96037781e-01
9.95955361e-01
9.95871981e-01
9.95787965e-01
9.95703741e-01
9.95619756e-01
9.95536415e-01
9.95454051e-01
9.95372876e-01
9.95292972e-01
9.95214349e-01
9.95136988e-01
9.95060837e-01
9.94985867e-01
9.94912154e-01
9.94839839e-01
9.94769051e-01
9.94700009e-01
9.94633028e-01
9.94568383e-01
9.94506287e-01
9.94447123e-01
9.94391243e-01
9.94338842e-01
9.94290162e-01
9.94245593e-01
9.94205067e-01
9.94168695e-01
9.94136729e-01
9.94108655e-01
9.94083772e-01
9.94063427e-01
9.94046579e-01
9.94029915e-01
9.94016462e-01
9.94007767e-01
9.93996243e-01
9.93984853e-01
9.93976979e-01
9.93968234e-01
1.00665713e+00
1.00664445e+00
1.00662944e+00
1.00661409e+00
1.00659782e+00
1.00657868e+00
1.00655673e+00
1.00653392e+00
1.00650838e+00
1.00647925e+00
1.00644734e+00
1.00641248e+00
1.00637387e+00
1.00633143e+00
1.00628523e+00
1.00623536e+00
1.00618176e+00
1.00612468e+00
1.00606450e+00
1.00600175e+00
1.00593697e+00
1.00587080e+00
1.00580403e+00
1.00573761e+00
1.00567246e+00
1.00560953e+00
1.00554986e+00
1.00549441e+00
1.00544396e+00
1.00539912e+00
1.00536019e+00
1.00532719e+00
1.00529977e+00
1.00527721e+00
1.00525848e+00
1.00524219e+00
1.00522661e+00
1.00520964e+00
1.00518886e+00
1.00516152e+00
1.00512469e+00
1.00507534e+00
1.00501058e+00
1.00492781e+00
1.00482491e+00
1.00470035e+00
1.00455326e+00
1.00438342e+00
1.00419120e+00
1.00397747e+00
1.00374362e+00
1.00349145e+00
1.00322320e+00
1.00294147e+00
1.00264921e+00
1.00234955e+00
1.00204567e+00
1.00174056e+00
1.00143684e+00
1.00113660e+00
1.00084131e+00
1.00055181e+00
1.00026845e+00
9.99991203e-01
9.99719913e-01
9.99454491e-01
9.99195087e-01
9.98942203e-01
9.98696725e-01
9.98459877e-01
9.98233106e-01
9.98017911e-01
9.97815660e-01
9.97627410e-01
9.97453768e-01
9.97294811e-01
9.97150076e-01
9.97018613e-01
9.96899091e-01
9.96789936e-01
9.96689458e-01
9.96595968e-01
9.96507857e-01
9.96423649e-01
9.96342017e-01
9.96261803e-01
9.96182036e-01
9.96101951e-01
9.96021014e-01
9.95938952e-01
9.95855744e-01
9.95771591e-01
9.95686864e-01
9.95602030e-01
9.95517559e-01
9.95433842e-01
9.95351169e-01
9.95269722e-01
9.95189572e-01
9.95110723e-01
9.95033207e-01
9.94957107e-01
9.94882524e-01
9.94809650e-01
9.94738791e-01
9.94670265e-01
9.94604358e-01
9.94541463e-01
9.94481988e-01
9.94426249e-01
9.94374528e-01
9.94327199e-01
9.94284524e-01
9.94246684e-01
9.94213671e-01
9.94185411e-01
9.94161999e-01
9.94143413e-01
9.94128398e-01
9.94116420e-01
9.94108848e-01
9.94103781e-01
9.94098297e-01
9.94094792e-01
9.94093290e-01
9.94089500e-01
9.94083657e-01
9.94078340e-01
1.00649028e+00
1.00648332e+00
1.00647552e+00
1.00646983e+00
1.00646416e+00
1.00645728e+00
1.00645054e+00
1.00644250e+00
1.00643148e+00
1.00641829e+00
1.00640216e+00
1.00638169e+00
1.00635686e+00
1.00632765e+00
1.00629345e+00
1.00625433e+00
1.00621066e+00
1.00616268e+00
1.00611082e+00
1.00605575e+00
1.00599809e+00
1.00593852e+00
1.00587785e+00
1.00581676e+00
1.00575599e+00
1.00569635e+00
1.00563857e+00
1.00558329e+00
1.00553112e+00
1.00548253e+00
1.00543781e+00
1.00539705e+00
1.00536012e+00
1.00532670e+00
1.00529622e+00
1.00526783e+00
1.00524035e+00
1.00521222e+00
1.00518146e+00
1.00514564e+00
1.00510197e+00
1.00504747e+00
1.00497916e+00
1.00489428e+00
1.00479056e+00
1.00466634e+00
1.00452064e+00
1.00435318e+00
1.00416428e+00
1.00395476e+00
1.00372587e+00
1.00347920e+00
1.00321668e+00
1.00294054e+00
1.00265333e+00
1.00235781e+00
1.00205688e+00
1.00175338e+00
1.00144993e+00
1.00114875e+00
1.00085159e+00
1.00055964e+00
1.00027364e+00
9.99993975e-01
9.99720816e-01
9.99454334e-01
9.99194826e-01
9.98942821e-01
9.98699108e-01
9.98464702e-01
9.98240748e-01
9.98028385e-01
9.97828597e-01
9.97642083e-01
9.97469156e-01
9.97309706e-01
9.97163213e-01
9.97028819e-01
9.96905421e-01
9.96791775e-01
9.96686584e-01
9.96588554e-01
9.96496420e-01
9.96408942e-01
9.96324907e-01
9.96243134e-01
9.96162514e-01
9.96082065e-01
9.96001006e-01
9.95918819e-01
9.95835296e-01
9.95750524e-01
9.95664832e-01
9.95578706e-01
9.95492697e-01
9.95407307e-01
9.95322933e-01
9.95239864e-01
9.95158276e-01
9.95078266e-01
9.94999940e-01
9.94923453e-01
9.94848997e-01
9.94776830e-01
9.94707306e-01
9.94640818e-01
9.94577708e-01
9.94518369e-01
9.94463212e-01
9.94412547e-01
9.94366633e-01
9.94325809e-01
9.94290205e-01
9.94259824e-01
9.94234846e-01
9.94215154e-01
9.94200031e-01
9.94189497e-01
9.94183704e-01
9.94180689e-01
9.94179759e-01
9.94182153e-01
9.94185778e-01
9.94187983e-01
9.94191367e-01
9.94193334e-01
9.94192071e-01
9.94190768e-01
1.00632371e+00
1.00632241e+00
1.00632145e+00
1.00632369e+00
1.00632798e+00
1.00633373e+00
1.00634002e+00
1.00634513e+00
1.00634885e+00
1.00635047e+00
1.00634838e+00
1.00634187e+00
1.00633048e+00
1.00631373e+00
1.00629129e+00
1.00626318e+00
1.00622970e+00
1.00619134e+00
1.00614865e+00
1.00610229e+00
1.00605298e+00
1.00600144e+00
1.00594829e+00
1.00589407e+00
1.00583932e+00
1.00578452e+00
1.00573007e+00
1.00567634e+00
1.00562369e+00
1.00557240e+00
1.00552270e+00
1.00547478e+00
1.00542873e+00
1.00538460e+00
1.00534228e+00
1.00530148e+00
1.00526162e+00
1.00522168e+00
1.00518013e+00
1.00513489e+00
1.00508340e+00
1.00502274e+00
1.00494989e+00
1.00486200e+00
1.00475665e+00
1.00463207e+00
1.00448721e+00
1.00432171e+00
1.00413584e+00
1.00393035e+00
1.00370635e+00
1.00346519e+00
1.00320848e+00
1.00293809e+00
1.00265614e+00
1.00236502e+00
1.00206731e+00
1.00176569e+00
1.00146275e+00
1.00116085e+00
1.00086199e+00
1.00056774e+00
1.00027922e+00
9.99997222e-01
9.99722279e-01
9.99454823e-01
9.99195307e-01
9.98944284e-01
9.98702445e-01
9.98470586e-01
9.98249540e-01
9.98040073e-01
9.97842779e-01
9.97657988e-01
9.97485716e-01
9.97325665e-01
9.97177266e-01
9.97039755e-01
9.96912258e-01
9.96793864e-01
9.96683665e-01
9.96580757e-01
9.96484208e-01
9.96393013e-01
9.96306070e-01
9.96222185e-01
9.96140119e-01
9.96058691e-01
9.95976893e-01
9.95893992e-01
9.95809603e-01
9.95723716e-01
9.95636642e-01
9.95548907e-01
9.95461144e-01
9.95373993e-01
9.95287996e-01
9.95203551e-01
9.95120956e-01
9.95040448e-01
9.94962206e-01
9.94886419e-01
9.94813384e-01
9.94743444e-01
9.94676914e-01
9.94614180e-01
9.94555682e-01
9.94501751e-01
9.94452630e-01
9.94408642e-01
9.94370022e-01
9.94336849e-01
9.94309163e-01
9.94286958e-01
9.94270082e-01
9.94258400e-01
9.94251450e-01
9.94248419e-01
9.94249292e-01
9.94253599e-01
9.94259548e-01
9.94266543e-01
9.94275349e-01
9.94283411e-01
9.94290318e-01
9.94294827e-01
9.94296922e-01
9.94298980e-01
1.00616148e+00
1.00616446e+00
1.00616963e+00
1.00617951e+00
1.00619324e+00
1.00620949e+00
1.00622681e+00
1.00624437e+00
1.00626133e+00
1.00627556e+00
1.00628609e+00
1.00629247e+00
1.00629342e+00
1.00628820e+00
1.00627694e+00
1.00625968e+00
1.00623656e+00
1.00620822e+00
1.00617538e+00
1.00613874e+00
1.00609904e+00
1.00605688e+00
1.00601273e+00
1.00596700e+00
1.00591993e+00
1.00587157e+00
1.00582201e+00
1.00577134e+00
1.00571957e+00
1.00566677e+00
1.00561314e+00
1.00555890e+00
1.00550438e+00
1.00544999e+00
1.00539609e+00
1.00534295e+00
1.00529057e+00
1.00523848e+00
1.00518563e+00
1.00513031e+00
1.00507020e+00
1.00500248e+00
1.00492415e+00
1.00483233e+00
1.00472450e+00
1.00459881e+00
1.00445414e+00
1.00429009e+00
1.00410688e+00
1.00390516e+00
1.00368588e+00
1.00345017e+00
1.00319929e+00
1.00293471e+00
1.00265814e+00
1.00237155e+00
1.00207723e+00
1.00177766e+00
1.00147538e+00
1.00117289e+00
1.00087245e+00
1.00057597e+00
1.00028501e+00
1.00000074e+00
9.99724078e-01
9.99455722e-01
9.99196285e-01
9.98946351e-01
9.98706502e-01
9.98477312e-01
9.98259293e-01
9.98052825e-01
9.97858099e-01
9.97675066e-01
9.97503438e-01
9.97342724e-01
9.97192299e-01
9.97051488e-01
9.96919643e-01
9.96796181e-01
9.96680577e-01
9.96572312e-01
9.96470787e-01
9.96375243e-01
9.96284701e-01
9.96197975e-01
9.96113731e-01
9.96030621e-01
9.95947435e-01
9.95863254e-01
9.95777548e-01
9.95690215e-01
9.95601550e-01
9.95512138e-01
9.95422716e-01
9.95334046e-01
9.95246826e-01
9.95161615e-01
9.95078832e-01
9.94998810e-01
9.94921833e-01
9.94848168e-01
9.94778112e-01
9.94712016e-01
9.94650231e-01
9.94593095e-01
9.94540935e-01
9.94494033e-01
9.94452563e-01
9.94416670e-01
9.94386409e-01
9.94361714e-01
9.94342512e-01
9.94328696e-01
9.94319798e-01
9.94315399e-01
9.94315473e-01
9.94319200e-01
9.94325436e-01
9.94334180e-01
9.94345149e-01
9.94356162e-01
9.94367278e-01
9.94378073e-01
9.94387647e-01
9.94394071e-01
9.94398207e-01
9.94401343e-01
1.00600713e+00
1.00601416e+00
1.00602411e+00
1.00604035e+00
1.00606182e+00
1.00608659e+00
1.00611370e+00
1.00614169e+00
1.00616906e+00
1.00619424e+00
1.00621605e+00
1.00623323e+00
1.00624484e+00
1.00625036e+00
1.00624955e+00
1.00624251e+00
1.00622967e+00
1.00621166e+00
1.00618921e+00
1.00616311e+00
1.00613402e+00
1.00610245e+00
1.00606872e+00
1.00603295e+00
1.00599500e+00
1.00595463e+00
1.00591156e+00
1.00586544e+00
1.00581597e+00
1.00576306e+00
1.00570676e+00
1.00564735e+00
1.00558536e+00
1.00552154e+00
1.00545674e+00
1.00539174e+00
1.00532710e+00
1.00526290e+00
1.00519858e+00
1.00513279e+00
1.00506347e+00
1.00498800e+00
1.00490341e+00
1.00480681e+00
1.00469568e+00
1.00456811e+00
1.00442294e+00
1.00425974e+00
1.00407868e+00
1.00388031e+00
1.00366542e+00
1.00343489e+00
1.00318966e+00
1.00293078e+00
1.00265954e+00
1.00237751e+00
1.00208664e+00
1.00178921e+00
1.00148773e+00
1.00118478e+00
1.00088288e+00
1.00058431e+00
1.00029101e+00
1.00000459e+00
9.99726321e-01
9.99457181e-01
9.99197943e-01
9.98949214e-01
9.98711470e-01
9.98485049e-01
9.98270130e-01
9.98066700e-01
9.97874535e-01
9.97693204e-01
9.97522109e-01
9.97360564e-01
9.97207890e-01
9.97063499e-01
9.96926967e-01
9.96798031e-01
9.96676546e-01
9.96562371e-01
9.96455243e-01
9.96354652e-01
9.96259767e-01
9.96169432e-01
9.96082256e-01
9.95996767e-01
9.95911594e-01
9.95825660e-01
9.95738321e-01
9.95649412e-01
9.95559213e-01
9.95468366e-01
9.95377720e-01
9.95288168e-01
9.95200541e-01
9.95115558e-01
9.95033771e-01
9.94955584e-01
9.94881351e-01
9.94811406e-01
9.94746025e-01
9.94685491e-01
9.94630148e-01
9.94580274e-01
9.94536013e-01
9.94497522e-01
9.94464904e-01
9.94438066e-01
9.94416837e-01
9.94401070e-01
9.94390454e-01
9.94384596e-01
9.94383143e-01
9.94385502e-01
9.94391126e-01
9.94399625e-01
9.94410282e-01
9.94422069e-01
9.94434966e-01
9.94448040e-01
9.94460568e-01
9.94471865e-01
9.94481984e-01
9.94488910e-01
9.94493403e-01
9.94497183e-01
1.00586301e+00
1.00587321e+00
1.00588733e+00
1.00590855e+00
1.00593590e+00
1.00596733e+00
1.00600209e+00
1.00603805e+00
1.00607361e+00
1.00610756e+00
1.00613837e+00
1.00616442e+00
1.00618509e+00
1.00619994e+00
1.00620855e+00
1.00621114e+00
1.00620829e+00
1.00620064e+00
1.00618895e+00
1.00617401e+00
1.00615635e+00
1.00613639e+00
1.00611424e+00
1.00608964e+00
1.00606216e+00
1.00603120e+00
1.00599601e+00
1.00595584e+00
1.00591012e+00
1.00585850e+00
1.00580090e+00
1.00573764e+00
1.00566944e+00
1.00559736e+00
1.00552267e+00
1.00544667e+00
1.00537044e+00
1.00529458e+00
1.00521897e+00
1.00514266e+00
1.00506387e+00
1.00498015e+00
1.00488869e+00
1.00478662e+00
1.00467145e+00
1.00454128e+00
1.00439495e+00
1.00423199e+00
1.00405254e+00
1.00385705e+00
1.00364615e+00
1.00342046e+00
1.00318059e+00
1.00292719e+00
1.00266111e+00
1.00238353e+00
1.00209606e+00
1.00180077e+00
1.00150010e+00
1.00119675e+00
1.00089346e+00
1.00059286e+00
1.00029731e+00
1.00000883e+00
9.99729043e-01
9.99459212e-01
9.99200266e-01
9.98952833e-01
9.98717270e-01
9.98493671e-01
9.98281875e-01
9.98081466e-01
9.97891799e-01
9.97712053e-01
9.97541319e-01
9.97378716e-01
9.97223503e-01
9.97075184e-01
9.96933548e-01
9.96798651e-01
9.96670716e-01
9.96549984e-01
9.96436532e-01
9.96330117e-01
9.96230080e-01
9.96135344e-01
9.96044504e-01
9.95956011e-01
9.95868387e-01
9.95780439e-01
9.95691422e-01
9.95601120e-01
9.95509815e-01
9.95418182e-01
9.95327157e-01
9.95237760e-01
9.95150952e-01
9.95067554e-01
9.94988232e-01
9.94913487e-01
9.94843685e-01
9.94779131e-01
9.94720099e-01
9.94666815e-01
9.94619453e-01
9.94578168e-01
9.94543029e-01
9.94513986e-01
9.94490897e-01
9.94473533e-01
9.94461563e-01
9.94454596e-01
9.94452138e-01
9.94453602e-01
9.94458571e-01
9.94466485e-01
9.94476531e-01
9.94488154e-01
9.94501231e-01
9.94514697e-01
9.94527992e-01
9.94540942e-01
9.94553249e-01
9.94563777e-01
9.94572905e-01
9.94579240e-01
9.94583549e-01
9.94587052e-01
1.00573169e+00
1.00574422e+00
1.00576113e+00
1.00578567e+00
1.00581726e+00
1.00585342e+00
1.00589318e+00
1.00593470e+00
1.00597644e+00
1.00601659e+00
1.00605384e+00
1.00608695e+00
1.00611503e+00
1.00613752e+00
1.00615437e+00
1.00616587e+00
1.00617250e+00
1.00617500e+00
1.00617416e+00
1.00617066e+00
1.00616498e+00
1.00615733e+00
1.00614750e+00
1.00613501e+00
1.00611907e+00
1.00609860e+00
1.00607246e+00
1.00603955e+00
1.00599896e+00
1.00595003e+00
1.00589259e+00
1.00582700e+00
1.00575409e+00
1.00567521e+00
1.00559201e+00
1.00550625e+00
1.00541950e+00
1.00533280e+00
1.00524647e+00
1.00515993e+00
1.00507170e+00
1.00497955e+00
1.00488081e+00
1.00477276e+00
1.00465297e+00
1.00451958e+00
1.00437145e+00
1.00420815e+00
1.00402974e+00
1.00383661e+00
1.00362921e+00
1.00340792e+00
1.00317300e+00
1.00292474e+00
1.00266354e+00
1.00239019e+00
1.00210597e+00
1.00181274e+00
1.00151286e+00
1.00120912e+00
1.00090450e+00
1.00060195e+00
1.00030424e+00
1.00001378e+00
9.99732560e-01
9.99462114e-01
9.99203520e-01
9.98957417e-01
9.98724035e-01
9.98503218e-01
9.98294453e-01
9.98096913e-01
9.97909531e-01
9.97731096e-01
9.97560392e-01
9.97396345e-01
9.97238162e-01
9.97085436e-01
9.96938173e-01
9.96796741e-01
9.96661734e-01
9.96533774e-01
9.96413286e-01
9.96300314e-01
9.96194405e-01
9.96094600e-01
9.95999533e-01
9.95907626e-01
9.95817340e-01
9.95727407e-01
9.95637002e-01
9.95545857e-01
9.95454245e-01
9.95362869e-01
9.95272710e-01
9.95184875e-01
9.95100428e-01
9.95020276e-01
9.94945136e-01
9.94875562e-01
9.94811921e-01
9.94754446e-01
9.94703323e-01
9.94658690e-01
9.94620555e-01
9.94588876e-01
9.94563583e-01
9.94544446e-01
9.94531081e-01
9.94523096e-01
9.94520002e-01
9.94521149e-01
9.94525943e-01
9.94533766e-01
9.94543917e-01
9.94555762e-01
9.94568852e-01
9.94582439e-01
9.94596115e-01
9.94609462e-01
9.94622184e-01
9.94633730e-01
9.94644129e-01
9.94652919e-01
9.94660294e-01
9.94665055e-01
9.94668166e-01
9.94670961e-01
1.00561395e+00
1.00562777e+00
1.00564666e+00
1.00567307e+00
1.00570691e+00
1.00574579e+00
1.00578843e+00
1.00583308e+00
1.00587845e+00
1.00592253e+00
1.00596409e+00
1.00600210e+00
1.00603568e+00
1.00606434e+00
1.00608821e+00
1.00610758e+00
1.00612300e+00
1.00613525e+00
1.00614505e+00
1.00615300e+00
1.00615947e+00
1.00616439e+00
1.00616734e+00
1.00616752e+00
1.00616374e+00
1.00615453e+00
1.00613837e+00
1.00611379e+00
1.00607948e+00
1.00603458e+00
1.00597880e+00
1.00591244e+00
1.00583648e+00
1.00575249e+00
1.00566245e+00
1.00556851e+00
1.00547263e+00
1.00537628e+00
1.00528016e+00
1.00518403e+00
1.00508670e+00
1.00498619e+00
1.00488006e+00
1.00476573e+00
1.00464091e+00
1.00450383e+00
1.00435343e+00
1.00418928e+00
1.00401143e+00
1.00382018e+00
1.00361580e+00
1.00339844e+00
1.00316805e+00
1.00292451e+00
1.00266785e+00
1.00239844e+00
1.00211726e+00
1.00182592e+00
1.00152675e+00
1.00122258e+00
1.00091662e+00
1.00061214e+00
1.00031228e+00
1.00001987e+00
9.99737228e-01
9.99466157e-01
9.99207871e-01
9.98963015e-01
9.98731681e-01
9.98513455e-01
9.98307468e-01
9.98112483e-01
9.97927011e-01
9.97749459e-01
9.97578313e-01
9.97412316e-01
9.97250632e-01
9.97092946e-01
9.96939483e-01
9.96790925e-01
9.96648236e-01
9.96512416e-01
9.96384256e-01
9.96264107e-01
9.96151757e-01
9.96046405e-01
9.95946778e-01
9.95851330e-01
9.95758494e-01
9.95666951e-01
9.95575825e-01
9.95484788e-01
9.95394066e-01
9.95304358e-01
9.95216665e-01
9.95132113e-01
9.95051809e-01
9.94976721e-01
9.94907585e-01
9.94844917e-01
9.94789056e-01
9.94740173e-01
9.94698288e-01
9.94663348e-01
9.94635247e-01
9.94613754e-01
9.94598527e-01
9.94589170e-01
9.94585188e-01
9.94585952e-01
9.94590778e-01
9.94598946e-01
9.94609744e-01
9.94622445e-01
9.94636339e-01
9.94650741e-01
9.94665271e-01
9.94679340e-01
9.94692515e-01
9.94704555e-01
9.94715457e-01
9.94724723e-01
9.94732555e-01
9.94738955e-01
9.94743873e-01
9.94746699e-01
9.94748652e-01
9.94750329e-01
1.00551034e+00
1.00552465e+00
1.00554426e+00
1.00557124e+00
1.00560559e+00
1.00564515e+00
1.00568874e+00
1.00573441e+00
1.00578097e+00
1.00582682e+00
1.00587073e+00
1.00591159e+00
1.00594885e+00
1.00598221e+00
1.00601176e+00
1.00603788e+00
1.00606123e+00
1.00608252e+00
1.00610245e+00
1.00612150e+00
1.00613983e+00
1.00615719e+00
1.00617293e+00
1.00618587e+00
1.00619446e+00
1.00619693e+00
1.00619136e+00
1.00617584e+00
1.00614881e+00
1.00610918e+00
1.00605647e+00
1.00599096e+00
1.00591372e+00
1.00582649e+00
1.00573150e+00
1.00563120e+00
1.00552789e+00
1.00542339e+00
1.00531871e+00
1.00521393e+00
1.00510816e+00
1.00499968e+00
1.00488628e+00
1.00476562e+00
1.00463558e+00
1.00449454e+00
1.00434152e+00
1.00417615e+00
1.00399847e+00
1.00380867e+00
1.00360689e+00
1.00339303e+00
1.00316673e+00
1.00292751e+00
1.00267501e+00
1.00240924e+00
1.00213083e+00
1.00184122e+00
1.00154262e+00
1.00123795e+00
1.00093061e+00
1.00062417e+00
1.00032214e+00
1.00002772e+00
9.99743579e-01