# vtk DataFile Version 2.0
LBM Flow Field - Timestep 1990
ASCII
DATASET STRUCTURED_POINTS
DIMENSIONS 128 128 1
ORIGIN 0.0 0.0 0.0
SPACING 1.0 1.0 1.0
POINT_DATA 16384
SCALARS density double 1
LOOKUP_TABLE default
1.00026270e+00
1.00026743e+00
1.00027358e+00
1.00026943e+00
1.00026736e+00
1.00027060e+00
1.00027354e+00
1.00027724e+00
1.00028592e+00
1.00029909e+00
1.00031564e+00
1.00033725e+00
1.00036477e+00
1.00039761e+00
1.00043563e+00
1.00047906e+00
1.00052740e+00
1.00057988e+00
1.00063585e+00
1.00069458e+00
1.00075506e+00
1.00081632e+00
1.00087747e+00
1.00093764e+00
1.00099595e+00
1.00105173e+00
1.00110444e+00
1.00115363e+00
1.00119897e+00
1.00124033e+00
1.00127765e+00
1.00131095e+00
1.00134031e+00
1.00136590e+00
1.00138786e+00
1.00140637e+00
1.00142157e+00
1.00143361e+00
1.00144259e+00
1.00144863e+00
1.00145180e+00
1.00145220e+00
1.00144991e+00
1.00144504e+00
1.00143771e+00
1.00142806e+00
1.00141625e+00
1.00140248e+00
1.00138694e+00
1.00136984e+00
1.00135136e+00
1.00133167e+00
1.00131094e+00
1.00128924e+00
1.00126665e+00
1.00124317e+00
1.00121874e+00
1.00119327e+00
1.00116662e+00
1.00113865e+00
1.00110918e+00
1.00107806e+00
1.00104514e+00
1.00101034e+00
1.00097363e+00
1.00093507e+00
1.00089478e+00
1.00085299e+00
1.00081002e+00
1.00076627e+00
1.00072224e+00
1.00067850e+00
1.00063565e+00
1.00059437e+00
1.00055532e+00
1.00051920e+00
1.00048664e+00
1.00045825e+00
1.00043455e+00
1.00041598e+00
1.00040287e+00
1.00039539e+00
1.00039361e+00
1.00039741e+00
1.00040656e+00
1.00042068e+00
1.00043924e+00
1.00046166e+00
1.00048724e+00
1.00051529e+00
1.00054511e+00
1.00057605e+00
1.00060753e+00
1.00063914e+00
1.00067059e+00
1.00070177e+00
1.00073275e+00
1.00076384e+00
1.00079547e+00
1.00082823e+00
1.00086284e+00
1.00090017e+00
1.00094101e+00
1.00098620e+00
1.00103657e+00
1.00109289e+00
1.00115560e+00
1.00122514e+00
1.00130180e+00
1.00138552e+00
1.00147595e+00
1.00157275e+00
1.00167512e+00
1.00178216e+00
1.00189268e+00
1.00200533e+00
1.00211839e+00
1.00223086e+00
1.00234055e+00
1.00244521e+00
1.00254374e+00
1.00263529e+00
1.00271622e+00
1.00278576e+00
1.00284405e+00
1.00288765e+00
1.00291970e+00
1.00293966e+00
1.00026940e+00
1.00026903e+00
1.00027334e+00
1.00027225e+00
1.00027101e+00
1.00027314e+00
1.00027703e+00
1.00028225e+00
1.00029100e+00
1.00030426e+00
1.00032160e+00
1.00034367e+00
1.00037112e+00
1.00040402e+00
1.00044207e+00
1.00048525e+00
1.00053314e+00
1.00058517e+00
1.00064056e+00
1.00069859e+00
1.00075832e+00
1.00081884e+00
1.00087922e+00
1.00093866e+00
1.00099631e+00
1.00105151e+00
1.00110371e+00
1.00115249e+00
1.00119752e+00
1.00123865e+00
1.00127580e+00
1.00130899e+00
1.00133829e+00
1.00136382e+00
1.00138575e+00
1.00140421e+00
1.00141935e+00
1.00143131e+00
1.00144019e+00
1.00144612e+00
1.00144917e+00
1.00144944e+00
1.00144703e+00
1.00144205e+00
1.00143462e+00
1.00142489e+00
1.00141303e+00
1.00139923e+00
1.00138367e+00
1.00136655e+00
1.00134807e+00
1.00132838e+00
1.00130763e+00
1.00128591e+00
1.00126327e+00
1.00123973e+00
1.00121523e+00
1.00118969e+00
1.00116298e+00
1.00113496e+00
1.00110547e+00
1.00107436e+00
1.00104152e+00
1.00100687e+00
1.00097039e+00
1.00093214e+00
1.00089226e+00
1.00085097e+00
1.00080860e+00
1.00076554e+00
1.00072228e+00
1.00067936e+00
1.00063739e+00
1.00059702e+00
1.00055890e+00
1.00052368e+00
1.00049200e+00
1.00046443e+00
1.00044147e+00
1.00042354e+00
1.00041093e+00
1.00040383e+00
1.00040226e+00
1.00040612e+00
1.00041516e+00
1.00042899e+00
1.00044713e+00
1.00046899e+00
1.00049390e+00
1.00052121e+00
1.00055023e+00
1.00058035e+00
1.00061105e+00
1.00064193e+00
1.00067272e+00
1.00070335e+00
1.00073391e+00
1.00076469e+00
1.00079612e+00
1.00082880e+00
1.00086343e+00
1.00090083e+00
1.00094178e+00
1.00098712e+00
1.00103763e+00
1.00109401e+00
1.00115671e+00
1.00122621e+00
1.00130267e+00
1.00138609e+00
1.00147607e+00
1.00157235e+00
1.00167403e+00
1.00178032e+00
1.00188983e+00
1.00200153e+00
1.00211364e+00
1.00222502e+00
1.00233327e+00
1.00243712e+00
1.00253477e+00
1.00262511e+00
1.00270495e+00
1.00277415e+00
1.00283151e+00
1.00287539e+00
1.00290751e+00
1.00292411e+00
1.00027904e+00
1.00027675e+00
1.00027104e+00
1.00027385e+00
1.00027698e+00
1.00027651e+00
1.00027949e+00
1.00028722e+00
1.00029660e+00
1.00030905e+00
1.00032699e+00
1.00034987e+00
1.00037722e+00
1.00040994e+00
1.00044815e+00
1.00049120e+00
1.00053868e+00
1.00059029e+00
1.00064525e+00
1.00070266e+00
1.00076170e+00
1.00082156e+00
1.00088126e+00
1.00093996e+00
1.00099695e+00
1.00105156e+00
1.00110319e+00
1.00115146e+00
1.00119610e+00
1.00123689e+00
1.00127375e+00
1.00130670e+00
1.00133582e+00
1.00136119e+00
1.00138295e+00
1.00140126e+00
1.00141625e+00
1.00142804e+00
1.00143674e+00
1.00144247e+00
1.00144532e+00
1.00144538e+00
1.00144276e+00
1.00143757e+00
1.00142994e+00
1.00142003e+00
1.00140800e+00
1.00139404e+00
1.00137834e+00
1.00136109e+00
1.00134248e+00
1.00132267e+00
1.00130180e+00
1.00127996e+00
1.00125722e+00
1.00123357e+00
1.00120899e+00
1.00118338e+00
1.00115663e+00
1.00112862e+00
1.00109919e+00
1.00106822e+00
1.00103560e+00
1.00100127e+00
1.00096521e+00
1.00092750e+00
1.00088827e+00
1.00084775e+00
1.00080626e+00
1.00076418e+00
1.00072199e+00
1.00068022e+00
1.00063946e+00
1.00060033e+00
1.00056346e+00
1.00052949e+00
1.00049901e+00
1.00047257e+00
1.00045066e+00
1.00043366e+00
1.00042184e+00
1.00041536e+00
1.00041424e+00
1.00041836e+00
1.00042746e+00
1.00044116e+00
1.00045898e+00
1.00048035e+00
1.00050462e+00
1.00053116e+00
1.00055932e+00
1.00058852e+00
1.00061828e+00
1.00064822e+00
1.00067811e+00
1.00070790e+00
1.00073772e+00
1.00076784e+00
1.00079870e+00
1.00083093e+00
1.00086521e+00
1.00090228e+00
1.00094299e+00
1.00098818e+00
1.00103850e+00
1.00109461e+00
1.00115715e+00
1.00122643e+00
1.00130250e+00
1.00138543e+00
1.00147503e+00
1.00157068e+00
1.00167166e+00
1.00177712e+00
1.00188581e+00
1.00199659e+00
1.00210793e+00
1.00221789e+00
1.00232509e+00
1.00242851e+00
1.00252528e+00
1.00261343e+00
1.00269310e+00
1.00276255e+00
1.00281924e+00
1.00286260e+00
1.00288963e+00
1.00290455e+00
1.00027875e+00
1.00027863e+00
1.00027706e+00
1.00027763e+00
1.00027862e+00
1.00028064e+00
1.00028484e+00
1.00029153e+00
1.00030129e+00
1.00031494e+00
1.00033299e+00
1.00035566e+00
1.00038339e+00
1.00041628e+00
1.00045423e+00
1.00049701e+00
1.00054427e+00
1.00059540e+00
1.00064975e+00
1.00070654e+00
1.00076491e+00
1.00082399e+00
1.00088292e+00
1.00094089e+00
1.00099714e+00
1.00105105e+00
1.00110207e+00
1.00114979e+00
1.00119392e+00
1.00123428e+00
1.00127079e+00
1.00130343e+00
1.00133228e+00
1.00135742e+00
1.00137897e+00
1.00139707e+00
1.00141185e+00
1.00142343e+00
1.00143192e+00
1.00143741e+00
1.00144002e+00
1.00143984e+00
1.00143697e+00
1.00143154e+00
1.00142366e+00
1.00141351e+00
1.00140124e+00
1.00138705e+00
1.00137112e+00
1.00135364e+00
1.00133481e+00
1.00131477e+00
1.00129368e+00
1.00127162e+00
1.00124867e+00
1.00122483e+00
1.00120007e+00
1.00117433e+00
1.00114752e+00
1.00111951e+00
1.00109017e+00
1.00105940e+00
1.00102710e+00
1.00099323e+00
1.00095777e+00
1.00092081e+00
1.00088249e+00
1.00084303e+00
1.00080273e+00
1.00076198e+00
1.00072123e+00
1.00068100e+00
1.00064183e+00
1.00060434e+00
1.00056912e+00
1.00053677e+00
1.00050785e+00
1.00048289e+00
1.00046233e+00
1.00044653e+00
1.00043573e+00
1.00043007e+00
1.00042954e+00
1.00043401e+00
1.00044324e+00
1.00045683e+00
1.00047431e+00
1.00049513e+00
1.00051869e+00
1.00054436e+00
1.00057155e+00
1.00059971e+00
1.00062839e+00
1.00065725e+00
1.00068611e+00
1.00071494e+00
1.00074387e+00
1.00077321e+00
1.00080341e+00
1.00083506e+00
1.00086886e+00
1.00090555e+00
1.00094594e+00
1.00099079e+00
1.00104082e+00
1.00109668e+00
1.00115887e+00
1.00122769e+00
1.00130332e+00
1.00138573e+00
1.00147463e+00
1.00156945e+00
1.00166958e+00
1.00177405e+00
1.00188171e+00
1.00199118e+00
1.00210121e+00
1.00221007e+00
1.00231614e+00
1.00241772e+00
1.00251324e+00
1.00260087e+00
1.00267965e+00
1.00274705e+00
1.00280221e+00
1.00284594e+00
1.00287535e+00
1.00288889e+00
1.00028004e+00
1.00028059e+00
1.00028296e+00
1.00028122e+00
1.00028084e+00
1.00028544e+00
1.00029042e+00
1.00029616e+00
1.00030654e+00
1.00032132e+00
1.00033935e+00
1.00036194e+00
1.00039006e+00
1.00042304e+00
1.00046068e+00
1.00050318e+00
1.00055012e+00
1.00060070e+00
1.00065435e+00
1.00071041e+00
1.00076799e+00
1.00082618e+00
1.00088421e+00
1.00094132e+00
1.00099673e+00
1.00104982e+00
1.00110011e+00
1.00114719e+00
1.00119074e+00
1.00123060e+00
1.00126669e+00
1.00129898e+00
1.00132750e+00
1.00135236e+00
1.00137366e+00
1.00139150e+00
1.00140602e+00
1.00141734e+00
1.00142555e+00
1.00143076e+00
1.00143306e+00
1.00143257e+00
1.00142938e+00
1.00142362e+00
1.00141543e+00
1.00140496e+00
1.00139238e+00
1.00137788e+00
1.00136164e+00
1.00134385e+00
1.00132471e+00
1.00130438e+00
1.00128298e+00
1.00126064e+00
1.00123740e+00
1.00121331e+00
1.00118834e+00
1.00116245e+00
1.00113555e+00
1.00110756e+00
1.00107835e+00
1.00104784e+00
1.00101597e+00
1.00098268e+00
1.00094800e+00
1.00091200e+00
1.00087483e+00
1.00083671e+00
1.00079792e+00
1.00075885e+00
1.00071991e+00
1.00068159e+00
1.00064443e+00
1.00060899e+00
1.00057583e+00
1.00054551e+00
1.00051855e+00
1.00049544e+00
1.00047658e+00
1.00046229e+00
1.00045279e+00
1.00044818e+00
1.00044842e+00
1.00045339e+00
1.00046282e+00
1.00047633e+00
1.00049346e+00
1.00051368e+00
1.00053641e+00
1.00056107e+00
1.00058712e+00
1.00061405e+00
1.00064145e+00
1.00066903e+00
1.00069666e+00
1.00072432e+00
1.00075219e+00
1.00078058e+00
1.00080997e+00
1.00084091e+00
1.00087410e+00
1.00091032e+00
1.00095028e+00
1.00099471e+00
1.00104438e+00
1.00109988e+00
1.00116160e+00
1.00122988e+00
1.00130497e+00
1.00138668e+00
1.00147467e+00
1.00156855e+00
1.00166760e+00
1.00177078e+00
1.00187711e+00
1.00198515e+00
1.00209349e+00
1.00220087e+00
1.00230550e+00
1.00240513e+00
1.00249904e+00
1.00258576e+00
1.00266270e+00
1.00272893e+00
1.00278414e+00
1.00282589e+00
1.00285282e+00
1.00286773e+00
1.00028568e+00
1.00028473e+00
1.00028451e+00
1.00028528e+00
1.00028728e+00
1.00028989e+00
1.00029439e+00
1.00030230e+00
1.00031320e+00
1.00032725e+00
1.00034575e+00
1.00036912e+00
1.00039703e+00
1.00042972e+00
1.00046739e+00
1.00050965e+00
1.00055597e+00
1.00060597e+00
1.00065900e+00
1.00071422e+00
1.00077087e+00
1.00082817e+00
1.00088526e+00
1.00094138e+00
1.00099586e+00
1.00104809e+00
1.00109756e+00
1.00114387e+00
1.00118677e+00
1.00122605e+00
1.00126161e+00
1.00129344e+00
1.00132157e+00
1.00134606e+00
1.00136701e+00
1.00138453e+00
1.00139872e+00
1.00140970e+00
1.00141756e+00
1.00142241e+00
1.00142435e+00
1.00142347e+00
1.00141989e+00
1.00141374e+00
1.00140515e+00
1.00139428e+00
1.00138130e+00
1.00136641e+00
1.00134978e+00
1.00133161e+00
1.00131208e+00
1.00129136e+00
1.00126959e+00
1.00124689e+00
1.00122333e+00
1.00119894e+00
1.00117374e+00
1.00114768e+00
1.00112072e+00
1.00109277e+00
1.00106376e+00
1.00103362e+00
1.00100228e+00
1.00096974e+00
1.00093602e+00
1.00090121e+00
1.00086544e+00
1.00082893e+00
1.00079196e+00
1.00075489e+00
1.00071810e+00
1.00068207e+00
1.00064728e+00
1.00061426e+00
1.00058353e+00
1.00055559e+00
1.00053095e+00
1.00051001e+00
1.00049315e+00
1.00048065e+00
1.00047267e+00
1.00046930e+00
1.00047048e+00
1.00047605e+00
1.00048575e+00
1.00049921e+00
1.00051597e+00
1.00053554e+00
1.00055737e+00
1.00058092e+00
1.00060570e+00
1.00063124e+00
1.00065720e+00
1.00068334e+00
1.00070955e+00
1.00073587e+00
1.00076251e+00
1.00078978e+00
1.00081816e+00
1.00084825e+00
1.00088071e+00
1.00091625e+00
1.00095563e+00
1.00099958e+00
1.00104874e+00
1.00110366e+00
1.00116483e+00
1.00123253e+00
1.00130682e+00
1.00138761e+00
1.00147464e+00
1.00156742e+00
1.00166513e+00
1.00176682e+00
1.00187154e+00
1.00197803e+00
1.00208464e+00
1.00218993e+00
1.00229257e+00
1.00239087e+00
1.00248300e+00
1.00256745e+00
1.00264280e+00
1.00270829e+00
1.00276219e+00
1.00280286e+00
1.00283045e+00
1.00284529e+00
1.00029034e+00
1.00029001e+00
1.00028830e+00
1.00029002e+00
1.00029276e+00
1.00029492e+00
1.00030015e+00
1.00030893e+00
1.00031971e+00
1.00033394e+00
1.00035309e+00
1.00037657e+00
1.00040428e+00
1.00043695e+00
1.00047450e+00
1.00051628e+00
1.00056203e+00
1.00061140e+00
1.00066364e+00
1.00071795e+00
1.00077362e+00
1.00082990e+00
1.00088595e+00
1.00094102e+00
1.00099448e+00
1.00104576e+00
1.00109433e+00
1.00113982e+00
1.00118198e+00
1.00122061e+00
1.00125558e+00
1.00128689e+00
1.00131455e+00
1.00133860e+00
1.00135913e+00
1.00137624e+00
1.00139003e+00
1.00140059e+00
1.00140802e+00
1.00141242e+00
1.00141389e+00
1.00141254e+00
1.00140848e+00
1.00140184e+00
1.00139276e+00
1.00138141e+00
1.00136795e+00
1.00135258e+00
1.00133548e+00
1.00131685e+00
1.00129686e+00
1.00127570e+00
1.00125351e+00
1.00123040e+00
1.00120647e+00
1.00118177e+00
1.00115631e+00
1.00113010e+00
1.00110309e+00
1.00107524e+00
1.00104649e+00
1.00101680e+00
1.00098613e+00
1.00095448e+00
1.00092190e+00
1.00088846e+00
1.00085433e+00
1.00081969e+00
1.00078483e+00
1.00075005e+00
1.00071575e+00
1.00068233e+00
1.00065026e+00
1.00062001e+00
1.00059205e+00
1.00056684e+00
1.00054482e+00
1.00052636e+00
1.00051178e+00
1.00050130e+00
1.00049506e+00
1.00049310e+00
1.00049534e+00
1.00050161e+00
1.00051163e+00
1.00052504e+00
1.00054140e+00
1.00056025e+00
1.00058108e+00
1.00060340e+00
1.00062675e+00
1.00065075e+00
1.00067510e+00
1.00069962e+00
1.00072423e+00
1.00074905e+00
1.00077428e+00
1.00080029e+00
1.00082753e+00
1.00085664e+00
1.00088824e+00
1.00092303e+00
1.00096173e+00
1.00100507e+00
1.00105362e+00
1.00110790e+00
1.00116841e+00
1.00123535e+00
1.00130873e+00
1.00138852e+00
1.00147443e+00
1.00156580e+00
1.00166199e+00
1.00176215e+00
1.00186499e+00
1.00196940e+00
1.00207413e+00
1.00217739e+00
1.00227769e+00
1.00237394e+00
1.00246409e+00
1.00254649e+00
1.00262041e+00
1.00268442e+00
1.00273637e+00
1.00277610e+00
1.00280338e+00
1.00281781e+00
1.00029381e+00
1.00029428e+00
1.00029505e+00
1.00029570e+00
1.00029733e+00
1.00030149e+00
1.00030758e+00
1.00031530e+00
1.00032652e+00
1.00034196e+00
1.00036096e+00
1.00038403e+00
1.00041206e+00
1.00044477e+00
1.00048172e+00
1.00052300e+00
1.00056830e+00
1.00061690e+00
1.00066818e+00
1.00072155e+00
1.00077623e+00
1.00083137e+00
1.00088628e+00
1.00094028e+00
1.00099266e+00
1.00104288e+00
1.00109050e+00
1.00113513e+00
1.00117647e+00
1.00121436e+00
1.00124868e+00
1.00127940e+00
1.00130649e+00
1.00133002e+00
1.00135006e+00
1.00136667e+00
1.00137995e+00
1.00139000e+00
1.00139691e+00
1.00140076e+00
1.00140168e+00
1.00139976e+00
1.00139512e+00
1.00138790e+00
1.00137825e+00
1.00136632e+00
1.00135230e+00
1.00133637e+00
1.00131872e+00
1.00129955e+00
1.00127905e+00
1.00125739e+00
1.00123472e+00
1.00121117e+00
1.00118685e+00
1.00116181e+00
1.00113611e+00
1.00110976e+00
1.00108275e+00
1.00105505e+00
1.00102664e+00
1.00099750e+00
1.00096762e+00
1.00093701e+00
1.00090574e+00
1.00087388e+00
1.00084160e+00
1.00080908e+00
1.00077657e+00
1.00074438e+00
1.00071284e+00
1.00068233e+00
1.00065328e+00
1.00062610e+00
1.00060121e+00
1.00057901e+00
1.00055989e+00
1.00054416e+00
1.00053208e+00
1.00052383e+00
1.00051950e+00
1.00051909e+00
1.00052249e+00
1.00052952e+00
1.00053989e+00
1.00055325e+00
1.00056918e+00
1.00058725e+00
1.00060698e+00
1.00062796e+00
1.00064977e+00
1.00067210e+00
1.00069470e+00
1.00071744e+00
1.00074034e+00
1.00076351e+00
1.00078719e+00
1.00081181e+00
1.00083782e+00
1.00086581e+00
1.00089643e+00
1.00093038e+00
1.00096833e+00
1.00101090e+00
1.00105875e+00
1.00111236e+00
1.00117205e+00
1.00123805e+00
1.00131046e+00
1.00138913e+00
1.00147364e+00
1.00156348e+00
1.00165800e+00
1.00175628e+00
1.00185714e+00
1.00195930e+00
1.00206163e+00
1.00216271e+00
1.00226076e+00
1.00235431e+00
1.00244218e+00
1.00252286e+00
1.00259467e+00
1.00265642e+00
1.00270753e+00
1.00274683e+00
1.00277284e+00
1.00278641e+00
1.00030004e+00
1.00030027e+00
1.00030123e+00
1.00030193e+00
1.00030407e+00
1.00030873e+00
1.00031468e+00
1.00032282e+00
1.00033478e+00
1.00035019e+00
1.00036905e+00
1.00039242e+00
1.00042046e+00
1.00045270e+00
1.00048925e+00
1.00053010e+00
1.00057467e+00
1.00062237e+00
1.00067272e+00
1.00072506e+00
1.00077858e+00
1.00083255e+00
1.00088628e+00
1.00093909e+00
1.00099033e+00
1.00103947e+00
1.00108606e+00
1.00112974e+00
1.00117022e+00
1.00120732e+00
1.00124092e+00
1.00127097e+00
1.00129744e+00
1.00132038e+00
1.00133983e+00
1.00135585e+00
1.00136854e+00
1.00137797e+00
1.00138425e+00
1.00138745e+00
1.00138770e+00
1.00138511e+00
1.00137979e+00
1.00137188e+00
1.00136155e+00
1.00134896e+00
1.00133429e+00
1.00131772e+00
1.00129946e+00
1.00127970e+00
1.00125863e+00
1.00123643e+00
1.00121325e+00
1.00118925e+00
1.00116452e+00
1.00113917e+00
1.00111324e+00
1.00108679e+00
1.00105982e+00
1.00103234e+00
1.00100436e+00
1.00097588e+00
1.00094691e+00
1.00091748e+00
1.00088768e+00
1.00085758e+00
1.00082735e+00
1.00079716e+00
1.00076724e+00
1.00073787e+00
1.00070935e+00
1.00068203e+00
1.00065626e+00
1.00063241e+00
1.00061085e+00
1.00059192e+00
1.00057593e+00
1.00056315e+00
1.00055377e+00
1.00054791e+00
1.00054563e+00
1.00054688e+00
1.00055152e+00
1.00055935e+00
1.00057009e+00
1.00058338e+00
1.00059883e+00
1.00061605e+00
1.00063461e+00
1.00065413e+00
1.00067429e+00
1.00069481e+00
1.00071553e+00
1.00073638e+00
1.00075742e+00
1.00077882e+00
1.00080086e+00
1.00082396e+00
1.00084864e+00
1.00087544e+00
1.00090501e+00
1.00093803e+00
1.00097513e+00
1.00101692e+00
1.00106398e+00
1.00111677e+00
1.00117556e+00
1.00124058e+00
1.00131187e+00
1.00138917e+00
1.00147217e+00
1.00156040e+00
1.00165302e+00
1.00174906e+00
1.00184768e+00
1.00194761e+00
1.00204728e+00
1.00214556e+00
1.00224116e+00
1.00233221e+00
1.00241742e+00
1.00249572e+00
1.00256542e+00
1.00262529e+00
1.00267500e+00
1.00271288e+00
1.00273772e+00
1.00275154e+00
1.00030762e+00
1.00030745e+00
1.00030747e+00
1.00030931e+00
1.00031245e+00
1.00031628e+00
1.00032236e+00
1.00033171e+00
1.00034366e+00
1.00035862e+00
1.00037794e+00
1.00040154e+00
1.00042902e+00
1.00046085e+00
1.00049717e+00
1.00053735e+00
1.00058098e+00
1.00062781e+00
1.00067720e+00
1.00072835e+00
1.00078063e+00
1.00083341e+00
1.00088590e+00
1.00093745e+00
1.00098749e+00
1.00103551e+00
1.00108102e+00
1.00112369e+00
1.00116327e+00
1.00119953e+00
1.00123234e+00
1.00126165e+00
1.00128743e+00
1.00130968e+00
1.00132844e+00
1.00134379e+00
1.00135578e+00
1.00136449e+00
1.00137003e+00
1.00137248e+00
1.00137195e+00
1.00136856e+00
1.00136246e+00
1.00135377e+00
1.00134267e+00
1.00132932e+00
1.00131392e+00
1.00129665e+00
1.00127771e+00
1.00125731e+00
1.00123563e+00
1.00121286e+00
1.00118917e+00
1.00116471e+00
1.00113960e+00
1.00111395e+00
1.00108784e+00
1.00106134e+00
1.00103448e+00
1.00100731e+00
1.00097985e+00
1.00095214e+00
1.00092420e+00
1.00089610e+00
1.00086792e+00
1.00083976e+00
1.00081176e+00
1.00078410e+00
1.00075698e+00
1.00073064e+00
1.00070536e+00
1.00068143e+00
1.00065917e+00
1.00063887e+00
1.00062085e+00
1.00060539e+00
1.00059272e+00
1.00058305e+00
1.00057652e+00
1.00057318e+00
1.00057305e+00
1.00057602e+00
1.00058195e+00
1.00059061e+00
1.00060170e+00
1.00061490e+00
1.00062983e+00
1.00064613e+00
1.00066344e+00
1.00068142e+00
1.00069982e+00
1.00071844e+00
1.00073719e+00
1.00075605e+00
1.00077513e+00
1.00079468e+00
1.00081501e+00
1.00083653e+00
1.00085978e+00
1.00088534e+00
1.00091382e+00
1.00094582e+00
1.00098200e+00
1.00102297e+00
1.00106917e+00
1.00112101e+00
1.00117884e+00
1.00124278e+00
1.00131275e+00
1.00138859e+00
1.00146995e+00
1.00155627e+00
1.00164678e+00
1.00174056e+00
1.00183663e+00
1.00193386e+00
1.00203087e+00
1.00212625e+00
1.00221882e+00
1.00230720e+00
1.00238975e+00
1.00246518e+00
1.00253266e+00
1.00259090e+00
1.00263852e+00
1.00267481e+00
1.00269967e+00
1.00271319e+00
1.00031524e+00
1.00031554e+00
1.00031581e+00
1.00031758e+00
1.00032062e+00
1.00032492e+00
1.00033165e+00
1.00034090e+00
1.00035272e+00
1.00036818e+00
1.00038759e+00
1.00041071e+00
1.00043795e+00
1.00046958e+00
1.00050522e+00
1.00054454e+00
1.00058738e+00
1.00063324e+00
1.00068143e+00
1.00073136e+00
1.00078241e+00
1.00083386e+00
1.00088503e+00
1.00093530e+00
1.00098411e+00
1.00103093e+00
1.00107533e+00
1.00111698e+00
1.00115559e+00
1.00119095e+00
1.00122292e+00
1.00125144e+00
1.00127644e+00
1.00129793e+00
1.00131594e+00
1.00133050e+00
1.00134169e+00
1.00134958e+00
1.00135426e+00
1.00135584e+00
1.00135442e+00
1.00135014e+00
1.00134314e+00
1.00133357e+00
1.00132160e+00
1.00130742e+00
1.00129121e+00
1.00127318e+00
1.00125352e+00
1.00123244e+00
1.00121014e+00
1.00118681e+00
1.00116261e+00
1.00113771e+00
1.00111225e+00
1.00108635e+00
1.00106012e+00
1.00103364e+00
1.00100698e+00
1.00098021e+00
1.00095338e+00
1.00092654e+00
1.00089977e+00
1.00087314e+00
1.00084672e+00
1.00082065e+00
1.00079504e+00
1.00077007e+00
1.00074592e+00
1.00072280e+00
1.00070094e+00
1.00068060e+00
1.00066201e+00
1.00064545e+00
1.00063113e+00
1.00061929e+00
1.00061008e+00
1.00060365e+00
1.00060007e+00
1.00059934e+00
1.00060142e+00
1.00060617e+00
1.00061341e+00
1.00062289e+00
1.00063432e+00
1.00064739e+00
1.00066175e+00
1.00067707e+00
1.00069304e+00
1.00070942e+00
1.00072599e+00
1.00074263e+00
1.00075931e+00
1.00077611e+00
1.00079319e+00
1.00081082e+00
1.00082936e+00
1.00084928e+00
1.00087108e+00
1.00089534e+00
1.00092267e+00
1.00095366e+00
1.00098890e+00
1.00102893e+00
1.00107422e+00
1.00112511e+00
1.00118187e+00
1.00124456e+00
1.00131313e+00
1.00138741e+00
1.00146696e+00
1.00155113e+00
1.00163932e+00
1.00173070e+00
1.00182402e+00
1.00191817e+00
1.00201223e+00
1.00210469e+00
1.00219400e+00
1.00227916e+00
1.00235894e+00
1.00243169e+00
1.00249647e+00
1.00255245e+00
1.00259838e+00
1.00263339e+00
1.00265712e+00
1.00266998e+00
1.00032370e+00
1.00032407e+00
1.00032513e+00
1.00032667e+00
1.00032957e+00
1.00033463e+00
1.00034154e+00
1.00035044e+00
1.00036265e+00
1.00037841e+00
1.00039739e+00
1.00042020e+00
1.00044736e+00
1.00047843e+00
1.00051320e+00
1.00055176e+00
1.00059373e+00
1.00063840e+00
1.00068533e+00
1.00073404e+00
1.00078377e+00
1.00083381e+00
1.00088362e+00
1.00093259e+00
1.00098011e+00
1.00102570e+00
1.00106897e+00
1.00110955e+00
1.00114715e+00
1.00118157e+00
1.00121267e+00
1.00124032e+00
1.00126448e+00
1.00128513e+00
1.00130229e+00
1.00131598e+00
1.00132627e+00
1.00133323e+00
1.00133695e+00
1.00133754e+00
1.00133513e+00
1.00132985e+00
1.00132186e+00
1.00131132e+00
1.00129841e+00
1.00128332e+00
1.00126626e+00
1.00124742e+00
1.00122702e+00
1.00120525e+00
1.00118233e+00
1.00115844e+00
1.00113376e+00
1.00110847e+00
1.00108272e+00
1.00105664e+00
1.00103036e+00
1.00100399e+00
1.00097763e+00
1.00095136e+00
1.00092527e+00
1.00089944e+00
1.00087395e+00
1.00084891e+00
1.00082440e+00
1.00080054e+00
1.00077748e+00
1.00075534e+00
1.00073430e+00
1.00071454e+00
1.00069625e+00
1.00067962e+00
1.00066485e+00
1.00065214e+00
1.00064164e+00
1.00063352e+00
1.00062787e+00
1.00062475e+00
1.00062418e+00
1.00062610e+00
1.00063041e+00
1.00063694e+00
1.00064548e+00
1.00065577e+00
1.00066751e+00
1.00068041e+00
1.00069414e+00
1.00070843e+00
1.00072303e+00
1.00073773e+00
1.00075242e+00
1.00076705e+00
1.00078164e+00
1.00079634e+00
1.00081138e+00
1.00082708e+00
1.00084383e+00
1.00086212e+00
1.00088247e+00
1.00090543e+00
1.00093159e+00
1.00096156e+00
1.00099584e+00
1.00103491e+00
1.00107922e+00
1.00112910e+00
1.00118468e+00
1.00124604e+00
1.00131313e+00
1.00138564e+00
1.00146316e+00
1.00154515e+00
1.00163084e+00
1.00171938e+00
1.00180978e+00
1.00190092e+00
1.00199159e+00
1.00208065e+00
1.00216678e+00
1.00224861e+00
1.00232507e+00
1.00239503e+00
1.00245716e+00
1.00251053e+00
1.00255465e+00
1.00258837e+00
1.00261092e+00
1.00262315e+00
1.00033367e+00
1.00033382e+00
1.00033456e+00
1.00033640e+00
1.00033976e+00
1.00034472e+00
1.00035153e+00
1.00036089e+00
1.00037326e+00
1.00038860e+00
1.00040744e+00
1.00043024e+00
1.00045681e+00
1.00048709e+00
1.00052124e+00
1.00055895e+00
1.00059972e+00
1.00064320e+00
1.00068893e+00
1.00073625e+00
1.00078452e+00
1.00083319e+00
1.00088161e+00
1.00092919e+00
1.00097539e+00
1.00101976e+00
1.00106185e+00
1.00110132e+00
1.00113790e+00
1.00117135e+00
1.00120151e+00
1.00122825e+00
1.00125151e+00
1.00127126e+00
1.00128748e+00
1.00130022e+00
1.00130951e+00
1.00131544e+00
1.00131811e+00
1.00131762e+00
1.00131412e+00
1.00130775e+00
1.00129868e+00
1.00128710e+00
1.00127319e+00
1.00125715e+00
1.00123919e+00
1.00121952e+00
1.00119836e+00
1.00117592e+00
1.00115240e+00
1.00112799e+00
1.00110289e+00
1.00107728e+00
1.00105131e+00
1.00102514e+00
1.00099891e+00
1.00097276e+00
1.00094680e+00
1.00092115e+00
1.00089592e+00
1.00087121e+00
1.00084713e+00
1.00082380e+00
1.00080132e+00
1.00077980e+00
1.00075939e+00
1.00074020e+00
1.00072239e+00
1.00070609e+00
1.00069146e+00
1.00067864e+00
1.00066778e+00
1.00065899e+00
1.00065239e+00
1.00064804e+00
1.00064598e+00
1.00064621e+00
1.00064867e+00
1.00065324e+00
1.00065978e+00
1.00066808e+00
1.00067790e+00
1.00068895e+00
1.00070096e+00
1.00071364e+00
1.00072670e+00
1.00073992e+00
1.00075310e+00
1.00076611e+00
1.00077889e+00
1.00079147e+00
1.00080397e+00
1.00081658e+00
1.00082959e+00
1.00084338e+00
1.00085837e+00
1.00087504e+00
1.00089396e+00
1.00091566e+00
1.00094069e+00
1.00096960e+00
1.00100291e+00
1.00104104e+00
1.00108436e+00
1.00113312e+00
1.00118748e+00
1.00124745e+00
1.00131289e+00
1.00138349e+00
1.00145885e+00
1.00153845e+00
1.00162145e+00
1.00170696e+00
1.00179419e+00
1.00188207e+00
1.00196922e+00
1.00205459e+00
1.00213723e+00
1.00221567e+00
1.00228864e+00
1.00235535e+00
1.00241478e+00
1.00246571e+00
1.00250761e+00
1.00253960e+00
1.00256116e+00
1.00257296e+00
1.00034397e+00
1.00034397e+00
1.00034459e+00
1.00034673e+00
1.00035026e+00
1.00035507e+00
1.00036206e+00
1.00037169e+00
1.00038382e+00
1.00039896e+00
1.00041779e+00
1.00044017e+00
1.00046602e+00
1.00049569e+00
1.00052908e+00
1.00056568e+00
1.00060526e+00
1.00064755e+00
1.00069193e+00
1.00073778e+00
1.00078460e+00
1.00083184e+00
1.00087881e+00
1.00092498e+00
1.00096986e+00
1.00101296e+00
1.00105386e+00
1.00109222e+00
1.00112774e+00
1.00116019e+00
1.00118937e+00
1.00121517e+00
1.00123748e+00
1.00125625e+00
1.00127148e+00
1.00128318e+00
1.00129141e+00
1.00129623e+00
1.00129775e+00
1.00129611e+00
1.00129144e+00
1.00128391e+00
1.00127371e+00
1.00126103e+00
1.00124607e+00
1.00122905e+00
1.00121019e+00
1.00118970e+00
1.00116781e+00
1.00114472e+00
1.00112065e+00
1.00109579e+00
1.00107035e+00
1.00104449e+00
1.00101841e+00
1.00099226e+00
1.00096620e+00
1.00094038e+00
1.00091495e+00
1.00089004e+00
1.00086579e+00
1.00084232e+00
1.00081977e+00
1.00079826e+00
1.00077790e+00
1.00075883e+00
1.00074116e+00
1.00072501e+00
1.00071050e+00
1.00069773e+00
1.00068682e+00
1.00067787e+00
1.00067094e+00
1.00066611e+00
1.00066342e+00
1.00066285e+00
1.00066439e+00
1.00066795e+00
1.00067341e+00
1.00068060e+00
1.00068933e+00
1.00069935e+00
1.00071038e+00
1.00072216e+00
1.00073438e+00
1.00074680e+00
1.00075917e+00
1.00077129e+00
1.00078303e+00
1.00079434e+00
1.00080523e+00
1.00081579e+00
1.00082622e+00
1.00083679e+00
1.00084783e+00
1.00085975e+00
1.00087304e+00
1.00088818e+00
1.00090571e+00
1.00092619e+00
1.00095014e+00
1.00097805e+00
1.00101039e+00
1.00104757e+00
1.00108987e+00
1.00113749e+00
1.00119056e+00
1.00124903e+00
1.00131270e+00
1.00138130e+00
1.00145438e+00
1.00153130e+00
1.00161140e+00
1.00169386e+00
1.00177767e+00
1.00186184e+00
1.00194538e+00
1.00202709e+00
1.00210579e+00
1.00218049e+00
1.00225009e+00
1.00231343e+00
1.00236971e+00
1.00241810e+00
1.00245781e+00
1.00248803e+00
1.00250855e+00
1.00251956e+00
1.00035433e+00
1.00035435e+00
1.00035514e+00
1.00035713e+00
1.00036055e+00
1.00036566e+00
1.00037283e+00
1.00038218e+00
1.00039422e+00
1.00040944e+00
1.00042786e+00
1.00044959e+00
1.00047499e+00
1.00050399e+00
1.00053628e+00
1.00057177e+00
1.00061025e+00
1.00065118e+00
1.00069406e+00
1.00073848e+00
1.00078384e+00
1.00082954e+00
1.00087503e+00
1.00091981e+00
1.00096333e+00
1.00100514e+00
1.00104485e+00
1.00108209e+00
1.00111654e+00
1.00114796e+00
1.00117615e+00
1.00120096e+00
1.00122228e+00
1.00124004e+00
1.00125422e+00
1.00126483e+00
1.00127192e+00
1.00127558e+00
1.00127591e+00
1.00127305e+00
1.00126716e+00
1.00125843e+00
1.00124706e+00
1.00123326e+00
1.00121724e+00
1.00119925e+00
1.00117950e+00
1.00115822e+00
1.00113564e+00
1.00111197e+00
1.00108743e+00
1.00106221e+00
1.00103652e+00
1.00101055e+00
1.00098447e+00
1.00095846e+00
1.00093270e+00
1.00090735e+00
1.00088257e+00
1.00085854e+00
1.00083539e+00
1.00081328e+00
1.00079237e+00
1.00077278e+00
1.00075464e+00
1.00073809e+00
1.00072323e+00
1.00071016e+00
1.00069899e+00
1.00068979e+00
1.00068262e+00
1.00067753e+00
1.00067454e+00
1.00067366e+00
1.00067484e+00
1.00067802e+00
1.00068310e+00
1.00068993e+00
1.00069833e+00
1.00070808e+00
1.00071892e+00
1.00073059e+00
1.00074278e+00
1.00075522e+00
1.00076762e+00
1.00077974e+00
1.00079138e+00
1.00080239e+00
1.00081272e+00
1.00082235e+00
1.00083138e+00
1.00083999e+00
1.00084843e+00
1.00085703e+00
1.00086619e+00
1.00087636e+00
1.00088802e+00
1.00090173e+00
1.00091799e+00
1.00093732e+00
1.00096023e+00
1.00098721e+00
1.00101864e+00
1.00105485e+00
1.00109612e+00
1.00114260e+00
1.00119431e+00
1.00125117e+00
1.00131299e+00
1.00137945e+00
1.00145007e+00
1.00152421e+00
1.00160123e+00
1.00168036e+00
1.00176059e+00
1.00184095e+00
1.00192059e+00
1.00199836e+00
1.00207307e+00
1.00214384e+00
1.00220977e+00
1.00226966e+00
1.00232273e+00
1.00236833e+00
1.00240575e+00
1.00243418e+00
1.00245340e+00
1.00246351e+00
1.00036466e+00
1.00036444e+00
1.00036530e+00
1.00036726e+00
1.00037072e+00
1.00037593e+00
1.00038302e+00
1.00039227e+00
1.00040432e+00
1.00041929e+00
1.00043722e+00
1.00045851e+00
1.00048331e+00
1.00051137e+00
1.00054263e+00
1.00057706e+00
1.00061425e+00
1.00065373e+00
1.00069517e+00
1.00073809e+00
1.00078190e+00
1.00082606e+00
1.00087008e+00
1.00091343e+00
1.00095559e+00
1.00099612e+00
1.00103462e+00
1.00107072e+00
1.00110409e+00
1.00113449e+00
1.00116168e+00
1.00118548e+00
1.00120578e+00
1.00122251e+00
1.00123561e+00
1.00124510e+00
1.00125103e+00
1.00125348e+00
1.00125258e+00
1.00124847e+00
1.00124135e+00
1.00123141e+00
1.00121887e+00
1.00120396e+00
1.00118691e+00
1.00116798e+00
1.00114739e+00
1.00112539e+00
1.00110220e+00
1.00107805e+00
1.00105314e+00
1.00102769e+00
1.00100188e+00
1.00097592e+00
1.00094999e+00
1.00092427e+00
1.00089895e+00
1.00087421e+00
1.00085024e+00
1.00082720e+00
1.00080528e+00
1.00078465e+00
1.00076547e+00
1.00074788e+00
1.00073204e+00