# vtk DataFile Version 2.0
LBM Flow Field - Timestep 2550
ASCII
DATASET STRUCTURED_POINTS
DIMENSIONS 128 128 1
ORIGIN 0.0 0.0 0.0
SPACING 1.0 1.0 1.0
POINT_DATA 16384
SCALARS density double 1
LOOKUP_TABLE default
1.00122161e+00
1.00125211e+00
1.00129439e+00
1.00129307e+00
1.00130241e+00
1.00132798e+00
1.00134766e+00
1.00136106e+00
1.00138084e+00
1.00140113e+00
1.00141751e+00
1.00143244e+00
1.00144771e+00
1.00146041e+00
1.00147069e+00
1.00147944e+00
1.00148672e+00
1.00149204e+00
1.00149605e+00
1.00149909e+00
1.00150139e+00
1.00150318e+00
1.00150488e+00
1.00150668e+00
1.00150883e+00
1.00151143e+00
1.00151460e+00
1.00151833e+00
1.00152258e+00
1.00152721e+00
1.00153203e+00
1.00153683e+00
1.00154134e+00
1.00154527e+00
1.00154834e+00
1.00155025e+00
1.00155074e+00
1.00154957e+00
1.00154656e+00
1.00154156e+00
1.00153449e+00
1.00152534e+00
1.00151416e+00
1.00150103e+00
1.00148613e+00
1.00146966e+00
1.00145184e+00
1.00143294e+00
1.00141323e+00
1.00139297e+00
1.00137239e+00
1.00135171e+00
1.00133107e+00
1.00131059e+00
1.00129030e+00
1.00127020e+00
1.00125019e+00
1.00123013e+00
1.00120982e+00
1.00118901e+00
1.00116744e+00
1.00114481e+00
1.00112081e+00
1.00109518e+00
1.00106767e+00
1.00103805e+00
1.00100619e+00
1.00097202e+00
1.00093554e+00
1.00089685e+00
1.00085613e+00
1.00081367e+00
1.00076983e+00
1.00072506e+00
1.00067988e+00
1.00063488e+00
1.00059067e+00
1.00054793e+00
1.00050732e+00
1.00046952e+00
1.00043517e+00
1.00040490e+00
1.00037929e+00
1.00035883e+00
1.00034397e+00
1.00033507e+00
1.00033239e+00
1.00033610e+00
1.00034629e+00
1.00036293e+00
1.00038592e+00
1.00041506e+00
1.00045005e+00
1.00049053e+00
1.00053606e+00
1.00058614e+00
1.00064024e+00
1.00069775e+00
1.00075806e+00
1.00082056e+00
1.00088463e+00
1.00094958e+00
1.00101487e+00
1.00107994e+00
1.00114421e+00
1.00120716e+00
1.00126846e+00
1.00132766e+00
1.00138445e+00
1.00143854e+00
1.00148980e+00
1.00153795e+00
1.00158330e+00
1.00162524e+00
1.00166383e+00
1.00169974e+00
1.00173356e+00
1.00176241e+00
1.00178878e+00
1.00181575e+00
1.00183945e+00
1.00185354e+00
1.00187357e+00
1.00189949e+00
1.00190732e+00
1.00190329e+00
1.00195004e+00
1.00198397e+00
1.00125076e+00
1.00125700e+00
1.00129263e+00
1.00130097e+00
1.00131181e+00
1.00133008e+00
1.00135109e+00
1.00136667e+00
1.00138478e+00
1.00140305e+00
1.00142035e+00
1.00143514e+00
1.00144952e+00
1.00146189e+00
1.00147251e+00
1.00148106e+00
1.00148825e+00
1.00149373e+00
1.00149800e+00
1.00150117e+00
1.00150372e+00
1.00150577e+00
1.00150773e+00
1.00150975e+00
1.00151211e+00
1.00151490e+00
1.00151821e+00
1.00152203e+00
1.00152632e+00
1.00153095e+00
1.00153575e+00
1.00154048e+00
1.00154490e+00
1.00154872e+00
1.00155166e+00
1.00155343e+00
1.00155379e+00
1.00155250e+00
1.00154937e+00
1.00154427e+00
1.00153712e+00
1.00152791e+00
1.00151666e+00
1.00150348e+00
1.00148853e+00
1.00147200e+00
1.00145412e+00
1.00143513e+00
1.00141531e+00
1.00139489e+00
1.00137413e+00
1.00135321e+00
1.00133230e+00
1.00131150e+00
1.00129085e+00
1.00127035e+00
1.00124991e+00
1.00122939e+00
1.00120862e+00
1.00118734e+00
1.00116532e+00
1.00114225e+00
1.00111786e+00
1.00109188e+00
1.00106407e+00
1.00103424e+00
1.00100224e+00
1.00096800e+00
1.00093155e+00
1.00089297e+00
1.00085245e+00
1.00081026e+00
1.00076678e+00
1.00072243e+00
1.00067772e+00
1.00063324e+00
1.00058958e+00
1.00054741e+00
1.00050737e+00
1.00047012e+00
1.00043632e+00
1.00040656e+00
1.00038141e+00
1.00036136e+00
1.00034686e+00
1.00033824e+00
1.00033578e+00
1.00033965e+00
1.00034991e+00
1.00036657e+00
1.00038950e+00
1.00041851e+00
1.00045332e+00
1.00049355e+00
1.00053879e+00
1.00058853e+00
1.00064224e+00
1.00069932e+00
1.00075920e+00
1.00082122e+00
1.00088479e+00
1.00094925e+00
1.00101405e+00
1.00107859e+00
1.00114237e+00
1.00120482e+00
1.00126568e+00
1.00132438e+00
1.00138076e+00
1.00143438e+00
1.00148534e+00
1.00153311e+00
1.00157806e+00
1.00161952e+00
1.00165831e+00
1.00169381e+00
1.00172683e+00
1.00175568e+00
1.00178345e+00
1.00180849e+00
1.00183081e+00
1.00184773e+00
1.00186994e+00
1.00188779e+00
1.00189779e+00
1.00190468e+00
1.00194429e+00
1.00195110e+00
1.00128951e+00
1.00128851e+00
1.00127806e+00
1.00130280e+00
1.00132767e+00
1.00133511e+00
1.00135007e+00
1.00137265e+00
1.00139038e+00
1.00140504e+00
1.00142244e+00
1.00143877e+00
1.00145198e+00
1.00146384e+00
1.00147485e+00
1.00148368e+00
1.00149068e+00
1.00149645e+00
1.00150106e+00
1.00150455e+00
1.00150737e+00
1.00150982e+00
1.00151212e+00
1.00151449e+00
1.00151714e+00
1.00152019e+00
1.00152372e+00
1.00152771e+00
1.00153212e+00
1.00153682e+00
1.00154163e+00
1.00154634e+00
1.00155069e+00
1.00155442e+00
1.00155724e+00
1.00155888e+00
1.00155909e+00
1.00155764e+00
1.00155436e+00
1.00154910e+00
1.00154179e+00
1.00153241e+00
1.00152099e+00
1.00150764e+00
1.00149249e+00
1.00147575e+00
1.00145763e+00
1.00143838e+00
1.00141826e+00
1.00139751e+00
1.00137637e+00
1.00135504e+00
1.00133367e+00
1.00131238e+00
1.00129121e+00
1.00127016e+00
1.00124915e+00
1.00122806e+00
1.00120671e+00
1.00118488e+00
1.00116231e+00
1.00113874e+00
1.00111390e+00
1.00108752e+00
1.00105938e+00
1.00102930e+00
1.00099713e+00
1.00096282e+00
1.00092639e+00
1.00088791e+00
1.00084759e+00
1.00080569e+00
1.00076257e+00
1.00071865e+00
1.00067444e+00
1.00063049e+00
1.00058741e+00
1.00054583e+00
1.00050639e+00
1.00046975e+00
1.00043653e+00
1.00040733e+00
1.00038270e+00
1.00036313e+00
1.00034905e+00
1.00034080e+00
1.00033864e+00
1.00034275e+00
1.00035319e+00
1.00036995e+00
1.00039293e+00
1.00042191e+00
1.00045663e+00
1.00049672e+00
1.00054176e+00
1.00059125e+00
1.00064465e+00
1.00070140e+00
1.00076089e+00
1.00082249e+00
1.00088560e+00
1.00094961e+00
1.00101393e+00
1.00107793e+00
1.00114118e+00
1.00120319e+00
1.00126347e+00
1.00132165e+00
1.00137752e+00
1.00143071e+00
1.00148111e+00
1.00152851e+00
1.00157276e+00
1.00161403e+00
1.00165267e+00
1.00168748e+00
1.00171912e+00
1.00174962e+00
1.00177742e+00
1.00179876e+00
1.00182075e+00
1.00184602e+00
1.00186142e+00
1.00186742e+00
1.00189319e+00
1.00191927e+00
1.00190699e+00
1.00190648e+00
1.00128119e+00
1.00128939e+00
1.00129578e+00
1.00131183e+00
1.00132495e+00
1.00133966e+00
1.00135711e+00
1.00137488e+00
1.00139158e+00
1.00140879e+00
1.00142531e+00
1.00144043e+00
1.00145419e+00
1.00146670e+00
1.00147742e+00
1.00148650e+00
1.00149410e+00
1.00150036e+00
1.00150534e+00
1.00150942e+00
1.00151284e+00
1.00151582e+00
1.00151861e+00
1.00152146e+00
1.00152452e+00
1.00152791e+00
1.00153169e+00
1.00153588e+00
1.00154039e+00
1.00154511e+00
1.00154988e+00
1.00155449e+00
1.00155869e+00
1.00156222e+00
1.00156481e+00
1.00156620e+00
1.00156614e+00
1.00156442e+00
1.00156086e+00
1.00155532e+00
1.00154774e+00
1.00153809e+00
1.00152640e+00
1.00151277e+00
1.00149733e+00
1.00148028e+00
1.00146184e+00
1.00144224e+00
1.00142173e+00
1.00140055e+00
1.00137895e+00
1.00135710e+00
1.00133519e+00
1.00131330e+00
1.00129151e+00
1.00126981e+00
1.00124812e+00
1.00122635e+00
1.00120432e+00
1.00118181e+00
1.00115861e+00
1.00113444e+00
1.00110905e+00
1.00108220e+00
1.00105366e+00
1.00102327e+00
1.00099089e+00
1.00095648e+00
1.00092004e+00
1.00088168e+00
1.00084157e+00
1.00079999e+00
1.00075727e+00
1.00071385e+00
1.00067020e+00
1.00062687e+00
1.00058445e+00
1.00054357e+00
1.00050484e+00
1.00046891e+00
1.00043638e+00
1.00040785e+00
1.00038384e+00
1.00036485e+00
1.00035129e+00
1.00034350e+00
1.00034172e+00
1.00034614e+00
1.00035681e+00
1.00037373e+00
1.00039678e+00
1.00042577e+00
1.00046041e+00
1.00050036e+00
1.00054518e+00
1.00059439e+00
1.00064747e+00
1.00070383e+00
1.00076289e+00
1.00082403e+00
1.00088664e+00
1.00095011e+00
1.00101386e+00
1.00107734e+00
1.00114003e+00
1.00120145e+00
1.00126115e+00
1.00131883e+00
1.00137415e+00
1.00142683e+00
1.00147667e+00
1.00152368e+00
1.00156761e+00
1.00160839e+00
1.00164619e+00
1.00168125e+00
1.00171300e+00
1.00174204e+00
1.00176880e+00
1.00179304e+00
1.00181385e+00
1.00183396e+00
1.00185228e+00
1.00186690e+00
1.00187948e+00
1.00189597e+00
1.00190243e+00
1.00191288e+00
1.00128158e+00
1.00129160e+00
1.00131140e+00
1.00131560e+00
1.00132299e+00
1.00134566e+00
1.00136319e+00
1.00137560e+00
1.00139302e+00
1.00141225e+00
1.00142750e+00
1.00144177e+00
1.00145648e+00
1.00146939e+00
1.00148003e+00
1.00148964e+00
1.00149802e+00
1.00150484e+00
1.00151048e+00
1.00151535e+00
1.00151951e+00
1.00152319e+00
1.00152667e+00
1.00153014e+00
1.00153372e+00
1.00153756e+00
1.00154168e+00
1.00154609e+00
1.00155074e+00
1.00155550e+00
1.00156021e+00
1.00156468e+00
1.00156868e+00
1.00157195e+00
1.00157424e+00
1.00157529e+00
1.00157489e+00
1.00157280e+00
1.00156888e+00
1.00156298e+00
1.00155503e+00
1.00154501e+00
1.00153296e+00
1.00151896e+00
1.00150315e+00
1.00148571e+00
1.00146685e+00
1.00144679e+00
1.00142579e+00
1.00140409e+00
1.00138191e+00
1.00135944e+00
1.00133685e+00
1.00131426e+00
1.00129171e+00
1.00126922e+00
1.00124673e+00
1.00122414e+00
1.00120130e+00
1.00117800e+00
1.00115403e+00
1.00112916e+00
1.00110313e+00
1.00107571e+00
1.00104671e+00
1.00101596e+00
1.00098334e+00
1.00094881e+00
1.00091238e+00
1.00087416e+00
1.00083431e+00
1.00079311e+00
1.00075089e+00
1.00070805e+00
1.00066508e+00
1.00062250e+00
1.00058089e+00
1.00054084e+00
1.00050296e+00
1.00046788e+00
1.00043619e+00
1.00040846e+00
1.00038522e+00
1.00036693e+00
1.00035400e+00
1.00034676e+00
1.00034546e+00
1.00035025e+00
1.00036122e+00
1.00037834e+00
1.00040150e+00
1.00043050e+00
1.00046508e+00
1.00050488e+00
1.00054946e+00
1.00059837e+00
1.00065107e+00
1.00070700e+00
1.00076556e+00
1.00082617e+00
1.00088822e+00
1.00095108e+00
1.00101420e+00
1.00107707e+00
1.00113911e+00
1.00119986e+00
1.00125898e+00
1.00131605e+00
1.00137074e+00
1.00142288e+00
1.00147220e+00
1.00151860e+00
1.00156217e+00
1.00160261e+00
1.00163961e+00
1.00167435e+00
1.00170663e+00
1.00173449e+00
1.00175965e+00
1.00178600e+00
1.00180777e+00
1.00182199e+00
1.00184051e+00
1.00186427e+00
1.00187064e+00
1.00187396e+00
1.00189607e+00
1.00190812e+00
1.00129571e+00
1.00129844e+00
1.00130757e+00
1.00131918e+00
1.00133446e+00
1.00134808e+00
1.00136175e+00
1.00137957e+00
1.00139739e+00
1.00141291e+00
1.00142869e+00
1.00144471e+00
1.00145893e+00
1.00147147e+00
1.00148320e+00
1.00149361e+00
1.00150240e+00
1.00150999e+00
1.00151666e+00
1.00152239e+00
1.00152737e+00
1.00153192e+00
1.00153623e+00
1.00154040e+00
1.00154460e+00
1.00154895e+00
1.00155347e+00
1.00155816e+00
1.00156296e+00
1.00156776e+00
1.00157241e+00
1.00157672e+00
1.00158048e+00
1.00158344e+00
1.00158538e+00
1.00158604e+00
1.00158522e+00
1.00158270e+00
1.00157833e+00
1.00157199e+00
1.00156360e+00
1.00155314e+00
1.00154064e+00
1.00152618e+00
1.00150990e+00
1.00149197e+00
1.00147259e+00
1.00145198e+00
1.00143039e+00
1.00140805e+00
1.00138518e+00
1.00136198e+00
1.00133861e+00
1.00131518e+00
1.00129177e+00
1.00126838e+00
1.00124497e+00
1.00122146e+00
1.00119770e+00
1.00117351e+00
1.00114869e+00
1.00112303e+00
1.00109628e+00
1.00106825e+00
1.00103874e+00
1.00100759e+00
1.00097471e+00
1.00094006e+00
1.00090365e+00
1.00086559e+00
1.00082605e+00
1.00078529e+00
1.00074363e+00
1.00070147e+00
1.00065927e+00
1.00061754e+00
1.00057683e+00
1.00053773e+00
1.00050083e+00
1.00046672e+00
1.00043598e+00
1.00040917e+00
1.00038679e+00
1.00036930e+00
1.00035710e+00
1.00035050e+00
1.00034975e+00
1.00035499e+00
1.00036631e+00
1.00038367e+00
1.00040697e+00
1.00043602e+00
1.00047053e+00
1.00051017e+00
1.00055451e+00
1.00060309e+00
1.00065538e+00
1.00071083e+00
1.00076887e+00
1.00082888e+00
1.00089028e+00
1.00095250e+00
1.00101494e+00
1.00107707e+00
1.00113840e+00
1.00119849e+00
1.00125691e+00
1.00131327e+00
1.00136730e+00
1.00141884e+00
1.00146766e+00
1.00151343e+00
1.00155627e+00
1.00159644e+00
1.00163347e+00
1.00166702e+00
1.00169829e+00
1.00172756e+00
1.00175291e+00
1.00177501e+00
1.00179730e+00
1.00181760e+00
1.00183194e+00
1.00184560e+00
1.00186109e+00
1.00187282e+00
1.00188289e+00
1.00188648e+00
1.00130279e+00
1.00130717e+00
1.00131021e+00
1.00132419e+00
1.00133951e+00
1.00134926e+00
1.00136455e+00
1.00138364e+00
1.00139909e+00
1.00141405e+00
1.00143128e+00
1.00144725e+00
1.00146099e+00
1.00147435e+00
1.00148701e+00
1.00149787e+00
1.00150744e+00
1.00151615e+00
1.00152381e+00
1.00153047e+00
1.00153651e+00
1.00154207e+00
1.00154726e+00
1.00155224e+00
1.00155717e+00
1.00156210e+00
1.00156706e+00
1.00157206e+00
1.00157702e+00
1.00158186e+00
1.00158643e+00
1.00159055e+00
1.00159403e+00
1.00159664e+00
1.00159816e+00
1.00159837e+00
1.00159706e+00
1.00159403e+00
1.00158914e+00
1.00158228e+00
1.00157336e+00
1.00156237e+00
1.00154934e+00
1.00153435e+00
1.00151751e+00
1.00149900e+00
1.00147902e+00
1.00145777e+00
1.00143550e+00
1.00141242e+00
1.00138877e+00
1.00136474e+00
1.00134048e+00
1.00131613e+00
1.00129174e+00
1.00126735e+00
1.00124292e+00
1.00121838e+00
1.00119361e+00
1.00116844e+00
1.00114269e+00
1.00111615e+00
1.00108862e+00
1.00105991e+00
1.00102984e+00
1.00099827e+00
1.00096511e+00
1.00093033e+00
1.00089396e+00
1.00085609e+00
1.00081690e+00
1.00077663e+00
1.00073560e+00
1.00069420e+00
1.00065286e+00
1.00061208e+00
1.00057239e+00
1.00053434e+00
1.00049852e+00
1.00046549e+00
1.00043581e+00
1.00041002e+00
1.00038860e+00
1.00037201e+00
1.00036061e+00
1.00035473e+00
1.00035458e+00
1.00036033e+00
1.00037203e+00
1.00038966e+00
1.00041312e+00
1.00044221e+00
1.00047665e+00
1.00051611e+00
1.00056018e+00
1.00060839e+00
1.00066023e+00
1.00071515e+00
1.00077260e+00
1.00083196e+00
1.00089266e+00
1.00095414e+00
1.00101584e+00
1.00107719e+00
1.00113776e+00
1.00119708e+00
1.00125472e+00
1.00131037e+00
1.00136377e+00
1.00141455e+00
1.00146270e+00
1.00150810e+00
1.00155034e+00
1.00158962e+00
1.00162654e+00
1.00166013e+00
1.00169008e+00
1.00171862e+00
1.00174535e+00
1.00176673e+00
1.00178614e+00
1.00180782e+00
1.00182425e+00
1.00183370e+00
1.00184932e+00
1.00186383e+00
1.00186698e+00
1.00187249e+00
1.00130281e+00
1.00130958e+00
1.00131980e+00
1.00132895e+00
1.00133888e+00
1.00135397e+00
1.00137047e+00
1.00138441e+00
1.00140000e+00
1.00141789e+00
1.00143409e+00
1.00144879e+00
1.00146392e+00
1.00147839e+00
1.00149106e+00
1.00150266e+00
1.00151357e+00
1.00152330e+00
1.00153189e+00
1.00153975e+00
1.00154697e+00
1.00155357e+00
1.00155973e+00
1.00156564e+00
1.00157134e+00
1.00157689e+00
1.00158234e+00
1.00158767e+00
1.00159282e+00
1.00159769e+00
1.00160217e+00
1.00160608e+00
1.00160924e+00
1.00161145e+00
1.00161251e+00
1.00161220e+00
1.00161033e+00
1.00160673e+00
1.00160125e+00
1.00159378e+00
1.00158426e+00
1.00157266e+00
1.00155902e+00
1.00154340e+00
1.00152593e+00
1.00150676e+00
1.00148608e+00
1.00146410e+00
1.00144105e+00
1.00141716e+00
1.00139263e+00
1.00136767e+00
1.00134244e+00
1.00131706e+00
1.00129161e+00
1.00126613e+00
1.00124060e+00
1.00121495e+00
1.00118909e+00
1.00116286e+00
1.00113611e+00
1.00110864e+00
1.00108028e+00
1.00105085e+00
1.00102019e+00
1.00098818e+00
1.00095474e+00
1.00091983e+00
1.00088351e+00
1.00084586e+00
1.00080706e+00
1.00076734e+00
1.00072700e+00
1.00068642e+00
1.00064602e+00
1.00060627e+00
1.00056767e+00
1.00053078e+00
1.00049612e+00
1.00046426e+00
1.00043573e+00
1.00041104e+00
1.00039067e+00
1.00037504e+00
1.00036451e+00
1.00035939e+00
1.00035990e+00
1.00036618e+00
1.00037829e+00
1.00039620e+00
1.00041982e+00
1.00044894e+00
1.00048330e+00
1.00052256e+00
1.00056631e+00
1.00061411e+00
1.00066546e+00
1.00071979e+00
1.00077657e+00
1.00083523e+00
1.00089519e+00
1.00095586e+00
1.00101673e+00
1.00107729e+00
1.00113703e+00
1.00119551e+00
1.00125235e+00
1.00130726e+00
1.00135992e+00
1.00141004e+00
1.00145743e+00
1.00150221e+00
1.00154419e+00
1.00158285e+00
1.00161865e+00
1.00165237e+00
1.00168292e+00
1.00170954e+00
1.00173475e+00
1.00175901e+00
1.00177848e+00
1.00179453e+00
1.00181233e+00
1.00182784e+00
1.00183751e+00
1.00184671e+00
1.00185794e+00
1.00186610e+00
1.00130964e+00
1.00131505e+00
1.00132480e+00
1.00133282e+00
1.00134339e+00
1.00135874e+00
1.00137275e+00
1.00138675e+00
1.00140395e+00
1.00142084e+00
1.00143607e+00
1.00145199e+00
1.00146799e+00
1.00148235e+00
1.00149572e+00
1.00150870e+00
1.00152058e+00
1.00153121e+00
1.00154110e+00
1.00155028e+00
1.00155862e+00
1.00156634e+00
1.00157363e+00
1.00158049e+00
1.00158700e+00
1.00159323e+00
1.00159920e+00
1.00160488e+00
1.00161022e+00
1.00161513e+00
1.00161949e+00
1.00162317e+00
1.00162599e+00
1.00162776e+00
1.00162830e+00
1.00162742e+00
1.00162494e+00
1.00162070e+00
1.00161456e+00
1.00160642e+00
1.00159622e+00
1.00158394e+00
1.00156960e+00
1.00155328e+00
1.00153509e+00
1.00151517e+00
1.00149371e+00
1.00147093e+00
1.00144702e+00
1.00142222e+00
1.00139674e+00
1.00137077e+00
1.00134448e+00
1.00131800e+00
1.00129141e+00
1.00126476e+00
1.00123805e+00
1.00121123e+00
1.00118420e+00
1.00115686e+00
1.00112905e+00
1.00110061e+00
1.00107138e+00
1.00104120e+00
1.00100992e+00
1.00097746e+00
1.00094373e+00
1.00090871e+00
1.00087246e+00
1.00083506e+00
1.00079669e+00
1.00075756e+00
1.00071797e+00
1.00067828e+00
1.00063889e+00
1.00060024e+00
1.00056283e+00
1.00052716e+00
1.00049375e+00
1.00046313e+00
1.00043582e+00
1.00041231e+00
1.00039304e+00
1.00037843e+00
1.00036882e+00
1.00036450e+00
1.00036569e+00
1.00037252e+00
1.00038505e+00
1.00040324e+00
1.00042700e+00
1.00045613e+00
1.00049037e+00
1.00052939e+00
1.00057279e+00
1.00062013e+00
1.00067091e+00
1.00072462e+00
1.00078068e+00
1.00083856e+00
1.00089769e+00
1.00095752e+00
1.00101751e+00
1.00107718e+00
1.00113603e+00
1.00119366e+00
1.00124971e+00
1.00130377e+00
1.00135560e+00
1.00140512e+00
1.00145195e+00
1.00149585e+00
1.00153719e+00
1.00157588e+00
1.00161110e+00
1.00164352e+00
1.00167422e+00
1.00170163e+00
1.00172517e+00
1.00174799e+00
1.00176929e+00
1.00178542e+00
1.00180034e+00
1.00181633e+00
1.00182689e+00
1.00183487e+00
1.00184563e+00
1.00185206e+00
1.00131782e+00
1.00132141e+00
1.00132764e+00
1.00133813e+00
1.00135052e+00
1.00136193e+00
1.00137517e+00
1.00139190e+00
1.00140799e+00
1.00142301e+00
1.00143967e+00
1.00145668e+00
1.00147208e+00
1.00148695e+00
1.00150184e+00
1.00151569e+00
1.00152831e+00
1.00154030e+00
1.00155159e+00
1.00156191e+00
1.00157148e+00
1.00158047e+00
1.00158887e+00
1.00159670e+00
1.00160407e+00
1.00161102e+00
1.00161752e+00
1.00162355e+00
1.00162909e+00
1.00163403e+00
1.00163828e+00
1.00164170e+00
1.00164414e+00
1.00164544e+00
1.00164542e+00
1.00164392e+00
1.00164078e+00
1.00163583e+00
1.00162897e+00
1.00162009e+00
1.00160915e+00
1.00159611e+00
1.00158100e+00
1.00156390e+00
1.00154491e+00
1.00152417e+00
1.00150186e+00
1.00147818e+00
1.00145334e+00
1.00142756e+00
1.00140105e+00
1.00137400e+00
1.00134658e+00
1.00131893e+00
1.00129114e+00
1.00126327e+00
1.00123532e+00
1.00120726e+00
1.00117904e+00
1.00115053e+00
1.00112163e+00
1.00109219e+00
1.00106206e+00
1.00103112e+00
1.00099923e+00
1.00096631e+00
1.00093230e+00
1.00089719e+00
1.00086103e+00
1.00082391e+00
1.00078600e+00
1.00074751e+00
1.00070873e+00
1.00066998e+00
1.00063165e+00
1.00059417e+00
1.00055800e+00
1.00052361e+00
1.00049151e+00
1.00046220e+00
1.00043617e+00
1.00041387e+00
1.00039575e+00
1.00038219e+00
1.00037353e+00
1.00037004e+00
1.00037192e+00
1.00037930e+00
1.00039223e+00
1.00041069e+00
1.00043457e+00
1.00046368e+00
1.00049776e+00
1.00053649e+00
1.00057948e+00
1.00062630e+00
1.00067646e+00
1.00072945e+00
1.00078475e+00
1.00084178e+00
1.00090002e+00
1.00095895e+00
1.00101802e+00
1.00107674e+00
1.00113467e+00
1.00119141e+00
1.00124657e+00
1.00129984e+00
1.00135090e+00
1.00139959e+00
1.00144585e+00
1.00148929e+00
1.00152978e+00
1.00156783e+00
1.00160327e+00
1.00163518e+00
1.00166438e+00
1.00169218e+00
1.00171685e+00
1.00173745e+00
1.00175733e+00
1.00177638e+00
1.00179061e+00
1.00180238e+00
1.00181500e+00
1.00182575e+00
1.00183268e+00
1.00183696e+00
1.00132391e+00
1.00132868e+00
1.00133488e+00
1.00134424e+00
1.00135513e+00
1.00136673e+00
1.00138108e+00
1.00139647e+00
1.00141133e+00
1.00142764e+00
1.00144489e+00
1.00146110e+00
1.00147702e+00
1.00149333e+00
1.00150887e+00
1.00152330e+00
1.00153730e+00
1.00155071e+00
1.00156309e+00
1.00157466e+00
1.00158563e+00
1.00159585e+00
1.00160533e+00
1.00161419e+00
1.00162247e+00
1.00163012e+00
1.00163716e+00
1.00164357e+00
1.00164930e+00
1.00165427e+00
1.00165838e+00
1.00166153e+00
1.00166357e+00
1.00166437e+00
1.00166376e+00
1.00166160e+00
1.00165774e+00
1.00165204e+00
1.00164439e+00
1.00163471e+00
1.00162295e+00
1.00160908e+00
1.00159314e+00
1.00157518e+00
1.00155532e+00
1.00153368e+00
1.00151045e+00
1.00148581e+00
1.00145997e+00
1.00143314e+00
1.00140553e+00
1.00137734e+00
1.00134874e+00
1.00131986e+00
1.00129082e+00
1.00126167e+00
1.00123245e+00
1.00120313e+00
1.00117367e+00
1.00114398e+00
1.00111397e+00
1.00108351e+00
1.00105248e+00
1.00102076e+00
1.00098826e+00
1.00095489e+00
1.00092062e+00
1.00088544e+00
1.00084940e+00
1.00081260e+00
1.00077519e+00
1.00073738e+00
1.00069944e+00
1.00066168e+00
1.00062447e+00
1.00058820e+00
1.00055332e+00
1.00052027e+00
1.00048952e+00
1.00046156e+00
1.00043684e+00
1.00041580e+00
1.00039885e+00
1.00038636e+00
1.00037866e+00
1.00037599e+00
1.00037855e+00
1.00038647e+00
1.00039979e+00
1.00041848e+00
1.00044244e+00
1.00047147e+00
1.00050534e+00
1.00054372e+00
1.00058624e+00
1.00063248e+00
1.00068195e+00
1.00073417e+00
1.00078861e+00
1.00084475e+00
1.00090205e+00
1.00095999e+00
1.00101807e+00
1.00107582e+00
1.00113280e+00
1.00118860e+00
1.00124283e+00
1.00129528e+00
1.00134564e+00
1.00139354e+00
1.00143896e+00
1.00148203e+00
1.00152221e+00
1.00155929e+00
1.00159412e+00
1.00162653e+00
1.00165533e+00
1.00168154e+00
1.00170651e+00
1.00172829e+00
1.00174657e+00
1.00176419e+00
1.00177986e+00
1.00179186e+00
1.00180290e+00
1.00181255e+00
1.00181939e+00
1.00182489e+00
1.00133083e+00
1.00133555e+00
1.00134323e+00
1.00135112e+00
1.00136076e+00
1.00137365e+00
1.00138746e+00
1.00140111e+00
1.00141681e+00
1.00143390e+00
1.00145018e+00
1.00146659e+00
1.00148390e+00
1.00150069e+00
1.00151658e+00
1.00153233e+00
1.00154770e+00
1.00156209e+00
1.00157571e+00
1.00158875e+00
1.00160099e+00
1.00161237e+00
1.00162302e+00
1.00163294e+00
1.00164208e+00
1.00165044e+00
1.00165803e+00
1.00166481e+00
1.00167073e+00
1.00167571e+00
1.00167968e+00
1.00168254e+00
1.00168416e+00
1.00168442e+00
1.00168319e+00
1.00168033e+00
1.00167571e+00
1.00166921e+00
1.00166072e+00
1.00165018e+00
1.00163754e+00
1.00162278e+00
1.00160593e+00
1.00158705e+00
1.00156624e+00
1.00154364e+00
1.00151941e+00
1.00149375e+00
1.00146684e+00
1.00143891e+00
1.00141015e+00
1.00138077e+00
1.00135094e+00
1.00132080e+00
1.00129047e+00
1.00126002e+00
1.00122950e+00
1.00119890e+00
1.00116819e+00
1.00113731e+00
1.00110618e+00
1.00107471e+00
1.00104278e+00
1.00101031e+00
1.00097721e+00
1.00094342e+00
1.00090890e+00
1.00087368e+00
1.00083778e+00
1.00080133e+00
1.00076445e+00
1.00072736e+00
1.00069030e+00
1.00065357e+00
1.00061750e+00
1.00058249e+00
1.00054892e+00
1.00051724e+00
1.00048788e+00
1.00046128e+00
1.00043789e+00
1.00041812e+00
1.00040235e+00
1.00039093e+00
1.00038418e+00
1.00038232e+00
1.00038555e+00
1.00039398e+00
1.00040765e+00
1.00042652e+00
1.00045050e+00
1.00047941e+00
1.00051301e+00
1.00055098e+00
1.00059295e+00
1.00063852e+00
1.00068724e+00
1.00073862e+00
1.00079213e+00
1.00084730e+00
1.00090360e+00
1.00096051e+00
1.00101756e+00
1.00107429e+00
1.00113027e+00
1.00118511e+00
1.00123847e+00
1.00129001e+00
1.00133956e+00
1.00138688e+00
1.00143164e+00
1.00147386e+00
1.00151372e+00
1.00155072e+00
1.00158465e+00
1.00161641e+00
1.00164584e+00
1.00167175e+00
1.00169520e+00
1.00171747e+00
1.00173668e+00
1.00175250e+00
1.00176757e+00
1.00178107e+00
1.00179098e+00
1.00179914e+00
1.00180751e+00
1.00181284e+00
1.00134098e+00
1.00134488e+00
1.00135117e+00
1.00135921e+00
1.00136929e+00
1.00138112e+00
1.00139384e+00
1.00140823e+00
1.00142422e+00
1.00144023e+00
1.00145669e+00
1.00147429e+00
1.00149181e+00
1.00150876e+00
1.00152588e+00
1.00154288e+00
1.00155906e+00
1.00157460e+00
1.00158970e+00
1.00160403e+00
1.00161743e+00
1.00163006e+00
1.00164190e+00
1.00165280e+00
1.00166279e+00
1.00167188e+00
1.00168001e+00
1.00168714e+00
1.00169324e+00
1.00169823e+00
1.00170205e+00
1.00170460e+00
1.00170578e+00
1.00170549e+00
1.00170361e+00
1.00170001e+00
1.00169459e+00
1.00168724e+00
1.00167787e+00
1.00166642e+00
1.00165283e+00
1.00163712e+00
1.00161930e+00
1.00159943e+00
1.00157762e+00
1.00155399e+00
1.00152871e+00
1.00150195e+00
1.00147393e+00
1.00144484e+00
1.00141490e+00
1.00138429e+00
1.00135319e+00
1.00132176e+00
1.00129012e+00
1.00125836e+00
1.00122653e+00
1.00119464e+00
1.00116268e+00
1.00113062e+00
1.00109839e+00
1.00106592e+00
1.00103312e+00
1.00099991e+00
1.00096624e+00
1.00093205e+00
1.00089732e+00
1.00086208e+00
1.00082637e+00
1.00079028e+00
1.00075397e+00
1.00071763e+00
1.00068147e+00
1.00064579e+00
1.00061090e+00
1.00057716e+00
1.00054493e+00
1.00051463e+00
1.00048666e+00
1.00046144e+00
1.00043938e+00
1.00042087e+00
1.00040627e+00
1.00039592e+00
1.00039009e+00
1.00038902e+00
1.00039287e+00
1.00040176e+00
1.00041573e+00
1.00043473e+00
1.00045868e+00
1.00048740e+00
1.00052064e+00
1.00055812e+00
1.00059948e+00
1.00064432e+00
1.00069219e+00
1.00074265e+00
1.00079519e+00
1.00084931e+00
1.00090453e+00
1.00096037e+00
1.00101634e+00
1.00107201e+00
1.00112695e+00
1.00118081e+00
1.00123328e+00
1.00128398e+00
1.00133265e+00
1.00137928e+00
1.00142359e+00
1.00146518e+00
1.00150427e+00
1.00154114e+00
1.00157508e+00
1.00160596e+00
1.00163486e+00
1.00166149e+00
1.00168468e+00
1.00170562e+00
1.00172518e+00
1.00174179e+00
1.00175574e+00
1.00176837e+00
1.00177889e+00
1.00178721e+00
1.00179416e+00
1.00179854e+00
1.00135175e+00
1.00135526e+00
1.00136079e+00
1.00136899e+00
1.00137885e+00
1.00138959e+00
1.00140233e+00
1.00141705e+00
1.00143218e+00
1.00144803e+00
1.00146540e+00
1.00148312e+00
1.00150059e+00
1.00151858e+00
1.00153680e+00
1.00155442e+00
1.00157163e+00
1.00158861e+00
1.00160491e+00
1.00162034e+00
1.00163505e+00
1.00164894e+00
1.00166182e+00
1.00167368e+00
1.00168455e+00
1.00169433e+00
1.00170297e+00
1.00171045e+00
1.00171672e+00
1.00172171e+00
1.00172535e+00
1.00172759e+00
1.00172832e+00
1.00172745e+00
1.00172489e+00
1.00172053e+00
1.00171428e+00
1.00170604e+00
1.00169574e+00
1.00168331e+00
1.00166874e+00
1.00165201e+00
1.00163316e+00
1.00161225e+00
1.00158937e+00
1.00156466e+00
1.00153826e+00
1.00151038e+00
1.00148119e+00
1.00145091e+00
1.00141974e+00
1.00138787e+00
1.00135550e+00
1.00132277e+00
1.00128981e+00
1.00125674e+00
1.00122360e+00
1.00119044e+00
1.00115726e+00
1.00112404e+00
1.00109073e+00
1.00105729e+00
1.00102365e+00
1.00098974e+00
1.00095553e+00
1.00092097e+00
1.00088607e+00
1.00085084e+00
1.00081534e+00
1.00077966e+00
1.00074394e+00
1.00070835e+00
1.00067313e+00
1.00063851e+00
1.00060481e+00
1.00057234e+00
1.00054146e+00
1.00051253e+00
1.00048595e+00
1.00046210e+00
1.00044136e+00
1.00042409e+00
1.00041064e+00
1.00040131e+00
1.00039636e+00
1.00039603e+00
1.00040046e+00
1.00040976e+00
1.00042396e+00
1.00044303e+00
1.00046688e+00
1.00049532e+00
1.00052815e+00
1.00056505e+00
1.00060571e+00
1.00064974e+00
1.00069670e+00
1.00074615e+00
1.00079763e+00
1.00085066e+00
1.00090475e+00
1.00095945e+00
1.00101430e+00
1.00106887e+00
1.00112278e+00
1.00117564e+00
1.00122713e+00
1.00127703e+00
1.00132501e+00
1.00137080e+00
1.00141446e+00
1.00145580e+00
1.00149442e+00
1.00153050e+00
1.00156440e+00
1.00159550e+00
1.00162362e+00
1.00164975e+00
1.00167365e+00
1.00169436e+00
1.00171290e+00
1.00172991e+00
1.00174415e+00
1.00175581e+00
1.00176615e+00
1.00177477e+00
1.00178102e+00
1.00178490e+00
1.00136357e+00
1.00136729e+00
1.00137280e+00
1.00138011e+00
1.00138918e+00
1.00140013e+00
1.00141287e+00
1.00142666e+00
1.00144158e+00
1.00145811e+00
1.00147540e+00
1.00149291e+00
1.00151123e+00
1.00153012e+00
1.00154875e+00
1.00156724e+00
1.00158577e+00
1.00160384e+00
1.00162116e+00
1.00163787e+00
1.00165385e+00
1.00166880e+00
1.00168271e+00
1.00169557e+00
1.00170725e+00
1.00171767e+00
1.00172681e+00
1.00173462e+00
1.00174104e+00
1.00174601e+00
1.00174948e+00
1.00175138e+00
1.00175164e+00
1.00175019e+00
1.00174693e+00
1.00174178e+00
1.00173466e+00
1.00172550e+00
1.00171422e+00
1.00170079e+00
1.00168518e+00
1.00166739e+00
1.00164745e+00
1.00162544e+00
1.00160145e+00
1.00157560e+00
1.00154805e+00
1.00151899e+00
1.00148860e+00
1.00145710e+00
1.00142468e+00
1.00139154e+00
1.00135788e+00
1.00132385e+00
1.00128959e+00
1.00125521e+00
1.00122079e+00
1.00118639e+00
1.00115201e+00
1.00111767e+00
1.00108333e+00
1.00104895e+00
1.00101451e+00
1.00097995e+00
1.00094524e+00
1.00091036e+00
1.00087531e+00
1.00084013e+00
1.00080486e+00
1.00076961e+00
1.00073450e+00
1.00069970e+00
1.00066540e+00
1.00063186e+00
1.00059934e+00
1.00056814e+00
1.00053859e+00
1.00051103e+00
1.00048582e+00
1.00046330e+00
1.00044385e+00
1.00042778e+00
1.00041543e+00
1.00040708e+00
1.00040298e+00
1.00040333e+00
1.00040827e+00
1.00041792e+00
1.00043229e+00
1.00045135e+00
1.00047500e+00
1.00050310e+00
1.00053542e+00
1.00057167e+00
1.00061155e+00
1.00065467e+00
1.00070064e+00
1.00074902e+00
1.00079937e+00
1.00085123e+00
1.00090413e+00
1.00095764e+00
1.00101133e+00
1.00106477e+00
1.00111761e+00
1.00116947e+00
1.00122002e+00
1.00126903e+00
1.00131630e+00
1.00136149e+00
1.00140443e+00
1.00144526e+00
1.00148373e+00
1.00151943e+00
1.00155271e+00
1.00158387e+00
1.00161219e+00
1.00163769e+00
1.00166131e+00
1.00168259e+00
1.00170091e+00
1.00171717e+00
1.00173161e+00
1.00174358e+00
1.00175333e+00
1.00176123e+00
1.00176734e+00
1.00177138e+00
1.00137733e+00
1.00138058e+00
1.00138595e+00
1.00139283e+00
1.00140156e+00
1.00141234e+00
1.00142448e+00
1.00143792e+00
1.00145314e+00
1.00146955e+00
1.00148654e+00
1.00150462e+00
1.00152362e+00
1.00154275e+00
1.00156206e+00
1.00158172e+00
1.00160118e+00
1.00162012e+00
1.00163866e+00
1.00165661e+00
1.00167361e+00
1.00168961e+00
1.00170458e+00
1.00171834e+00
1.00173075e+00
1.00174180e+00
1.00175142e+00
1.00175953e+00
1.00176607e+00
1.00177101e+00
1.00177429e+00
1.00177585e+00
1.00177564e+00
1.00177358e+00
1.00176960e+00
1.00176365e+00
1.00175564e+00
1.00174552e+00
1.00173324e+00
1.00171876e+00
1.00170207e+00
1.00168317e+00
1.00166210e+00
1.00163894e+00
1.00161379e+00
1.00158676e+00
1.00155802e+00
1.00152775e+00
1.00149614e+00
1.00146339e+00
1.00142971e+00
1.00139530e+00
1.00136035e+00
1.00132503e+00
1.00128949e+00
1.00125384e+00
1.00121818e+00
1.00118257e+00
1.00114705e+00
1.00111162e+00
1.00107630e+00
1.00104105e+00
1.00100585e+00
1.00097069e+00
1.00093552e+00