# vtk DataFile Version 2.0
LBM Flow Field - Timestep 3280
ASCII
DATASET STRUCTURED_POINTS
DIMENSIONS 128 128 1
ORIGIN 0.0 0.0 0.0
SPACING 1.0 1.0 1.0
POINT_DATA 16384
SCALARS density double 1
LOOKUP_TABLE default
9.99921601e-01
9.99920805e-01
9.99919885e-01
9.99920290e-01
9.99920805e-01
9.99921635e-01
9.99922794e-01
9.99924387e-01
9.99926110e-01
9.99928062e-01
9.99930057e-01
9.99932103e-01
9.99934068e-01
9.99935930e-01
9.99937593e-01
9.99939082e-01
9.99940353e-01
9.99941436e-01
9.99942361e-01
9.99943216e-01
9.99944081e-01
9.99945092e-01
9.99946393e-01
9.99948164e-01
9.99950597e-01
9.99953908e-01
9.99958316e-01
9.99964054e-01
9.99971357e-01
9.99980450e-01
9.99991547e-01
1.00000485e+00
1.00002054e+00
1.00003876e+00
1.00005963e+00
1.00008324e+00
1.00010962e+00
1.00013878e+00
1.00017068e+00
1.00020526e+00
1.00024239e+00
1.00028193e+00
1.00032370e+00
1.00036751e+00
1.00041312e+00
1.00046031e+00
1.00050885e+00
1.00055848e+00
1.00060898e+00
1.00066013e+00
1.00071173e+00
1.00076361e+00
1.00081561e+00
1.00086763e+00
1.00091957e+00
1.00097138e+00
1.00102304e+00
1.00107455e+00
1.00112596e+00
1.00117732e+00
1.00122871e+00
1.00128023e+00
1.00133197e+00
1.00138405e+00
1.00143656e+00
1.00148960e+00
1.00154324e+00
1.00159753e+00
1.00165252e+00
1.00170819e+00
1.00176451e+00
1.00182141e+00
1.00187879e+00
1.00193650e+00
1.00199437e+00
1.00205218e+00
1.00210970e+00
1.00216668e+00
1.00222283e+00
1.00227788e+00
1.00233154e+00
1.00238354e+00
1.00243360e+00
1.00248148e+00
1.00252696e+00
1.00256986e+00
1.00261003e+00
1.00264735e+00
1.00268176e+00
1.00271323e+00
1.00274178e+00
1.00276746e+00
1.00279037e+00
1.00281062e+00
1.00282838e+00
1.00284384e+00
1.00285718e+00
1.00286863e+00
1.00287840e+00
1.00288673e+00
1.00289383e+00
1.00289991e+00
1.00290518e+00
1.00290985e+00
1.00291406e+00
1.00291795e+00
1.00292168e+00
1.00292534e+00
1.00292900e+00
1.00293272e+00
1.00293655e+00
1.00294047e+00
1.00294455e+00
1.00294868e+00
1.00295286e+00
1.00295711e+00
1.00296148e+00
1.00296552e+00
1.00296952e+00
1.00297373e+00
1.00297770e+00
1.00298053e+00
1.00298419e+00
1.00298850e+00
1.00299061e+00
1.00299094e+00
1.00299784e+00
1.00300284e+00
9.99920858e-01
9.99920594e-01
9.99920003e-01
9.99920554e-01
9.99921097e-01
9.99922198e-01
9.99923456e-01
9.99925204e-01
9.99927018e-01
9.99929118e-01
9.99931202e-01
9.99933370e-01
9.99935416e-01
9.99937398e-01
9.99939163e-01
9.99940766e-01
9.99942142e-01
9.99943354e-01
9.99944402e-01
9.99945391e-01
9.99946391e-01
9.99947547e-01
9.99948991e-01
9.99950909e-01
9.99953486e-01
9.99956940e-01
9.99961483e-01
9.99967351e-01
9.99974770e-01
9.99983968e-01
9.99995155e-01
1.00000853e+00
1.00002427e+00
1.00004253e+00
1.00006341e+00
1.00008701e+00
1.00011336e+00
1.00014248e+00
1.00017432e+00
1.00020882e+00
1.00024587e+00
1.00028531e+00
1.00032698e+00
1.00037069e+00
1.00041621e+00
1.00046331e+00
1.00051176e+00
1.00056132e+00
1.00061176e+00
1.00066288e+00
1.00071446e+00
1.00076633e+00
1.00081835e+00
1.00087039e+00
1.00092237e+00
1.00097423e+00
1.00102595e+00
1.00107752e+00
1.00112899e+00
1.00118041e+00
1.00123185e+00
1.00128340e+00
1.00133516e+00
1.00138724e+00
1.00143972e+00
1.00149271e+00
1.00154627e+00
1.00160045e+00
1.00165530e+00
1.00171079e+00
1.00176691e+00
1.00182358e+00
1.00188070e+00
1.00193813e+00
1.00199570e+00
1.00205320e+00
1.00211040e+00
1.00216705e+00
1.00222287e+00
1.00227760e+00
1.00233095e+00
1.00238266e+00
1.00243245e+00
1.00248008e+00
1.00252535e+00
1.00256807e+00
1.00260808e+00
1.00264528e+00
1.00267960e+00
1.00271102e+00
1.00273953e+00
1.00276520e+00
1.00278812e+00
1.00280841e+00
1.00282622e+00
1.00284173e+00
1.00285514e+00
1.00286665e+00
1.00287650e+00
1.00288489e+00
1.00289205e+00
1.00289818e+00
1.00290350e+00
1.00290819e+00
1.00291242e+00
1.00291632e+00
1.00292005e+00
1.00292369e+00
1.00292733e+00
1.00293100e+00
1.00293480e+00
1.00293868e+00
1.00294270e+00
1.00294677e+00
1.00295097e+00
1.00295516e+00
1.00295944e+00
1.00296348e+00
1.00296767e+00
1.00297165e+00
1.00297553e+00
1.00297871e+00
1.00298268e+00
1.00298596e+00
1.00298846e+00
1.00299009e+00
1.00299615e+00
1.00299770e+00
9.99919720e-01
9.99919527e-01
9.99919884e-01
9.99920139e-01
9.99920816e-01
9.99922165e-01
9.99923738e-01
9.99925577e-01
9.99927661e-01
9.99929931e-01
9.99932265e-01
9.99934624e-01
9.99936899e-01
9.99939065e-01
9.99941063e-01
9.99942864e-01
9.99944450e-01
9.99945857e-01
9.99947113e-01
9.99948290e-01
9.99949483e-01
9.99950818e-01
9.99952439e-01
9.99954523e-01
9.99957257e-01
9.99960852e-01
9.99965529e-01
9.99971516e-01
9.99979037e-01
9.99988319e-01
9.99999579e-01
1.00001301e+00
1.00002879e+00
1.00004706e+00
1.00006795e+00
1.00009154e+00
1.00011787e+00
1.00014696e+00
1.00017876e+00
1.00021322e+00
1.00025021e+00
1.00028962e+00
1.00033125e+00
1.00037492e+00
1.00042042e+00
1.00046752e+00
1.00051598e+00
1.00056557e+00
1.00061606e+00
1.00066723e+00
1.00071889e+00
1.00077087e+00
1.00082300e+00
1.00087516e+00
1.00092727e+00
1.00097927e+00
1.00103112e+00
1.00108283e+00
1.00113442e+00
1.00118595e+00
1.00123747e+00
1.00128909e+00
1.00134088e+00
1.00139296e+00
1.00144541e+00
1.00149832e+00
1.00155177e+00
1.00160580e+00
1.00166045e+00
1.00171571e+00
1.00177156e+00
1.00182792e+00
1.00188470e+00
1.00194176e+00
1.00199894e+00
1.00205603e+00
1.00211281e+00
1.00216904e+00
1.00222445e+00
1.00227877e+00
1.00233173e+00
1.00238306e+00
1.00243250e+00
1.00247982e+00
1.00252480e+00
1.00256727e+00
1.00260707e+00
1.00264410e+00
1.00267827e+00
1.00270957e+00
1.00273801e+00
1.00276363e+00
1.00278652e+00
1.00280680e+00
1.00282463e+00
1.00284016e+00
1.00285359e+00
1.00286514e+00
1.00287501e+00
1.00288342e+00
1.00289059e+00
1.00289674e+00
1.00290205e+00
1.00290671e+00
1.00291090e+00
1.00291478e+00
1.00291843e+00
1.00292199e+00
1.00292555e+00
1.00292914e+00
1.00293282e+00
1.00293660e+00
1.00294049e+00
1.00294448e+00
1.00294860e+00
1.00295267e+00
1.00295672e+00
1.00296092e+00
1.00296508e+00
1.00296862e+00
1.00297238e+00
1.00297662e+00
1.00297974e+00
1.00298161e+00
1.00298589e+00
1.00299012e+00
1.00298954e+00
1.00299042e+00
9.99918785e-01
9.99918282e-01
9.99918581e-01
9.99919064e-01
9.99920148e-01
9.99921569e-01
9.99923357e-01
9.99925465e-01
9.99927871e-01
9.99930390e-01
9.99933020e-01
9.99935661e-01
9.99938253e-01
9.99940707e-01
9.99943003e-01
9.99945094e-01
9.99946981e-01
9.99948669e-01
9.99950207e-01
9.99951655e-01
9.99953116e-01
9.99954703e-01
9.99956569e-01
9.99958881e-01
9.99961834e-01
9.99965630e-01
9.99970491e-01
9.99976643e-01
9.99984314e-01
9.99993725e-01
1.00000509e+00
1.00001861e+00
1.00003445e+00
1.00005278e+00
1.00007370e+00
1.00009730e+00
1.00012363e+00
1.00015270e+00
1.00018448e+00
1.00021891e+00
1.00025588e+00
1.00029526e+00
1.00033687e+00
1.00038054e+00
1.00042604e+00
1.00047316e+00
1.00052166e+00
1.00057131e+00
1.00062189e+00
1.00067318e+00
1.00072497e+00
1.00077710e+00
1.00082941e+00
1.00088177e+00
1.00093408e+00
1.00098629e+00
1.00103836e+00
1.00109027e+00
1.00114206e+00
1.00119376e+00
1.00124544e+00
1.00129718e+00
1.00134907e+00
1.00140119e+00
1.00145364e+00
1.00150649e+00
1.00155983e+00
1.00161369e+00
1.00166811e+00
1.00172309e+00
1.00177859e+00
1.00183456e+00
1.00189090e+00
1.00194748e+00
1.00200413e+00
1.00206068e+00
1.00211689e+00
1.00217254e+00
1.00222737e+00
1.00228113e+00
1.00233354e+00
1.00238434e+00
1.00243329e+00
1.00248016e+00
1.00252474e+00
1.00256684e+00
1.00260634e+00
1.00264310e+00
1.00267708e+00
1.00270822e+00
1.00273655e+00
1.00276210e+00
1.00278496e+00
1.00280524e+00
1.00282308e+00
1.00283865e+00
1.00285214e+00
1.00286374e+00
1.00287367e+00
1.00288213e+00
1.00288935e+00
1.00289552e+00
1.00290084e+00
1.00290550e+00
1.00290966e+00
1.00291347e+00
1.00291705e+00
1.00292051e+00
1.00292395e+00
1.00292741e+00
1.00293093e+00
1.00293456e+00
1.00293829e+00
1.00294209e+00
1.00294598e+00
1.00294996e+00
1.00295389e+00
1.00295781e+00
1.00296170e+00
1.00296551e+00
1.00296902e+00
1.00297257e+00
1.00297594e+00
1.00297885e+00
1.00298138e+00
1.00298449e+00
1.00298627e+00
1.00298860e+00
9.99917159e-01
9.99916675e-01
9.99916688e-01
9.99917467e-01
9.99918783e-01
9.99920362e-01
9.99922453e-01
9.99924906e-01
9.99927605e-01
9.99930481e-01
9.99933483e-01
9.99936490e-01
9.99939459e-01
9.99942303e-01
9.99944976e-01
9.99947448e-01
9.99949714e-01
9.99951774e-01
9.99953674e-01
9.99955478e-01
9.99957279e-01
9.99959197e-01
9.99961379e-01
9.99963988e-01
9.99967220e-01
9.99971279e-01
9.99976380e-01
9.99982748e-01
9.99990614e-01
1.00000020e+00
1.00001171e+00
1.00002535e+00
1.00004129e+00
1.00005969e+00
1.00008066e+00
1.00010429e+00
1.00013064e+00
1.00015971e+00
1.00019149e+00
1.00022591e+00
1.00026286e+00
1.00030223e+00
1.00034385e+00
1.00038752e+00
1.00043306e+00
1.00048023e+00
1.00052881e+00
1.00057857e+00
1.00062928e+00
1.00068073e+00
1.00073272e+00
1.00078506e+00
1.00083761e+00
1.00089023e+00
1.00094283e+00
1.00099532e+00
1.00104767e+00
1.00109987e+00
1.00115193e+00
1.00120387e+00
1.00125577e+00
1.00130768e+00
1.00135969e+00
1.00141188e+00
1.00146434e+00
1.00151714e+00
1.00157035e+00
1.00162401e+00
1.00167815e+00
1.00173278e+00
1.00178787e+00
1.00184335e+00
1.00189914e+00
1.00195511e+00
1.00201112e+00
1.00206698e+00
1.00212248e+00
1.00217741e+00
1.00223152e+00
1.00228455e+00
1.00233627e+00
1.00238641e+00
1.00243474e+00
1.00248103e+00
1.00252510e+00
1.00256675e+00
1.00260585e+00
1.00264229e+00
1.00267600e+00
1.00270695e+00
1.00273513e+00
1.00276060e+00
1.00278341e+00
1.00280369e+00
1.00282156e+00
1.00283719e+00
1.00285075e+00
1.00286242e+00
1.00287242e+00
1.00288096e+00
1.00288823e+00
1.00289443e+00
1.00289977e+00
1.00290442e+00
1.00290854e+00
1.00291227e+00
1.00291576e+00
1.00291910e+00
1.00292237e+00
1.00292566e+00
1.00292899e+00
1.00293239e+00
1.00293590e+00
1.00293949e+00
1.00294310e+00
1.00294684e+00
1.00295064e+00
1.00295424e+00
1.00295777e+00
1.00296165e+00
1.00296515e+00
1.00296785e+00
1.00297109e+00
1.00297503e+00
1.00297679e+00
1.00297816e+00
1.00298182e+00
1.00298429e+00
9.99914667e-01
9.99914192e-01
9.99914427e-01
9.99915324e-01
9.99916689e-01
9.99918617e-01
9.99921067e-01
9.99923846e-01
9.99926908e-01
9.99930221e-01
9.99933657e-01
9.99937115e-01
9.99940531e-01
9.99943840e-01
9.99946981e-01
9.99949919e-01
9.99952637e-01
9.99955149e-01
9.99957491e-01
9.99959724e-01
9.99961939e-01
9.99964255e-01
9.99966815e-01
9.99969787e-01
9.99973356e-01
9.99977729e-01
9.99983121e-01
9.99989756e-01
9.99997858e-01
1.00000765e+00
1.00001935e+00
1.00003314e+00
1.00004921e+00
1.00006771e+00
1.00008877e+00
1.00011246e+00
1.00013885e+00
1.00016795e+00
1.00019974e+00
1.00023417e+00
1.00027114e+00
1.00031053e+00
1.00035217e+00
1.00039589e+00
1.00044149e+00
1.00048875e+00
1.00053745e+00
1.00058735e+00
1.00063825e+00
1.00068991e+00
1.00074215e+00
1.00079477e+00
1.00084762e+00
1.00090057e+00
1.00095350e+00
1.00100634e+00
1.00105904e+00
1.00111158e+00
1.00116396e+00
1.00121620e+00
1.00126835e+00
1.00132047e+00
1.00137263e+00
1.00142491e+00
1.00147738e+00
1.00153011e+00
1.00158317e+00
1.00163659e+00
1.00169041e+00
1.00174463e+00
1.00179922e+00
1.00185412e+00
1.00190926e+00
1.00196452e+00
1.00201976e+00
1.00207481e+00
1.00212947e+00
1.00218354e+00
1.00223679e+00
1.00228898e+00
1.00233987e+00
1.00238922e+00
1.00243681e+00
1.00248243e+00
1.00252588e+00
1.00256699e+00
1.00260562e+00
1.00264167e+00
1.00267507e+00
1.00270578e+00
1.00273379e+00
1.00275914e+00
1.00278191e+00
1.00280217e+00
1.00282008e+00
1.00283576e+00
1.00284939e+00
1.00286115e+00
1.00287124e+00
1.00287985e+00
1.00288718e+00
1.00289343e+00
1.00289878e+00
1.00290341e+00
1.00290747e+00
1.00291113e+00
1.00291449e+00
1.00291767e+00
1.00292076e+00
1.00292383e+00
1.00292692e+00
1.00293005e+00
1.00293326e+00
1.00293658e+00
1.00293995e+00
1.00294329e+00
1.00294673e+00
1.00295024e+00
1.00295356e+00
1.00295671e+00
1.00296006e+00
1.00296330e+00
1.00296589e+00
1.00296844e+00
1.00297122e+00
1.00297349e+00
1.00297566e+00
1.00297700e+00
9.99911766e-01
9.99911264e-01
9.99911525e-01
9.99912476e-01
9.99914102e-01
9.99916398e-01
9.99919136e-01
9.99922298e-01
9.99925837e-01
9.99929613e-01
9.99933522e-01
9.99937502e-01
9.99941446e-01
9.99945284e-01
9.99948961e-01
9.99952434e-01
9.99955682e-01
9.99958719e-01
9.99961573e-01
9.99964304e-01
9.99967004e-01
9.99969786e-01
9.99972790e-01
9.99976186e-01
9.99980156e-01
9.99984902e-01
9.99990641e-01
9.99997595e-01
1.00000599e+00
1.00001604e+00
1.00002796e+00
1.00004196e+00
1.00005820e+00
1.00007684e+00
1.00009801e+00
1.00012179e+00
1.00014825e+00
1.00017741e+00
1.00020925e+00
1.00024372e+00
1.00028073e+00
1.00032016e+00
1.00036186e+00
1.00040566e+00
1.00045135e+00
1.00049874e+00
1.00054759e+00
1.00059768e+00
1.00064880e+00
1.00070072e+00
1.00075325e+00
1.00080620e+00
1.00085940e+00
1.00091273e+00
1.00096605e+00
1.00101930e+00
1.00107240e+00
1.00112533e+00
1.00117807e+00
1.00123064e+00
1.00128309e+00
1.00133544e+00
1.00138777e+00
1.00144015e+00
1.00149263e+00
1.00154528e+00
1.00159816e+00
1.00165132e+00
1.00170476e+00
1.00175850e+00
1.00181251e+00
1.00186675e+00
1.00192114e+00
1.00197558e+00
1.00202993e+00
1.00208404e+00
1.00213773e+00
1.00219081e+00
1.00224307e+00
1.00229428e+00
1.00234422e+00
1.00239267e+00
1.00243941e+00
1.00248424e+00
1.00252698e+00
1.00256746e+00
1.00260555e+00
1.00264115e+00
1.00267418e+00
1.00270460e+00
1.00273241e+00
1.00275764e+00
1.00278033e+00
1.00280059e+00
1.00281852e+00
1.00283427e+00
1.00284798e+00
1.00285984e+00
1.00287003e+00
1.00287872e+00
1.00288611e+00
1.00289240e+00
1.00289776e+00
1.00290236e+00
1.00290636e+00
1.00290992e+00
1.00291313e+00
1.00291612e+00
1.00291900e+00
1.00292180e+00
1.00292460e+00
1.00292745e+00
1.00293032e+00
1.00293324e+00
1.00293629e+00
1.00293934e+00
1.00294231e+00
1.00294543e+00
1.00294862e+00
1.00295141e+00
1.00295415e+00
1.00295732e+00
1.00295997e+00
1.00296183e+00
1.00296446e+00
1.00296693e+00
1.00296810e+00
1.00296963e+00
9.99908211e-01
9.99907609e-01
9.99907955e-01
9.99909120e-01
9.99911023e-01
9.99913574e-01
9.99916679e-01
9.99920314e-01
9.99924335e-01
9.99928611e-01
9.99933069e-01
9.99937619e-01
9.99942150e-01
9.99946583e-01
9.99950858e-01
9.99954931e-01
9.99958780e-01
9.99962406e-01
9.99965838e-01
9.99969136e-01
9.99972385e-01
9.99975698e-01
9.99979213e-01
9.99983093e-01
9.99987524e-01
9.99992706e-01
9.99998849e-01
1.00000618e+00
1.00001491e+00
1.00002528e+00
1.00003748e+00
1.00005172e+00
1.00006818e+00
1.00008701e+00
1.00010833e+00
1.00013225e+00
1.00015883e+00
1.00018808e+00
1.00022000e+00
1.00025455e+00
1.00029163e+00
1.00033114e+00
1.00037293e+00
1.00041684e+00
1.00046266e+00
1.00051020e+00
1.00055924e+00
1.00060956e+00
1.00066094e+00
1.00071316e+00
1.00076602e+00
1.00081934e+00
1.00087294e+00
1.00092669e+00
1.00098045e+00
1.00103413e+00
1.00108768e+00
1.00114103e+00
1.00119417e+00
1.00124711e+00
1.00129987e+00
1.00135248e+00
1.00140499e+00
1.00145745e+00
1.00150994e+00
1.00156249e+00
1.00161517e+00
1.00166800e+00
1.00172101e+00
1.00177421e+00
1.00182757e+00
1.00188106e+00
1.00193460e+00
1.00198811e+00
1.00204146e+00
1.00209452e+00
1.00214713e+00
1.00219910e+00
1.00225024e+00
1.00230035e+00
1.00234922e+00
1.00239665e+00
1.00244244e+00
1.00248638e+00
1.00252832e+00
1.00256810e+00
1.00260558e+00
1.00264067e+00
1.00267328e+00
1.00270339e+00
1.00273097e+00
1.00275604e+00
1.00277866e+00
1.00279889e+00
1.00281685e+00
1.00283266e+00
1.00284647e+00
1.00285843e+00
1.00286871e+00
1.00287749e+00
1.00288497e+00
1.00289129e+00
1.00289666e+00
1.00290123e+00
1.00290516e+00
1.00290858e+00
1.00291163e+00
1.00291442e+00
1.00291704e+00
1.00291955e+00
1.00292201e+00
1.00292450e+00
1.00292702e+00
1.00292953e+00
1.00293210e+00
1.00293480e+00
1.00293748e+00
1.00294001e+00
1.00294268e+00
1.00294547e+00
1.00294791e+00
1.00295012e+00
1.00295269e+00
1.00295504e+00
1.00295676e+00
1.00295848e+00
1.00296048e+00
1.00296222e+00
9.99904020e-01
9.99903452e-01
9.99903837e-01
9.99905172e-01
9.99907322e-01
9.99910206e-01
9.99913765e-01
9.99917860e-01
9.99922362e-01
9.99927207e-01
9.99932273e-01
9.99937428e-01
9.99942590e-01
9.99947675e-01
9.99952606e-01
9.99957338e-01
9.99961843e-01
9.99966117e-01
9.99970192e-01
9.99974119e-01
9.99977979e-01
9.99981885e-01
9.99985975e-01
9.99990405e-01
9.99995359e-01
1.00000104e+00
1.00000765e+00
1.00001541e+00
1.00002455e+00
1.00003529e+00
1.00004783e+00
1.00006238e+00
1.00007910e+00
1.00009817e+00
1.00011971e+00
1.00014381e+00
1.00017054e+00
1.00019993e+00
1.00023198e+00
1.00026664e+00
1.00030384e+00
1.00034347e+00
1.00038539e+00
1.00042943e+00
1.00047542e+00
1.00052316e+00
1.00057242e+00
1.00062300e+00
1.00067467e+00
1.00072722e+00
1.00078046e+00
1.00083417e+00
1.00088821e+00
1.00094240e+00
1.00099663e+00
1.00105079e+00
1.00110480e+00
1.00115861e+00
1.00121218e+00
1.00126550e+00
1.00131858e+00
1.00137144e+00
1.00142413e+00
1.00147668e+00
1.00152914e+00
1.00158157e+00
1.00163400e+00
1.00168647e+00
1.00173899e+00
1.00179158e+00
1.00184421e+00
1.00189686e+00
1.00194946e+00
1.00200194e+00
1.00205419e+00
1.00210609e+00
1.00215749e+00
1.00220823e+00
1.00225815e+00
1.00230705e+00
1.00235475e+00
1.00240105e+00
1.00244578e+00
1.00248875e+00
1.00252981e+00
1.00256881e+00
1.00260562e+00
1.00264013e+00
1.00267229e+00
1.00270204e+00
1.00272935e+00
1.00275425e+00
1.00277677e+00
1.00279698e+00
1.00281497e+00
1.00283084e+00
1.00284474e+00
1.00285680e+00
1.00286718e+00
1.00287606e+00
1.00288360e+00
1.00288997e+00
1.00289534e+00
1.00289987e+00
1.00290371e+00
1.00290699e+00
1.00290986e+00
1.00291241e+00
1.00291473e+00
1.00291693e+00
1.00291904e+00
1.00292110e+00
1.00292318e+00
1.00292533e+00
1.00292742e+00
1.00292955e+00
1.00293184e+00
1.00293406e+00
1.00293613e+00
1.00293838e+00
1.00294069e+00
1.00294258e+00
1.00294450e+00
1.00294668e+00
1.00294828e+00
1.00294967e+00
1.00295147e+00
1.00295291e+00
9.99899144e-01
9.99898576e-01
9.99899111e-01
9.99900656e-01
9.99903081e-01
9.99906331e-01
9.99910313e-01
9.99914888e-01
9.99919947e-01
9.99925387e-01
9.99931069e-01
9.99936880e-01
9.99942721e-01
9.99948498e-01
9.99954134e-01
9.99959573e-01
9.99964786e-01
9.99969766e-01
9.99974538e-01
9.99979150e-01
9.99983683e-01
9.99988243e-01
9.99992966e-01
9.99998010e-01
1.00000355e+00
1.00000979e+00
1.00001693e+00
1.00002520e+00
1.00003481e+00
1.00004598e+00
1.00005893e+00
1.00007384e+00
1.00009090e+00
1.00011027e+00
1.00013207e+00
1.00015641e+00
1.00018335e+00
1.00021294e+00
1.00024516e+00
1.00027999e+00
1.00031734e+00
1.00035713e+00
1.00039922e+00
1.00044345e+00
1.00048964e+00
1.00053760e+00
1.00058712e+00
1.00063799e+00
1.00068999e+00
1.00074290e+00
1.00079653e+00
1.00085067e+00
1.00090516e+00
1.00095983e+00
1.00101455e+00
1.00106920e+00
1.00112370e+00
1.00117796e+00
1.00123196e+00
1.00128566e+00
1.00133907e+00
1.00139218e+00
1.00144503e+00
1.00149764e+00
1.00155006e+00
1.00160232e+00
1.00165446e+00
1.00170651e+00
1.00175849e+00
1.00181039e+00
1.00186223e+00
1.00191395e+00
1.00196553e+00
1.00201688e+00
1.00206793e+00
1.00211856e+00
1.00216866e+00
1.00221808e+00
1.00226666e+00
1.00231425e+00
1.00236067e+00
1.00240576e+00
1.00244935e+00
1.00249127e+00
1.00253137e+00
1.00256952e+00
1.00260560e+00
1.00263950e+00
1.00267115e+00
1.00270050e+00
1.00272753e+00
1.00275224e+00
1.00277465e+00
1.00279482e+00
1.00281282e+00
1.00282876e+00
1.00284274e+00
1.00285491e+00
1.00286540e+00
1.00287437e+00
1.00288197e+00
1.00288839e+00
1.00289376e+00
1.00289823e+00
1.00290197e+00
1.00290511e+00
1.00290777e+00
1.00291005e+00
1.00291207e+00
1.00291391e+00
1.00291562e+00
1.00291726e+00
1.00291886e+00
1.00292050e+00
1.00292217e+00
1.00292379e+00
1.00292544e+00
1.00292725e+00
1.00292900e+00
1.00293057e+00
1.00293231e+00
1.00293419e+00
1.00293570e+00
1.00293709e+00
1.00293870e+00
1.00294021e+00
1.00294145e+00
1.00294254e+00
9.99893698e-01
9.99893189e-01
9.99893814e-01
9.99895544e-01
9.99898281e-01
9.99901925e-01
9.99906335e-01
9.99911422e-01
9.99917062e-01
9.99923107e-01
9.99929434e-01
9.99935937e-01
9.99942490e-01
9.99948994e-01
9.99955371e-01
9.99961560e-01
9.99967526e-01
9.99973262e-01
9.99978778e-01
9.99984128e-01
9.99989389e-01
9.99994664e-01
1.00000008e+00
1.00000580e+00
1.00001199e+00
1.00001886e+00
1.00002660e+00
1.00003544e+00
1.00004559e+00
1.00005727e+00
1.00007068e+00
1.00008603e+00
1.00010349e+00
1.00012323e+00
1.00014536e+00
1.00017001e+00
1.00019723e+00
1.00022706e+00
1.00025952e+00
1.00029456e+00
1.00033213e+00
1.00037212e+00
1.00041442e+00
1.00045887e+00
1.00050530e+00
1.00055352e+00
1.00060333e+00
1.00065452e+00
1.00070686e+00
1.00076016e+00
1.00081420e+00
1.00086879e+00
1.00092375e+00
1.00097891e+00
1.00103412e+00
1.00108927e+00
1.00114425e+00
1.00119898e+00
1.00125340e+00
1.00130748e+00
1.00136119e+00
1.00141453e+00
1.00146752e+00
1.00152016e+00
1.00157250e+00
1.00162455e+00
1.00167635e+00
1.00172793e+00
1.00177929e+00
1.00183045e+00
1.00188140e+00
1.00193213e+00
1.00198259e+00
1.00203273e+00
1.00208249e+00
1.00213177e+00
1.00218046e+00
1.00222846e+00
1.00227562e+00
1.00232181e+00
1.00236687e+00
1.00241066e+00
1.00245303e+00
1.00249382e+00
1.00253290e+00
1.00257014e+00
1.00260543e+00
1.00263867e+00
1.00266978e+00
1.00269871e+00
1.00272542e+00
1.00274991e+00
1.00277219e+00
1.00279231e+00
1.00281032e+00
1.00282630e+00
1.00284037e+00
1.00285263e+00
1.00286322e+00
1.00287228e+00
1.00287995e+00
1.00288639e+00
1.00289175e+00
1.00289616e+00
1.00289979e+00
1.00290276e+00
1.00290518e+00
1.00290720e+00
1.00290889e+00
1.00291033e+00
1.00291160e+00
1.00291281e+00
1.00291393e+00
1.00291499e+00
1.00291611e+00
1.00291730e+00
1.00291839e+00
1.00291952e+00
1.00292084e+00
1.00292208e+00
1.00292320e+00
1.00292451e+00
1.00292584e+00
1.00292695e+00
1.00292813e+00
1.00292929e+00
1.00293034e+00
1.00293151e+00
9.99887622e-01
9.99887139e-01
9.99887944e-01
9.99889913e-01
9.99892944e-01
9.99896966e-01
9.99901843e-01
9.99907457e-01
9.99913668e-01
9.99920343e-01
9.99927348e-01
9.99934555e-01
9.99941840e-01
9.99949101e-01
9.99956252e-01
9.99963227e-01
9.99969983e-01
9.99976509e-01
9.99982820e-01
9.99988958e-01
9.99994996e-01
1.00000104e+00
1.00000721e+00
1.00001366e+00
1.00002058e+00
1.00002814e+00
1.00003655e+00
1.00004603e+00
1.00005679e+00
1.00006905e+00
1.00008301e+00
1.00009887e+00
1.00011680e+00
1.00013698e+00
1.00015952e+00
1.00018454e+00
1.00021210e+00
1.00024225e+00
1.00027500e+00
1.00031032e+00
1.00034815e+00
1.00038840e+00
1.00043096e+00
1.00047567e+00
1.00052238e+00
1.00057090e+00
1.00062102e+00
1.00067255e+00
1.00072527e+00
1.00077897e+00
1.00083344e+00
1.00088848e+00
1.00094391e+00
1.00099955e+00
1.00105526e+00
1.00111090e+00
1.00116635e+00
1.00122153e+00
1.00127635e+00
1.00133078e+00
1.00138477e+00
1.00143831e+00
1.00149140e+00
1.00154404e+00
1.00159624e+00
1.00164804e+00
1.00169944e+00
1.00175048e+00
1.00180117e+00
1.00185151e+00
1.00190152e+00
1.00195117e+00
1.00200044e+00
1.00204929e+00
1.00209767e+00
1.00214551e+00
1.00219273e+00
1.00223922e+00
1.00228488e+00
1.00232959e+00
1.00237322e+00
1.00241564e+00
1.00245672e+00
1.00249633e+00
1.00253433e+00
1.00257061e+00
1.00260507e+00
1.00263760e+00
1.00266813e+00
1.00269660e+00
1.00272297e+00
1.00274723e+00
1.00276936e+00
1.00278941e+00
1.00280742e+00
1.00282345e+00
1.00283760e+00
1.00284995e+00
1.00286063e+00
1.00286977e+00
1.00287751e+00
1.00288396e+00
1.00288930e+00
1.00289365e+00
1.00289715e+00
1.00289993e+00
1.00290212e+00
1.00290383e+00
1.00290515e+00
1.00290620e+00
1.00290703e+00
1.00290771e+00
1.00290832e+00
1.00290887e+00
1.00290938e+00
1.00290994e+00
1.00291057e+00
1.00291114e+00
1.00291176e+00
1.00291256e+00
1.00291332e+00
1.00291400e+00
1.00291487e+00
1.00291582e+00
1.00291658e+00
1.00291737e+00
1.00291846e+00
1.00291950e+00
9.99881023e-01
9.99880612e-01
9.99881529e-01
9.99883720e-01
9.99887071e-01
9.99891484e-01
9.99896831e-01
9.99902973e-01
9.99909766e-01
9.99917081e-01
9.99924770e-01
9.99932693e-01
9.99940730e-01
9.99948767e-01
9.99956713e-01
9.99964499e-01
9.99972078e-01
9.99979430e-01
9.99986572e-01
9.99993542e-01
1.00000041e+00
1.00000727e+00
1.00001425e+00
1.00002150e+00
1.00002919e+00
1.00003752e+00
1.00004667e+00
1.00005686e+00
1.00006831e+00
1.00008123e+00
1.00009581e+00
1.00011226e+00
1.00013075e+00
1.00015145e+00
1.00017447e+00
1.00019994e+00
1.00022792e+00
1.00025845e+00
1.00029156e+00
1.00032722e+00
1.00036537e+00
1.00040593e+00
1.00044880e+00
1.00049382e+00
1.00054084e+00
1.00058968e+00
1.00064015e+00
1.00069204e+00
1.00074515e+00
1.00079925e+00
1.00085415e+00
1.00090965e+00
1.00096555e+00
1.00102167e+00
1.00107785e+00
1.00113396e+00
1.00118986e+00
1.00124546e+00
1.00130066e+00
1.00135540e+00
1.00140964e+00
1.00146333e+00
1.00151647e+00
1.00156905e+00
1.00162108e+00
1.00167256e+00
1.00172351e+00
1.00177395e+00
1.00182389e+00
1.00187336e+00
1.00192234e+00
1.00197085e+00
1.00201886e+00
1.00206635e+00
1.00211328e+00
1.00215961e+00
1.00220527e+00
1.00225019e+00
1.00229428e+00
1.00233745e+00
1.00237958e+00
1.00242058e+00
1.00246031e+00
1.00249868e+00
1.00253556e+00
1.00257084e+00
1.00260442e+00
1.00263621e+00
1.00266613e+00
1.00269412e+00
1.00272012e+00
1.00274411e+00
1.00276608e+00
1.00278604e+00
1.00280403e+00
1.00282009e+00
1.00283429e+00
1.00284673e+00
1.00285749e+00
1.00286670e+00
1.00287447e+00
1.00288094e+00
1.00288624e+00
1.00289051e+00
1.00289386e+00
1.00289644e+00
1.00289837e+00
1.00289976e+00
1.00290070e+00
1.00290133e+00
1.00290169e+00
1.00290184e+00
1.00290188e+00
1.00290190e+00
1.00290185e+00
1.00290175e+00
1.00290176e+00
1.00290184e+00
1.00290188e+00
1.00290200e+00
1.00290232e+00
1.00290263e+00
1.00290298e+00
1.00290348e+00
1.00290402e+00
1.00290459e+00
1.00290535e+00
1.00290620e+00
9.99873861e-01
9.99873503e-01
9.99874585e-01
9.99877020e-01
9.99880690e-01
9.99885487e-01
9.99891291e-01
9.99897964e-01
9.99905348e-01
9.99913300e-01
9.99921671e-01
9.99930320e-01
9.99939115e-01
9.99947940e-01
9.99956696e-01
9.99965311e-01
9.99973735e-01
9.99981948e-01
9.99989952e-01
9.99997789e-01
1.00000553e+00
1.00001326e+00
1.00002110e+00
1.00002921e+00
1.00003775e+00
1.00004690e+00
1.00005686e+00
1.00006785e+00
1.00008006e+00
1.00009371e+00
1.00010900e+00
1.00012612e+00
1.00014525e+00
1.00016654e+00
1.00019013e+00
1.00021613e+00
1.00024460e+00
1.00027559e+00
1.00030913e+00
1.00034519e+00
1.00038372e+00
1.00042465e+00
1.00046787e+00
1.00051324e+00
1.00056061e+00
1.00060981e+00
1.00066065e+00
1.00071292e+00
1.00076642e+00
1.00082094e+00
1.00087627e+00
1.00093220e+00
1.00098855e+00
1.00104513e+00
1.00110177e+00
1.00115832e+00
1.00121464e+00
1.00127061e+00
1.00132614e+00
1.00138115e+00
1.00143558e+00
1.00148938e+00
1.00154252e+00
1.00159498e+00
1.00164676e+00
1.00169786e+00
1.00174830e+00
1.00179808e+00
1.00184722e+00
1.00189574e+00
1.00194364e+00
1.00199094e+00
1.00203762e+00
1.00208369e+00
1.00212911e+00
1.00217388e+00
1.00221793e+00
1.00226122e+00
1.00230369e+00
1.00234526e+00
1.00238585e+00
1.00242537e+00
1.00246373e+00
1.00250081e+00
1.00253653e+00
1.00257078e+00
1.00260345e+00
1.00263447e+00
1.00266376e+00
1.00269123e+00
1.00271684e+00
1.00274055e+00
1.00276234e+00
1.00278220e+00
1.00280015e+00
1.00281622e+00
1.00283047e+00
1.00284297e+00
1.00285381e+00
1.00286307e+00
1.00287087e+00
1.00287734e+00
1.00288259e+00
1.00288675e+00
1.00288995e+00
1.00289232e+00
1.00289397e+00
1.00289502e+00
1.00289558e+00
1.00289574e+00
1.00289560e+00
1.00289526e+00
1.00289472e+00
1.00289409e+00
1.00289345e+00
1.00289279e+00
1.00289211e+00
1.00289155e+00
1.00289109e+00
1.00289064e+00
1.00289032e+00
1.00289021e+00
1.00289015e+00
1.00289018e+00
1.00289040e+00
1.00289076e+00
1.00289129e+00
1.00289199e+00
9.99866210e-01
9.99865939e-01
9.99867161e-01
9.99869811e-01
9.99873790e-01
9.99878984e-01
9.99885246e-01
9.99892434e-01
9.99900397e-01
9.99908982e-01
9.99918034e-01
9.99927404e-01
9.99936957e-01
9.99946574e-01
9.99956150e-01
9.99965607e-01
9.99974893e-01
9.99983986e-01
9.99992884e-01
1.00000162e+00
1.00001027e+00
1.00001892e+00
1.00002767e+00
1.00003669e+00
1.00004614e+00
1.00005618e+00
1.00006703e+00
1.00007888e+00
1.00009193e+00
1.00010640e+00
1.00012247e+00
1.00014035e+00
1.00016020e+00
1.00018218e+00
1.00020641e+00
1.00023301e+00
1.00026205e+00
1.00029358e+00
1.00032762e+00
1.00036414e+00
1.00040312e+00
1.00044447e+00
1.00048809e+00
1.00053385e+00
1.00058161e+00
1.00063119e+00
1.00068241e+00
1.00073507e+00
1.00078897e+00
1.00084390e+00
1.00089965e+00
1.00095602e+00
1.00101280e+00
1.00106980e+00
1.00112686e+00
1.00118381e+00
1.00124050e+00
1.00129680e+00
1.00135261e+00
1.00140783e+00
1.00146239e+00
1.00151623e+00
1.00156930e+00
1.00162158e+00
1.00167306e+00
1.00172372e+00
1.00177358e+00
1.00182263e+00
1.00187091e+00
1.00191842e+00
1.00196518e+00
1.00201121e+00
1.00205651e+00
1.00210110e+00
1.00214497e+00
1.00218812e+00
1.00223052e+00
1.00227214e+00
1.00231295e+00
1.00235289e+00
1.00239190e+00
1.00242992e+00
1.00246686e+00
1.00250264e+00
1.00253716e+00
1.00257034e+00
1.00260209e+00
1.00263231e+00
1.00266093e+00
1.00268787e+00
1.00271307e+00
1.00273647e+00
1.00275805e+00
1.00277779e+00
1.00279568e+00
1.00281174e+00
1.00282602e+00
1.00283856e+00
1.00284944e+00
1.00285874e+00
1.00286655e+00
1.00287299e+00
1.00287818e+00
1.00288222e+00
1.00288525e+00
1.00288738e+00
1.00288873e+00
1.00288943e+00
1.00288958e+00
1.00288928e+00
1.00288862e+00
1.00288772e+00
1.00288663e+00
1.00288538e+00
1.00288408e+00
1.00288282e+00
1.00288154e+00
1.00288029e+00
1.00287922e+00
1.00287826e+00
1.00287739e+00
1.00287670e+00
1.00287624e+00
1.00287592e+00
1.00287576e+00
1.00287580e+00
1.00287612e+00
1.00287675e+00
9.99858075e-01
9.99857862e-01
9.99859254e-01
9.99862139e-01
9.99866416e-01
9.99871983e-01
9.99878689e-01
9.99886384e-01
9.99894914e-01
9.99904119e-01
9.99913837e-01
9.99923921e-01
9.99934227e-01
9.99944630e-01
9.99955026e-01
9.99965335e-01
9.99975495e-01
9.99985480e-01
9.99995296e-01
1.00000497e+00
1.00001456e+00
1.00002416e+00
1.00003388e+00
1.00004386e+00
1.00005427e+00
1.00006528e+00
1.00007707e+00
1.00008986e+00
1.00010383e+00
1.00011919e+00
1.00013613e+00
1.00015485e+00
1.00017550e+00
1.00019824e+00
1.00022321e+00
1.00025049e+00
1.00028018e+00
1.00031231e+00
1.00034692e+00
1.00038398e+00
1.00042345e+00
1.00046528e+00
1.00050934e+00
1.00055554e+00
1.00060371e+00
1.00065370e+00
1.00070532e+00
1.00075839e+00
1.00081269e+00
1.00086802e+00
1.00092418e+00
1.00098094e+00
1.00103812e+00
1.00109552e+00
1.00115295e+00
1.00121025e+00
1.00126725e+00
1.00132383e+00
1.00137985e+00
1.00143522e+00
1.00148984e+00
1.00154365e+00
1.00159659e+00
1.00164862e+00
1.00169973e+00