# vtk DataFile Version 2.0
LBM Flow Field - Timestep 4970
ASCII
DATASET STRUCTURED_POINTS
DIMENSIONS 128 128 1
ORIGIN 0.0 0.0 0.0
SPACING 1.0 1.0 1.0
POINT_DATA 16384
SCALARS density double 1
LOOKUP_TABLE default
1.00152314e+00
1.00151879e+00
1.00151202e+00
1.00150995e+00
1.00150617e+00
1.00149892e+00
1.00149189e+00
1.00148521e+00
1.00147674e+00
1.00146725e+00
1.00145796e+00
1.00144824e+00
1.00143761e+00
1.00142686e+00
1.00141621e+00
1.00140533e+00
1.00139434e+00
1.00138371e+00
1.00137339e+00
1.00136339e+00
1.00135394e+00
1.00134524e+00
1.00133730e+00
1.00133024e+00
1.00132423e+00
1.00131936e+00
1.00131569e+00
1.00131331e+00
1.00131233e+00
1.00131277e+00
1.00131467e+00
1.00131808e+00
1.00132301e+00
1.00132944e+00
1.00133737e+00
1.00134676e+00
1.00135757e+00
1.00136972e+00
1.00138314e+00
1.00139776e+00
1.00141345e+00
1.00143012e+00
1.00144765e+00
1.00146591e+00
1.00148477e+00
1.00150409e+00
1.00152375e+00
1.00154359e+00
1.00156350e+00
1.00158333e+00
1.00160297e+00
1.00162229e+00
1.00164119e+00
1.00165956e+00
1.00167732e+00
1.00169439e+00
1.00171071e+00
1.00172623e+00
1.00174091e+00
1.00175474e+00
1.00176771e+00
1.00177983e+00
1.00179114e+00
1.00180166e+00
1.00181146e+00
1.00182061e+00
1.00182919e+00
1.00183729e+00
1.00184502e+00
1.00185249e+00
1.00185984e+00
1.00186720e+00
1.00187469e+00
1.00188248e+00
1.00189070e+00
1.00189951e+00
1.00190905e+00
1.00191947e+00
1.00193092e+00
1.00194353e+00
1.00195743e+00
1.00197275e+00
1.00198958e+00
1.00200803e+00
1.00202817e+00
1.00205006e+00
1.00207375e+00
1.00209926e+00
1.00212658e+00
1.00215569e+00
1.00218655e+00
1.00221908e+00
1.00225320e+00
1.00228878e+00
1.00232568e+00
1.00236375e+00
1.00240282e+00
1.00244268e+00
1.00248313e+00
1.00252398e+00
1.00256500e+00
1.00260592e+00
1.00264657e+00
1.00268675e+00
1.00272620e+00
1.00276466e+00
1.00280209e+00
1.00283830e+00
1.00287295e+00
1.00290601e+00
1.00293761e+00
1.00296738e+00
1.00299501e+00
1.00302099e+00
1.00304540e+00
1.00306736e+00
1.00308712e+00
1.00310591e+00
1.00312279e+00
1.00313640e+00
1.00314896e+00
1.00316177e+00
1.00317062e+00
1.00317577e+00
1.00318403e+00
1.00319210e+00
1.00318600e+00
1.00318094e+00
1.00152034e+00
1.00151927e+00
1.00151391e+00
1.00151047e+00
1.00150666e+00
1.00150049e+00
1.00149336e+00
1.00148628e+00
1.00147818e+00
1.00146904e+00
1.00145953e+00
1.00144978e+00
1.00143937e+00
1.00142867e+00
1.00141788e+00
1.00140706e+00
1.00139616e+00
1.00138548e+00
1.00137512e+00
1.00136516e+00
1.00135571e+00
1.00134697e+00
1.00133901e+00
1.00133195e+00
1.00132591e+00
1.00132100e+00
1.00131729e+00
1.00131488e+00
1.00131384e+00
1.00131422e+00
1.00131607e+00
1.00131941e+00
1.00132426e+00
1.00133062e+00
1.00133847e+00
1.00134777e+00
1.00135848e+00
1.00137054e+00
1.00138387e+00
1.00139838e+00
1.00141397e+00
1.00143054e+00
1.00144796e+00
1.00146612e+00
1.00148488e+00
1.00150410e+00
1.00152366e+00
1.00154341e+00
1.00156323e+00
1.00158298e+00
1.00160254e+00
1.00162179e+00
1.00164062e+00
1.00165893e+00
1.00167664e+00
1.00169366e+00
1.00170994e+00
1.00172542e+00
1.00174008e+00
1.00175389e+00
1.00176685e+00
1.00177897e+00
1.00179028e+00
1.00180082e+00
1.00181063e+00
1.00181981e+00
1.00182841e+00
1.00183655e+00
1.00184432e+00
1.00185185e+00
1.00185925e+00
1.00186666e+00
1.00187422e+00
1.00188208e+00
1.00189037e+00
1.00189925e+00
1.00190887e+00
1.00191938e+00
1.00193091e+00
1.00194360e+00
1.00195758e+00
1.00197297e+00
1.00198988e+00
1.00200840e+00
1.00202861e+00
1.00205057e+00
1.00207431e+00
1.00209986e+00
1.00212722e+00
1.00215636e+00
1.00218724e+00
1.00221978e+00
1.00225389e+00
1.00228945e+00
1.00232633e+00
1.00236437e+00
1.00240339e+00
1.00244320e+00
1.00248360e+00
1.00252438e+00
1.00256531e+00
1.00260617e+00
1.00264676e+00
1.00268686e+00
1.00272622e+00
1.00276466e+00
1.00280204e+00
1.00283815e+00
1.00287278e+00
1.00290589e+00
1.00293741e+00
1.00296708e+00
1.00299486e+00
1.00302093e+00
1.00304511e+00
1.00306711e+00
1.00308727e+00
1.00310593e+00
1.00312239e+00
1.00313657e+00
1.00314961e+00
1.00316145e+00
1.00317006e+00
1.00317697e+00
1.00318436e+00
1.00318978e+00
1.00318660e+00
1.00318762e+00
1.00151756e+00
1.00151819e+00
1.00151916e+00
1.00151370e+00
1.00150746e+00
1.00150315e+00
1.00149706e+00
1.00148868e+00
1.00148049e+00
1.00147223e+00
1.00146259e+00
1.00145231e+00
1.00144218e+00
1.00143167e+00
1.00142062e+00
1.00140967e+00
1.00139892e+00
1.00138817e+00
1.00137764e+00
1.00136765e+00
1.00135821e+00
1.00134934e+00
1.00134129e+00
1.00133419e+00
1.00132807e+00
1.00132304e+00
1.00131926e+00
1.00131677e+00
1.00131563e+00
1.00131590e+00
1.00131766e+00
1.00132090e+00
1.00132564e+00
1.00133190e+00
1.00133964e+00
1.00134883e+00
1.00135943e+00
1.00137139e+00
1.00138461e+00
1.00139901e+00
1.00141451e+00
1.00143098e+00
1.00144830e+00
1.00146637e+00
1.00148504e+00
1.00150418e+00
1.00152366e+00
1.00154334e+00
1.00156309e+00
1.00158278e+00
1.00160228e+00
1.00162148e+00
1.00164027e+00
1.00165855e+00
1.00167622e+00
1.00169322e+00
1.00170948e+00
1.00172496e+00
1.00173960e+00
1.00175341e+00
1.00176637e+00
1.00177850e+00
1.00178981e+00
1.00180036e+00
1.00181020e+00
1.00181939e+00
1.00182802e+00
1.00183618e+00
1.00184399e+00
1.00185154e+00
1.00185898e+00
1.00186643e+00
1.00187403e+00
1.00188193e+00
1.00189027e+00
1.00189920e+00
1.00190887e+00
1.00191942e+00
1.00193100e+00
1.00194375e+00
1.00195778e+00
1.00197323e+00
1.00199019e+00
1.00200876e+00
1.00202902e+00
1.00205102e+00
1.00207481e+00
1.00210040e+00
1.00212779e+00
1.00215695e+00
1.00218785e+00
1.00222041e+00
1.00225452e+00
1.00229008e+00
1.00232695e+00
1.00236498e+00
1.00240397e+00
1.00244375e+00
1.00248413e+00
1.00252487e+00
1.00256575e+00
1.00260659e+00
1.00264715e+00
1.00268715e+00
1.00272647e+00
1.00276495e+00
1.00280225e+00
1.00283823e+00
1.00287295e+00
1.00290613e+00
1.00293741e+00
1.00296706e+00
1.00299519e+00
1.00302113e+00
1.00304487e+00
1.00306731e+00
1.00308802e+00
1.00310579e+00
1.00312192e+00
1.00313774e+00
1.00315064e+00
1.00315995e+00
1.00317019e+00
1.00318062e+00
1.00318369e+00
1.00318459e+00
1.00319310e+00
1.00319680e+00
1.00152331e+00
1.00152256e+00
1.00152092e+00
1.00151702e+00
1.00151234e+00
1.00150675e+00
1.00150022e+00
1.00149276e+00
1.00148461e+00
1.00147575e+00
1.00146630e+00
1.00145631e+00
1.00144593e+00
1.00143523e+00
1.00142434e+00
1.00141335e+00
1.00140240e+00
1.00139160e+00
1.00138110e+00
1.00137098e+00
1.00136141e+00
1.00135250e+00
1.00134438e+00
1.00133715e+00
1.00133094e+00
1.00132584e+00
1.00132194e+00
1.00131933e+00
1.00131809e+00
1.00131826e+00
1.00131990e+00
1.00132302e+00
1.00132765e+00
1.00133379e+00
1.00134141e+00
1.00135048e+00
1.00136096e+00
1.00137279e+00
1.00138589e+00
1.00140018e+00
1.00141556e+00
1.00143192e+00
1.00144914e+00
1.00146710e+00
1.00148567e+00
1.00150472e+00
1.00152411e+00
1.00154371e+00
1.00156339e+00
1.00158301e+00
1.00160245e+00
1.00162159e+00
1.00164033e+00
1.00165857e+00
1.00167621e+00
1.00169318e+00
1.00170941e+00
1.00172487e+00
1.00173950e+00
1.00175330e+00
1.00176626e+00
1.00177838e+00
1.00178970e+00
1.00180026e+00
1.00181010e+00
1.00181930e+00
1.00182795e+00
1.00183613e+00
1.00184395e+00
1.00185152e+00
1.00185898e+00
1.00186646e+00
1.00187408e+00
1.00188200e+00
1.00189037e+00
1.00189932e+00
1.00190902e+00
1.00191960e+00
1.00193121e+00
1.00194398e+00
1.00195805e+00
1.00197352e+00
1.00199051e+00
1.00200911e+00
1.00202939e+00
1.00205141e+00
1.00207521e+00
1.00210081e+00
1.00212822e+00
1.00215739e+00
1.00218829e+00
1.00222084e+00
1.00225495e+00
1.00229050e+00
1.00232735e+00
1.00236535e+00
1.00240432e+00
1.00244407e+00
1.00248441e+00
1.00252511e+00
1.00256598e+00
1.00260677e+00
1.00264727e+00
1.00268728e+00
1.00272658e+00
1.00276496e+00
1.00280226e+00
1.00283831e+00
1.00287295e+00
1.00290604e+00
1.00293749e+00
1.00296719e+00
1.00299507e+00
1.00302110e+00
1.00304524e+00
1.00306746e+00
1.00308778e+00
1.00310621e+00
1.00312276e+00
1.00313748e+00
1.00315048e+00
1.00316161e+00
1.00317099e+00
1.00317890e+00
1.00318497e+00
1.00318885e+00
1.00319343e+00
1.00319472e+00
1.00152982e+00
1.00152831e+00
1.00152426e+00
1.00152190e+00
1.00151827e+00
1.00151138e+00
1.00150451e+00
1.00149796e+00
1.00148975e+00
1.00148030e+00
1.00147101e+00
1.00146129e+00
1.00145065e+00
1.00143976e+00
1.00142898e+00
1.00141795e+00
1.00140680e+00
1.00139594e+00
1.00138542e+00
1.00137518e+00
1.00136548e+00
1.00135650e+00
1.00134829e+00
1.00134092e+00
1.00133460e+00
1.00132940e+00
1.00132538e+00
1.00132264e+00
1.00132128e+00
1.00132133e+00
1.00132282e+00
1.00132581e+00
1.00133031e+00
1.00133630e+00
1.00134378e+00
1.00135272e+00
1.00136306e+00
1.00137475e+00
1.00138771e+00
1.00140186e+00
1.00141711e+00
1.00143333e+00
1.00145043e+00
1.00146826e+00
1.00148672e+00
1.00150566e+00
1.00152495e+00
1.00154445e+00
1.00156404e+00
1.00158358e+00
1.00160294e+00
1.00162202e+00
1.00164070e+00
1.00165889e+00
1.00167649e+00
1.00169342e+00
1.00170963e+00
1.00172506e+00
1.00173968e+00
1.00175347e+00
1.00176642e+00
1.00177854e+00
1.00178986e+00
1.00180042e+00
1.00181027e+00
1.00181948e+00
1.00182813e+00
1.00183632e+00
1.00184416e+00
1.00185175e+00
1.00185922e+00
1.00186671e+00
1.00187435e+00
1.00188229e+00
1.00189067e+00
1.00189964e+00
1.00190935e+00
1.00191995e+00
1.00193157e+00
1.00194436e+00
1.00195844e+00
1.00197392e+00
1.00199092e+00
1.00200953e+00
1.00202981e+00
1.00205184e+00
1.00207564e+00
1.00210124e+00
1.00212864e+00
1.00215780e+00
1.00218868e+00
1.00222121e+00
1.00225529e+00
1.00229081e+00
1.00232762e+00
1.00236558e+00
1.00240452e+00
1.00244422e+00
1.00248450e+00
1.00252516e+00
1.00256599e+00
1.00260671e+00
1.00264716e+00
1.00268716e+00
1.00272642e+00
1.00276472e+00
1.00280202e+00
1.00283812e+00
1.00287267e+00
1.00290568e+00
1.00293728e+00
1.00296704e+00
1.00299470e+00
1.00302081e+00
1.00304533e+00
1.00306736e+00
1.00308731e+00
1.00310635e+00
1.00312335e+00
1.00313711e+00
1.00315000e+00
1.00316290e+00
1.00317189e+00
1.00317743e+00
1.00318559e+00
1.00319246e+00
1.00319262e+00
1.00319357e+00
1.00153527e+00
1.00153441e+00
1.00153201e+00
1.00152813e+00
1.00152309e+00
1.00151766e+00
1.00151127e+00
1.00150354e+00
1.00149523e+00
1.00148652e+00
1.00147696e+00
1.00146674e+00
1.00145630e+00
1.00144555e+00
1.00143444e+00
1.00142327e+00
1.00141220e+00
1.00140122e+00
1.00139048e+00
1.00138018e+00
1.00137042e+00
1.00136128e+00
1.00135291e+00
1.00134547e+00
1.00133901e+00
1.00133365e+00
1.00132950e+00
1.00132663e+00
1.00132511e+00
1.00132500e+00
1.00132635e+00
1.00132919e+00
1.00133352e+00
1.00133935e+00
1.00134667e+00
1.00135544e+00
1.00136562e+00
1.00137715e+00
1.00138995e+00
1.00140395e+00
1.00141903e+00
1.00143511e+00
1.00145206e+00
1.00146976e+00
1.00148808e+00
1.00150690e+00
1.00152607e+00
1.00154547e+00
1.00156495e+00
1.00158440e+00
1.00160369e+00
1.00162270e+00
1.00164132e+00
1.00165945e+00
1.00167700e+00
1.00169390e+00
1.00171007e+00
1.00172548e+00
1.00174009e+00
1.00175386e+00
1.00176681e+00
1.00177893e+00
1.00179025e+00
1.00180081e+00
1.00181067e+00
1.00181989e+00
1.00182856e+00
1.00183676e+00
1.00184460e+00
1.00185221e+00
1.00185969e+00
1.00186719e+00
1.00187484e+00
1.00188279e+00
1.00189118e+00
1.00190016e+00
1.00190988e+00
1.00192048e+00
1.00193211e+00
1.00194490e+00
1.00195898e+00
1.00197446e+00
1.00199146e+00
1.00201005e+00
1.00203033e+00
1.00205234e+00
1.00207613e+00
1.00210171e+00
1.00212908e+00
1.00215821e+00
1.00218906e+00
1.00222155e+00
1.00225559e+00
1.00229106e+00
1.00232783e+00
1.00236574e+00
1.00240461e+00
1.00244426e+00
1.00248449e+00
1.00252508e+00
1.00256582e+00
1.00260652e+00
1.00264692e+00
1.00268681e+00
1.00272603e+00
1.00276437e+00
1.00280158e+00
1.00283755e+00
1.00287220e+00
1.00290529e+00
1.00293667e+00
1.00296639e+00
1.00299442e+00
1.00302044e+00
1.00304452e+00
1.00306698e+00
1.00308750e+00
1.00310576e+00
1.00312241e+00
1.00313768e+00
1.00315060e+00
1.00316139e+00
1.00317144e+00
1.00317985e+00
1.00318571e+00
1.00319025e+00
1.00319371e+00
1.00319645e+00
1.00154298e+00
1.00154167e+00
1.00153990e+00
1.00153537e+00
1.00152996e+00
1.00152497e+00
1.00151840e+00
1.00151027e+00
1.00150208e+00
1.00149347e+00
1.00148364e+00
1.00147329e+00
1.00146290e+00
1.00145205e+00
1.00144075e+00
1.00142950e+00
1.00141837e+00
1.00140724e+00
1.00139635e+00
1.00138595e+00
1.00137607e+00
1.00136676e+00
1.00135826e+00
1.00135068e+00
1.00134407e+00
1.00133854e+00
1.00133424e+00
1.00133121e+00
1.00132952e+00
1.00132924e+00
1.00133042e+00
1.00133308e+00
1.00133722e+00
1.00134288e+00
1.00135001e+00
1.00135860e+00
1.00136859e+00
1.00137994e+00
1.00139256e+00
1.00140638e+00
1.00142129e+00
1.00143720e+00
1.00145399e+00
1.00147153e+00
1.00148971e+00
1.00150839e+00
1.00152743e+00
1.00154671e+00
1.00156608e+00
1.00158544e+00
1.00160463e+00
1.00162356e+00
1.00164212e+00
1.00166019e+00
1.00167769e+00
1.00169455e+00
1.00171070e+00
1.00172609e+00
1.00174068e+00
1.00175444e+00
1.00176739e+00
1.00177951e+00
1.00179084e+00
1.00180141e+00
1.00181127e+00
1.00182051e+00
1.00182918e+00
1.00183740e+00
1.00184526e+00
1.00185287e+00
1.00186036e+00
1.00186787e+00
1.00187553e+00
1.00188348e+00
1.00189187e+00
1.00190086e+00
1.00191057e+00
1.00192117e+00
1.00193279e+00
1.00194558e+00
1.00195964e+00
1.00197511e+00
1.00199209e+00
1.00201067e+00
1.00203092e+00
1.00205291e+00
1.00207666e+00
1.00210220e+00
1.00212953e+00
1.00215862e+00
1.00218942e+00
1.00222185e+00
1.00225583e+00
1.00229124e+00
1.00232794e+00
1.00236578e+00
1.00240457e+00
1.00244414e+00
1.00248430e+00
1.00252482e+00
1.00256548e+00
1.00260610e+00
1.00264645e+00
1.00268626e+00
1.00272540e+00
1.00276371e+00
1.00280089e+00
1.00283678e+00
1.00287140e+00
1.00290454e+00
1.00293586e+00
1.00296552e+00
1.00299364e+00
1.00301974e+00
1.00304368e+00
1.00306615e+00
1.00308698e+00
1.00310521e+00
1.00312155e+00
1.00313717e+00
1.00315055e+00
1.00316082e+00
1.00317074e+00
1.00318023e+00
1.00318559e+00
1.00318935e+00
1.00319462e+00
1.00319694e+00
1.00155291e+00
1.00155077e+00
1.00154739e+00
1.00154365e+00
1.00153900e+00
1.00153270e+00
1.00152570e+00
1.00151849e+00
1.00151013e+00
1.00150071e+00
1.00149106e+00
1.00148102e+00
1.00147021e+00
1.00145906e+00
1.00144791e+00
1.00143659e+00
1.00142513e+00
1.00141390e+00
1.00140299e+00
1.00139240e+00
1.00138230e+00
1.00137290e+00
1.00136427e+00
1.00135647e+00
1.00134969e+00
1.00134403e+00
1.00133954e+00
1.00133631e+00
1.00133444e+00
1.00133398e+00
1.00133496e+00
1.00133741e+00
1.00134137e+00
1.00134682e+00
1.00135374e+00
1.00136213e+00
1.00137192e+00
1.00138306e+00
1.00139548e+00
1.00140911e+00
1.00142383e+00
1.00143956e+00
1.00145617e+00
1.00147354e+00
1.00149156e+00
1.00151008e+00
1.00152898e+00
1.00154813e+00
1.00156739e+00
1.00158664e+00
1.00160574e+00
1.00162459e+00
1.00164307e+00
1.00166109e+00
1.00167854e+00
1.00169536e+00
1.00171149e+00
1.00172685e+00
1.00174143e+00
1.00175520e+00
1.00176814e+00
1.00178027e+00
1.00179161e+00
1.00180219e+00
1.00181207e+00
1.00182132e+00
1.00183002e+00
1.00183825e+00
1.00184612e+00
1.00185375e+00
1.00186125e+00
1.00186877e+00
1.00187643e+00
1.00188439e+00
1.00189278e+00
1.00190176e+00
1.00191147e+00
1.00192206e+00
1.00193366e+00
1.00194643e+00
1.00196047e+00
1.00197592e+00
1.00199287e+00
1.00201141e+00
1.00203162e+00
1.00205356e+00
1.00207727e+00
1.00210276e+00
1.00213003e+00
1.00215906e+00
1.00218978e+00
1.00222215e+00
1.00225605e+00
1.00229138e+00
1.00232799e+00
1.00236574e+00
1.00240445e+00
1.00244393e+00
1.00248398e+00
1.00252442e+00
1.00256501e+00
1.00260551e+00
1.00264576e+00
1.00268555e+00
1.00272461e+00
1.00276277e+00
1.00279993e+00
1.00283588e+00
1.00287035e+00
1.00290334e+00
1.00293487e+00
1.00296457e+00
1.00299233e+00
1.00301852e+00
1.00304298e+00
1.00306513e+00
1.00308542e+00
1.00310444e+00
1.00312135e+00
1.00313572e+00
1.00314900e+00
1.00316120e+00
1.00317059e+00
1.00317805e+00
1.00318517e+00
1.00319064e+00
1.00319346e+00
1.00319491e+00
1.00156259e+00
1.00156042e+00
1.00155670e+00
1.00155279e+00
1.00154790e+00
1.00154144e+00
1.00153453e+00
1.00152711e+00
1.00151846e+00
1.00150907e+00
1.00149941e+00
1.00148910e+00
1.00147814e+00
1.00146698e+00
1.00145569e+00
1.00144415e+00
1.00143259e+00
1.00142125e+00
1.00141016e+00
1.00139939e+00
1.00138916e+00
1.00137960e+00
1.00137077e+00
1.00136280e+00
1.00135585e+00
1.00134999e+00
1.00134530e+00
1.00134189e+00
1.00133982e+00
1.00133914e+00
1.00133991e+00
1.00134215e+00
1.00134589e+00
1.00135111e+00
1.00135782e+00
1.00136598e+00
1.00137555e+00
1.00138647e+00
1.00139868e+00
1.00141209e+00
1.00142660e+00
1.00144213e+00
1.00145854e+00
1.00147574e+00
1.00149358e+00
1.00151194e+00
1.00153069e+00
1.00154970e+00
1.00156883e+00
1.00158797e+00
1.00160697e+00
1.00162574e+00
1.00164415e+00
1.00166210e+00
1.00167951e+00
1.00169630e+00
1.00171240e+00
1.00172775e+00
1.00174232e+00
1.00175609e+00
1.00176904e+00
1.00178119e+00
1.00179254e+00
1.00180315e+00
1.00181306e+00
1.00182233e+00
1.00183104e+00
1.00183930e+00
1.00184719e+00
1.00185483e+00
1.00186235e+00
1.00186988e+00
1.00187755e+00
1.00188551e+00
1.00189390e+00
1.00190287e+00
1.00191257e+00
1.00192314e+00
1.00193473e+00
1.00194746e+00
1.00196147e+00
1.00197688e+00
1.00199379e+00
1.00201228e+00
1.00203244e+00
1.00205432e+00
1.00207796e+00
1.00210338e+00
1.00213057e+00
1.00215951e+00
1.00219015e+00
1.00222242e+00
1.00225622e+00
1.00229145e+00
1.00232795e+00
1.00236558e+00
1.00240418e+00
1.00244355e+00
1.00248349e+00
1.00252380e+00
1.00256429e+00
1.00260470e+00
1.00264483e+00
1.00268451e+00
1.00272351e+00
1.00276159e+00
1.00279864e+00
1.00283453e+00
1.00286900e+00
1.00290191e+00
1.00293334e+00
1.00296311e+00
1.00299092e+00
1.00301696e+00
1.00304140e+00
1.00306380e+00
1.00308405e+00
1.00310284e+00
1.00311998e+00
1.00313467e+00
1.00314768e+00
1.00315981e+00
1.00316962e+00
1.00317706e+00
1.00318416e+00
1.00318972e+00
1.00319236e+00
1.00319436e+00
1.00157254e+00
1.00157037e+00
1.00156732e+00
1.00156260e+00
1.00155697e+00
1.00155115e+00
1.00154425e+00
1.00153599e+00
1.00152736e+00
1.00151833e+00
1.00150827e+00
1.00149757e+00
1.00148676e+00
1.00147556e+00
1.00146389e+00
1.00145221e+00
1.00144066e+00
1.00142911e+00
1.00141776e+00
1.00140689e+00
1.00139653e+00
1.00138673e+00
1.00137771e+00
1.00136960e+00
1.00136245e+00
1.00135636e+00
1.00135148e+00
1.00134786e+00
1.00134556e+00
1.00134466e+00
1.00134521e+00
1.00134722e+00
1.00135072e+00
1.00135571e+00
1.00136218e+00
1.00137010e+00
1.00137943e+00
1.00139012e+00
1.00140209e+00
1.00141527e+00
1.00142956e+00
1.00144487e+00
1.00146108e+00
1.00147807e+00
1.00149573e+00
1.00151392e+00
1.00153251e+00
1.00155137e+00
1.00157038e+00
1.00158939e+00
1.00160830e+00
1.00162698e+00
1.00164532e+00
1.00166322e+00
1.00168059e+00
1.00169734e+00
1.00171342e+00
1.00172877e+00
1.00174335e+00
1.00175713e+00
1.00177010e+00
1.00178227e+00
1.00179365e+00
1.00180429e+00
1.00181423e+00
1.00182354e+00
1.00183229e+00
1.00184057e+00
1.00184849e+00
1.00185616e+00
1.00186370e+00
1.00187125e+00
1.00187893e+00
1.00188689e+00
1.00189528e+00
1.00190424e+00
1.00191393e+00
1.00192448e+00
1.00193604e+00
1.00194874e+00
1.00196271e+00
1.00197807e+00
1.00199492e+00
1.00201335e+00
1.00203344e+00
1.00205524e+00
1.00207880e+00
1.00210413e+00
1.00213122e+00
1.00216006e+00
1.00219059e+00
1.00222274e+00
1.00225642e+00
1.00229151e+00
1.00232789e+00
1.00236539e+00
1.00240384e+00
1.00244308e+00
1.00248289e+00
1.00252306e+00
1.00256339e+00
1.00260369e+00
1.00264372e+00
1.00268323e+00
1.00272211e+00
1.00276017e+00
1.00279711e+00
1.00283281e+00
1.00286728e+00
1.00290026e+00
1.00293146e+00
1.00296108e+00
1.00298917e+00
1.00301521e+00
1.00303921e+00
1.00306179e+00
1.00308259e+00
1.00310092e+00
1.00311758e+00
1.00313321e+00
1.00314652e+00
1.00315741e+00
1.00316760e+00
1.00317651e+00
1.00318263e+00
1.00318716e+00
1.00319139e+00
1.00319393e+00
1.00158379e+00
1.00158110e+00
1.00157763e+00
1.00157291e+00
1.00156733e+00
1.00156113e+00
1.00155389e+00
1.00154576e+00
1.00153710e+00
1.00152766e+00
1.00151746e+00
1.00150684e+00
1.00149582e+00
1.00148433e+00
1.00147261e+00
1.00146085e+00
1.00144904e+00
1.00143730e+00
1.00142586e+00
1.00141480e+00
1.00140421e+00
1.00139425e+00
1.00138506e+00
1.00137673e+00
1.00136936e+00
1.00136308e+00
1.00135799e+00
1.00135414e+00
1.00135161e+00
1.00135048e+00
1.00135079e+00
1.00135255e+00
1.00135580e+00
1.00136054e+00
1.00136675e+00
1.00137442e+00
1.00138350e+00
1.00139393e+00
1.00140565e+00
1.00141859e+00
1.00143265e+00
1.00144773e+00
1.00146372e+00
1.00148050e+00
1.00149796e+00
1.00151597e+00
1.00153440e+00
1.00155311e+00
1.00157198e+00
1.00159088e+00
1.00160968e+00
1.00162828e+00
1.00164655e+00
1.00166440e+00
1.00168173e+00
1.00169847e+00
1.00171454e+00
1.00172989e+00
1.00174448e+00
1.00175828e+00
1.00177129e+00
1.00178349e+00
1.00179492e+00
1.00180560e+00
1.00181559e+00
1.00182495e+00
1.00183374e+00
1.00184207e+00
1.00185003e+00
1.00185774e+00
1.00186531e+00
1.00187288e+00
1.00188057e+00
1.00188855e+00
1.00189694e+00
1.00190590e+00
1.00191557e+00
1.00192609e+00
1.00193762e+00
1.00195028e+00
1.00196420e+00
1.00197950e+00
1.00199628e+00
1.00201463e+00
1.00203464e+00
1.00205634e+00
1.00207979e+00
1.00210500e+00
1.00213198e+00
1.00216068e+00
1.00219107e+00
1.00222307e+00
1.00225660e+00
1.00229154e+00
1.00232775e+00
1.00236509e+00
1.00240338e+00
1.00244243e+00
1.00248207e+00
1.00252209e+00
1.00256226e+00
1.00260238e+00
1.00264226e+00
1.00268166e+00
1.00272038e+00
1.00275827e+00
1.00279515e+00
1.00283077e+00
1.00286505e+00
1.00289795e+00
1.00292922e+00
1.00295874e+00
1.00298661e+00
1.00301276e+00
1.00303693e+00
1.00305922e+00
1.00307990e+00
1.00309865e+00
1.00311534e+00
1.00313050e+00
1.00314404e+00
1.00315546e+00
1.00316535e+00
1.00317395e+00
1.00318045e+00
1.00318540e+00
1.00318940e+00
1.00319150e+00
1.00159543e+00
1.00159237e+00
1.00158818e+00
1.00158361e+00
1.00157816e+00
1.00157134e+00
1.00156390e+00
1.00155604e+00
1.00154709e+00
1.00153724e+00
1.00152712e+00
1.00151647e+00
1.00150509e+00
1.00149344e+00
1.00148172e+00
1.00146976e+00
1.00145768e+00
1.00144584e+00
1.00143427e+00
1.00142297e+00
1.00141218e+00
1.00140207e+00
1.00139268e+00
1.00138411e+00
1.00137655e+00
1.00137007e+00
1.00136473e+00
1.00136064e+00
1.00135789e+00
1.00135651e+00
1.00135656e+00
1.00135807e+00
1.00136106e+00
1.00136553e+00
1.00137148e+00
1.00137888e+00
1.00138769e+00
1.00139785e+00
1.00140932e+00
1.00142200e+00
1.00143581e+00
1.00145065e+00
1.00146641e+00
1.00148298e+00
1.00150024e+00
1.00151806e+00
1.00153631e+00
1.00155487e+00
1.00157360e+00
1.00159238e+00
1.00161109e+00
1.00162960e+00
1.00164781e+00
1.00166561e+00
1.00168292e+00
1.00169964e+00
1.00171572e+00
1.00173109e+00
1.00174571e+00
1.00175955e+00
1.00177260e+00
1.00178486e+00
1.00179635e+00
1.00180710e+00
1.00181715e+00
1.00182657e+00
1.00183543e+00
1.00184382e+00
1.00185183e+00
1.00185959e+00
1.00186721e+00
1.00187481e+00
1.00188254e+00
1.00189053e+00
1.00189893e+00
1.00190789e+00
1.00191754e+00
1.00192805e+00
1.00193954e+00
1.00195216e+00
1.00196602e+00
1.00198125e+00
1.00199795e+00
1.00201621e+00
1.00203611e+00
1.00205770e+00
1.00208102e+00
1.00210610e+00
1.00213292e+00
1.00216147e+00
1.00219169e+00
1.00222351e+00
1.00225686e+00
1.00229161e+00
1.00232762e+00
1.00236475e+00
1.00240285e+00
1.00244171e+00
1.00248113e+00
1.00252095e+00
1.00256094e+00
1.00260086e+00
1.00264053e+00
1.00267979e+00
1.00271836e+00
1.00275603e+00
1.00279275e+00
1.00282834e+00
1.00286247e+00
1.00289514e+00
1.00292641e+00
1.00295598e+00
1.00298359e+00
1.00300960e+00
1.00303403e+00
1.00305628e+00
1.00307655e+00
1.00309551e+00
1.00311262e+00
1.00312731e+00
1.00314061e+00
1.00315281e+00
1.00316263e+00
1.00317047e+00
1.00317760e+00
1.00318315e+00
1.00318626e+00
1.00318829e+00
1.00160674e+00
1.00160364e+00
1.00159951e+00
1.00159451e+00
1.00158867e+00
1.00158197e+00
1.00157452e+00
1.00156620e+00
1.00155707e+00
1.00154737e+00
1.00153703e+00
1.00152603e+00
1.00151462e+00
1.00150294e+00
1.00149093e+00
1.00147875e+00
1.00146663e+00
1.00145462e+00
1.00144278e+00
1.00143132e+00
1.00142040e+00
1.00141006e+00
1.00140044e+00
1.00139169e+00
1.00138392e+00
1.00137719e+00
1.00137162e+00
1.00136731e+00
1.00136430e+00
1.00136266e+00
1.00136245e+00
1.00136370e+00
1.00136642e+00
1.00137061e+00
1.00137628e+00
1.00138340e+00
1.00139193e+00
1.00140183e+00
1.00141302e+00
1.00142543e+00
1.00143898e+00
1.00145357e+00
1.00146910e+00
1.00148545e+00
1.00150249e+00
1.00152012e+00
1.00153820e+00
1.00155660e+00
1.00157520e+00
1.00159386e+00
1.00161247e+00
1.00163091e+00
1.00164907e+00
1.00166683e+00
1.00168412e+00
1.00170085e+00
1.00171694e+00
1.00173234e+00
1.00174701e+00
1.00176091e+00
1.00177402e+00
1.00178636e+00
1.00179793e+00
1.00180876e+00
1.00181889e+00
1.00182840e+00
1.00183734e+00
1.00184581e+00
1.00185390e+00
1.00186173e+00
1.00186940e+00
1.00187706e+00
1.00188482e+00
1.00189284e+00
1.00190126e+00
1.00191023e+00
1.00191988e+00
1.00193036e+00
1.00194182e+00
1.00195438e+00
1.00196818e+00
1.00198333e+00
1.00199994e+00
1.00201809e+00
1.00203787e+00
1.00205932e+00
1.00208249e+00
1.00210740e+00
1.00213404e+00
1.00216239e+00
1.00219241e+00
1.00222403e+00
1.00225715e+00
1.00229167e+00
1.00232745e+00
1.00236434e+00
1.00240218e+00
1.00244080e+00
1.00247999e+00
1.00251955e+00
1.00255929e+00
1.00259901e+00
1.00263846e+00
1.00267745e+00
1.00271584e+00
1.00275338e+00
1.00278987e+00
1.00282523e+00
1.00285932e+00
1.00289189e+00
1.00292289e+00
1.00295235e+00
1.00298010e+00
1.00300594e+00
1.00303005e+00
1.00305250e+00
1.00307296e+00
1.00309152e+00
1.00310850e+00
1.00312370e+00
1.00313696e+00
1.00314863e+00
1.00315874e+00
1.00316710e+00
1.00317388e+00
1.00317907e+00
1.00318273e+00
1.00318517e+00
1.00161823e+00
1.00161488e+00
1.00161079e+00
1.00160547e+00
1.00159932e+00
1.00159269e+00
1.00158507e+00
1.00157642e+00
1.00156727e+00
1.00155752e+00
1.00154689e+00
1.00153573e+00
1.00152430e+00
1.00151242e+00
1.00150017e+00
1.00148789e+00
1.00147565e+00
1.00146340e+00
1.00145138e+00
1.00143979e+00
1.00142867e+00
1.00141810e+00
1.00140829e+00
1.00139936e+00
1.00139134e+00
1.00138438e+00
1.00137859e+00
1.00137403e+00
1.00137076e+00
1.00136887e+00
1.00136839e+00
1.00136936e+00
1.00137180e+00
1.00137571e+00
1.00138110e+00
1.00138793e+00
1.00139617e+00
1.00140578e+00
1.00141669e+00
1.00142883e+00
1.00144211e+00
1.00145645e+00
1.00147173e+00
1.00148785e+00
1.00150468e+00
1.00152212e+00
1.00154002e+00
1.00155827e+00
1.00157673e+00
1.00159528e+00
1.00161380e+00
1.00163217e+00
1.00165028e+00
1.00166802e+00
1.00168531e+00
1.00170205e+00
1.00171817e+00
1.00173363e+00
1.00174836e+00
1.00176233e+00
1.00177554e+00
1.00178797e+00
1.00179964e+00
1.00181058e+00
1.00182083e+00
1.00183044e+00
1.00183949e+00
1.00184807e+00
1.00185625e+00
1.00186417e+00
1.00187193e+00
1.00187965e+00
1.00188748e+00
1.00189554e+00
1.00190399e+00
1.00191297e+00
1.00192263e+00
1.00193309e+00
1.00194452e+00
1.00195704e+00
1.00197077e+00
1.00198583e+00
1.00200233e+00
1.00202036e+00
1.00204000e+00
1.00206129e+00
1.00208429e+00
1.00210900e+00
1.00213544e+00
1.00216356e+00
1.00219334e+00
1.00222471e+00
1.00225757e+00
1.00229181e+00
1.00232732e+00
1.00236393e+00
1.00240148e+00
1.00243980e+00
1.00247871e+00
1.00251799e+00
1.00255743e+00
1.00259687e+00
1.00263608e+00
1.00267481e+00
1.00271292e+00
1.00275026e+00
1.00278657e+00
1.00282166e+00
1.00285554e+00
1.00288805e+00
1.00291887e+00
1.00294808e+00
1.00297578e+00
1.00300165e+00
1.00302552e+00
1.00304780e+00
1.00306845e+00
1.00308694e+00
1.00310362e+00
1.00311900e+00
1.00313246e+00
1.00314379e+00
1.00315391e+00
1.00316268e+00
1.00316925e+00
1.00317422e+00
1.00317834e+00
1.00318085e+00
1.00162987e+00
1.00162615e+00
1.00162160e+00
1.00161632e+00
1.00161019e+00
1.00160316e+00
1.00159530e+00
1.00158678e+00
1.00157748e+00
1.00156736e+00
1.00155668e+00
1.00154554e+00
1.00153383e+00
1.00152172e+00
1.00150946e+00
1.00149704e+00
1.00148452e+00
1.00147213e+00
1.00146001e+00
1.00144821e+00
1.00143685e+00
1.00142613e+00
1.00141614e+00
1.00140696e+00
1.00139872e+00
1.00139156e+00
1.00138553e+00
1.00138070e+00
1.00137719e+00
1.00137504e+00
1.00137428e+00
1.00137497e+00
1.00137713e+00
1.00138075e+00
1.00138584e+00
1.00139237e+00
1.00140032e+00
1.00140964e+00
1.00142026e+00
1.00143212e+00
1.00144513e+00
1.00145921e+00
1.00147424e+00
1.00149013e+00
1.00150675e+00
1.00152399e+00
1.00154171e+00
1.00155981e+00
1.00157814e+00
1.00159658e+00
1.00161502e+00
1.00163333e+00
1.00165140e+00
1.00166914e+00
1.00168643e+00
1.00170321e+00
1.00171938e+00
1.00173491e+00
1.00174972e+00
1.00176380e+00
1.00177712e+00
1.00178967e+00
1.00180148e+00
1.00181255e+00
1.00182293e+00
1.00183268e+00
1.00184187e+00
1.00185057e+00
1.00185888e+00
1.00186691e+00
1.00187477e+00
1.00188259e+00
1.00189050e+00
1.00189863e+00
1.00190712e+00
1.00191613e+00
1.00192580e+00
1.00193626e+00
1.00194765e+00
1.00196012e+00
1.00197378e+00
1.00198875e+00
1.00200513e+00
1.00202302e+00
1.00204249e+00
1.00206360e+00
1.00208639e+00
1.00211088e+00
1.00213707e+00
1.00216494e+00
1.00219444e+00
1.00222550e+00
1.00225806e+00
1.00229198e+00
1.00232715e+00
1.00236342e+00
1.00240064e+00
1.00243862e+00
1.00247717e+00
1.00251612e+00
1.00255525e+00
1.00259433e+00
1.00263321e+00
1.00267169e+00
1.00270950e+00
1.00274650e+00
1.00278258e+00
1.00281751e+00
1.00285109e+00
1.00288331e+00
1.00291410e+00
1.00294318e+00
1.00297052e+00
1.00299630e+00
1.00302031e+00
1.00304235e+00
1.00306267e+00
1.00308140e+00
1.00309820e+00
1.00311312e+00
1.00312655e+00
1.00313835e+00
1.00314832e+00
1.00315665e+00
1.00316356e+00
1.00316894e+00
1.00317268e+00
1.00317501e+00
1.00164102e+00
1.00163711e+00
1.00163231e+00
1.00162689e+00
1.00162064e+00
1.00161340e+00
1.00160545e+00
1.00159684e+00
1.00158732e+00
1.00157707e+00
1.00156635e+00
1.00155502e+00
1.00154312e+00
1.00153094e+00
1.00151855e+00
1.00150592e+00
1.00149325e+00
1.00148075e+00
1.00146844e+00
1.00145643e+00
1.00144492e+00
1.00143403e+00
1.00142382e+00
1.00141442e+00
1.00140600e+00
1.00139860e+00
1.00139231e+00
1.00138726e+00
1.00138349e+00
1.00138107e+00
1.00138004e+00
1.00138045e+00
1.00138231e+00
1.00138564e+00
1.00139043e+00
1.00139667e+00
1.00140432e+00
1.00141334e+00
1.00142367e+00
1.00143524e+00
1.00144798e+00
1.00146179e+00
1.00147657e+00
1.00149222e+00
1.00150863e+00
1.00152567e+00
1.00154323e+00
1.00156117e+00
1.00157938e+00
1.00159772e+00
1.00161608e+00
1.00163435e+00
1.00165240e+00
1.00167014e+00
1.00168746e+00
1.00170429e+00
1.00172054e+00
1.00173615e+00
1.00175108e+00
1.00176528e+00
1.00177874e+00
1.00179145e+00
1.00180341e+00
1.00181464e+00
1.00182520e+00