# vtk DataFile Version 2.0
LBM Flow Field - Timestep 2330
ASCII
DATASET STRUCTURED_POINTS
DIMENSIONS 128 128 1
ORIGIN 0.0 0.0 0.0
SPACING 1.0 1.0 1.0
POINT_DATA 16384
SCALARS density double 1
LOOKUP_TABLE default
1.00338100e+00
1.00336648e+00
1.00334310e+00
1.00330909e+00
1.00326284e+00
1.00320974e+00
1.00314680e+00
1.00307416e+00
1.00299588e+00
1.00291233e+00
1.00282188e+00
1.00272709e+00
1.00263006e+00
1.00253020e+00
1.00242805e+00
1.00232555e+00
1.00222326e+00
1.00212117e+00
1.00202024e+00
1.00192132e+00
1.00182459e+00
1.00173039e+00
1.00163932e+00
1.00155171e+00
1.00146779e+00
1.00138787e+00
1.00131229e+00
1.00124127e+00
1.00117503e+00
1.00111380e+00
1.00105779e+00
1.00100715e+00
1.00096201e+00
1.00092247e+00
1.00088857e+00
1.00086031e+00
1.00083763e+00
1.00082042e+00
1.00080851e+00
1.00080169e+00
1.00079969e+00
1.00080219e+00
1.00080883e+00
1.00081922e+00
1.00083295e+00
1.00084960e+00
1.00086873e+00
1.00088990e+00
1.00091270e+00
1.00093674e+00
1.00096165e+00
1.00098710e+00
1.00101281e+00
1.00103856e+00
1.00106416e+00
1.00108948e+00
1.00111446e+00
1.00113905e+00
1.00116329e+00
1.00118723e+00
1.00121095e+00
1.00123455e+00
1.00125815e+00
1.00128185e+00
1.00130576e+00
1.00132993e+00
1.00135441e+00
1.00137919e+00
1.00140418e+00
1.00142927e+00
1.00145424e+00
1.00147884e+00
1.00150271e+00
1.00152543e+00
1.00154654e+00
1.00156551e+00
1.00158176e+00
1.00159471e+00
1.00160376e+00
1.00160835e+00
1.00160795e+00
1.00160210e+00
1.00159043e+00
1.00157268e+00
1.00154871e+00
1.00151849e+00
1.00148213e+00
1.00143988e+00
1.00139208e+00
1.00133917e+00
1.00128166e+00
1.00122011e+00
1.00115511e+00
1.00108721e+00
1.00101697e+00
1.00094489e+00
1.00087138e+00
1.00079680e+00
1.00072144e+00
1.00064544e+00
1.00056893e+00
1.00049198e+00
1.00041454e+00
1.00033650e+00
1.00025785e+00
1.00017851e+00
1.00009827e+00
1.00001704e+00
9.99935018e-01
9.99852103e-01
9.99768118e-01
9.99683532e-01
9.99598844e-01
9.99513871e-01
9.99428951e-01
9.99345493e-01
9.99263824e-01
9.99183755e-01
9.99106857e-01
9.99034958e-01
9.98967314e-01
9.98904771e-01
9.98849792e-01
9.98802616e-01
9.98762659e-01
9.98733593e-01
9.98712124e-01
9.98699061e-01
1.00337013e+00
1.00335738e+00
1.00333235e+00
1.00329891e+00
1.00325386e+00
1.00320100e+00
1.00313896e+00
1.00306802e+00
1.00299022e+00
1.00290721e+00
1.00281827e+00
1.00272462e+00
1.00262802e+00
1.00252905e+00
1.00242801e+00
1.00232610e+00
1.00222426e+00
1.00212286e+00
1.00202248e+00
1.00192383e+00
1.00182740e+00
1.00173352e+00
1.00164264e+00
1.00155513e+00
1.00147132e+00
1.00139148e+00
1.00131592e+00
1.00124489e+00
1.00117864e+00
1.00111738e+00
1.00106130e+00
1.00101058e+00
1.00096534e+00
1.00092566e+00
1.00089161e+00
1.00086316e+00
1.00084028e+00
1.00082284e+00
1.00081068e+00
1.00080359e+00
1.00080130e+00
1.00080349e+00
1.00080982e+00
1.00081990e+00
1.00083332e+00
1.00084966e+00
1.00086849e+00
1.00088938e+00
1.00091193e+00
1.00093574e+00
1.00096045e+00
1.00098574e+00
1.00101133e+00
1.00103699e+00
1.00106253e+00
1.00108784e+00
1.00111282e+00
1.00113745e+00
1.00116175e+00
1.00118576e+00
1.00120955e+00
1.00123324e+00
1.00125691e+00
1.00128068e+00
1.00130463e+00
1.00132883e+00
1.00135330e+00
1.00137803e+00
1.00140295e+00
1.00142791e+00
1.00145272e+00
1.00147711e+00
1.00150074e+00
1.00152319e+00
1.00154399e+00
1.00156264e+00
1.00157855e+00
1.00159117e+00
1.00159992e+00
1.00160424e+00
1.00160361e+00
1.00159760e+00
1.00158585e+00
1.00156810e+00
1.00154421e+00
1.00151417e+00
1.00147808e+00
1.00143617e+00
1.00138878e+00
1.00133632e+00
1.00127929e+00
1.00121824e+00
1.00115371e+00
1.00108628e+00
1.00101647e+00
1.00094476e+00
1.00087158e+00
1.00079726e+00
1.00072209e+00
1.00064625e+00
1.00056986e+00
1.00049296e+00
1.00041554e+00
1.00033755e+00
1.00025893e+00
1.00017957e+00
1.00009935e+00
1.00001826e+00
9.99936322e-01
9.99853451e-01
9.99769720e-01
9.99685486e-01
9.99600955e-01
9.99516249e-01
9.99431959e-01
9.99348989e-01
9.99267516e-01
9.99188122e-01
9.99112093e-01
9.99040564e-01
9.98973275e-01
9.98911726e-01
9.98857194e-01
9.98810539e-01
9.98771453e-01
9.98742106e-01
9.98719328e-01
9.98708497e-01
1.00335631e+00
1.00334308e+00
1.00332013e+00
1.00328782e+00
1.00324530e+00
1.00319104e+00
1.00312893e+00
1.00306121e+00
1.00298475e+00
1.00290096e+00
1.00281354e+00
1.00272207e+00
1.00262584e+00
1.00252724e+00
1.00242766e+00
1.00232671e+00
1.00222511e+00
1.00212431e+00
1.00202465e+00
1.00192629e+00
1.00183002e+00
1.00173642e+00
1.00164568e+00
1.00155817e+00
1.00147433e+00
1.00139446e+00
1.00131878e+00
1.00124759e+00
1.00118117e+00
1.00111971e+00
1.00106341e+00
1.00101245e+00
1.00096695e+00
1.00092702e+00
1.00089269e+00
1.00086397e+00
1.00084080e+00
1.00082307e+00
1.00081062e+00
1.00080324e+00
1.00080067e+00
1.00080259e+00
1.00080865e+00
1.00081848e+00
1.00083167e+00
1.00084781e+00
1.00086645e+00
1.00088720e+00
1.00090962e+00
1.00093333e+00
1.00095798e+00
1.00098323e+00
1.00100882e+00
1.00103450e+00
1.00106009e+00
1.00108546e+00
1.00111053e+00
1.00113526e+00
1.00115965e+00
1.00118376e+00
1.00120764e+00
1.00123140e+00
1.00125513e+00
1.00127892e+00
1.00130287e+00
1.00132703e+00
1.00135143e+00
1.00137604e+00
1.00140081e+00
1.00142558e+00
1.00145017e+00
1.00147430e+00
1.00149764e+00
1.00151979e+00
1.00154028e+00
1.00155860e+00
1.00157421e+00
1.00158655e+00
1.00159504e+00
1.00159916e+00
1.00159841e+00
1.00159234e+00
1.00158063e+00
1.00156300e+00
1.00153934e+00
1.00150962e+00
1.00147395e+00
1.00143254e+00
1.00138572e+00
1.00133389e+00
1.00127753e+00
1.00121716e+00
1.00115333e+00
1.00108656e+00
1.00101738e+00
1.00094625e+00
1.00087360e+00
1.00079975e+00
1.00072497e+00
1.00064947e+00
1.00057335e+00
1.00049665e+00
1.00041939e+00
1.00034157e+00
1.00026304e+00
1.00018369e+00
1.00010360e+00
1.00002267e+00
9.99940673e-01
9.99857814e-01
9.99774433e-01
9.99690349e-01
9.99605632e-01
9.99521273e-01
9.99437685e-01
9.99354552e-01
9.99272962e-01
9.99194646e-01
9.99119265e-01
9.99046933e-01
9.98980233e-01
9.98920229e-01
9.98865627e-01
9.98818219e-01
9.98779912e-01
9.98750506e-01
9.98731169e-01
9.98720113e-01
1.00334268e+00
1.00333078e+00
1.00330706e+00
1.00327324e+00
1.00323162e+00
1.00318019e+00
1.00311937e+00
1.00305121e+00
1.00297629e+00
1.00289494e+00
1.00280828e+00
1.00271739e+00
1.00262292e+00
1.00252575e+00
1.00242671e+00
1.00232661e+00
1.00222613e+00
1.00212593e+00
1.00202661e+00
1.00192876e+00
1.00183287e+00
1.00173937e+00
1.00164868e+00
1.00156121e+00
1.00147729e+00
1.00139723e+00
1.00132135e+00
1.00124992e+00
1.00118319e+00
1.00112141e+00
1.00106477e+00
1.00101344e+00
1.00096758e+00
1.00092726e+00
1.00089255e+00
1.00086344e+00
1.00083989e+00
1.00082180e+00
1.00080900e+00
1.00080128e+00
1.00079839e+00
1.00080002e+00
1.00080583e+00
1.00081543e+00
1.00082843e+00
1.00084441e+00
1.00086295e+00
1.00088362e+00
1.00090601e+00
1.00092973e+00
1.00095443e+00
1.00097977e+00
1.00100547e+00
1.00103130e+00
1.00105705e+00
1.00108261e+00
1.00110786e+00
1.00113277e+00
1.00115734e+00
1.00118160e+00
1.00120561e+00
1.00122946e+00
1.00125324e+00
1.00127704e+00
1.00130093e+00
1.00132498e+00
1.00134921e+00
1.00137360e+00
1.00139808e+00
1.00142252e+00
1.00144672e+00
1.00147042e+00
1.00149331e+00
1.00151497e+00
1.00153497e+00
1.00155282e+00
1.00156798e+00
1.00157991e+00
1.00158807e+00
1.00159193e+00
1.00159102e+00
1.00158492e+00
1.00157329e+00
1.00155589e+00
1.00153260e+00
1.00150339e+00
1.00146835e+00
1.00142771e+00
1.00138175e+00
1.00133087e+00
1.00127552e+00
1.00121620e+00
1.00115341e+00
1.00108768e+00
1.00101950e+00
1.00094931e+00
1.00087751e+00
1.00080443e+00
1.00073033e+00
1.00065539e+00
1.00057974e+00
1.00050344e+00
1.00042647e+00
1.00034882e+00
1.00027042e+00
1.00019122e+00
1.00011113e+00
1.00003012e+00
9.99948201e-01
9.99865417e-01
9.99781860e-01
9.99697722e-01
9.99613299e-01
9.99528972e-01
9.99445129e-01
9.99362333e-01
9.99281329e-01
9.99202783e-01
9.99127327e-01
9.99055953e-01
9.98989753e-01
9.98929096e-01
9.98874803e-01
9.98828600e-01
9.98791018e-01
9.98760557e-01
9.98739422e-01
9.98728813e-01
1.00332333e+00
1.00331088e+00
1.00329063e+00
1.00325791e+00
1.00321530e+00
1.00316583e+00
1.00310735e+00
1.00303933e+00
1.00296573e+00
1.00288707e+00
1.00280168e+00
1.00271158e+00
1.00261903e+00
1.00252354e+00
1.00242533e+00
1.00232626e+00
1.00222702e+00
1.00212757e+00
1.00202875e+00
1.00193147e+00
1.00183598e+00
1.00174262e+00
1.00165200e+00
1.00156454e+00
1.00148048e+00
1.00140020e+00
1.00132404e+00
1.00125228e+00
1.00118516e+00
1.00112295e+00
1.00106586e+00
1.00101406e+00
1.00096771e+00
1.00092691e+00
1.00089170e+00
1.00086211e+00
1.00083809e+00
1.00081954e+00
1.00080631e+00
1.00079819e+00
1.00079492e+00
1.00079622e+00
1.00080173e+00
1.00081109e+00
1.00082389e+00
1.00083972e+00
1.00085816e+00
1.00087879e+00
1.00090119e+00
1.00092498e+00
1.00094979e+00
1.00097529e+00
1.00100118e+00
1.00102723e+00
1.00105323e+00
1.00107904e+00
1.00110456e+00
1.00112972e+00
1.00115452e+00
1.00117898e+00
1.00120315e+00
1.00122711e+00
1.00125094e+00
1.00127471e+00
1.00129852e+00
1.00132240e+00
1.00134639e+00
1.00137046e+00
1.00139455e+00
1.00141853e+00
1.00144221e+00
1.00146535e+00
1.00148763e+00
1.00150867e+00
1.00152805e+00
1.00154529e+00
1.00155989e+00
1.00157131e+00
1.00157906e+00
1.00158261e+00
1.00158152e+00
1.00157539e+00
1.00156390e+00
1.00154682e+00
1.00152402e+00
1.00149548e+00
1.00146130e+00
1.00142165e+00
1.00137682e+00
1.00132718e+00
1.00127315e+00
1.00121518e+00
1.00115377e+00
1.00108940e+00
1.00102253e+00
1.00095357e+00
1.00088291e+00
1.00081086e+00
1.00073767e+00
1.00066351e+00
1.00058849e+00
1.00051272e+00
1.00043617e+00
1.00035878e+00
1.00028058e+00
1.00020154e+00
1.00012148e+00
1.00004041e+00
9.99958525e-01
9.99875754e-01
9.99791991e-01
9.99707786e-01
9.99623583e-01
9.99539178e-01
9.99455076e-01
9.99372643e-01
9.99292072e-01
9.99213191e-01
9.99137800e-01
9.99067386e-01
9.99001255e-01
9.98940187e-01
9.98886814e-01
9.98840983e-01
9.98802429e-01
9.98772882e-01
9.98753376e-01
9.98741976e-01
1.00330401e+00
1.00329139e+00
1.00326942e+00
1.00323886e+00
1.00319819e+00
1.00314825e+00
1.00309104e+00
1.00302642e+00
1.00295435e+00
1.00287607e+00
1.00279301e+00
1.00270557e+00
1.00261408e+00
1.00251970e+00
1.00242351e+00
1.00232587e+00
1.00222735e+00
1.00212887e+00
1.00203107e+00
1.00193429e+00
1.00183910e+00
1.00174608e+00
1.00165562e+00
1.00156807e+00
1.00148386e+00
1.00140336e+00
1.00132686e+00
1.00125467e+00
1.00118709e+00
1.00112438e+00
1.00106673e+00
1.00101436e+00
1.00096741e+00
1.00092601e+00
1.00089021e+00
1.00086003e+00
1.00083544e+00
1.00081634e+00
1.00080259e+00
1.00079398e+00
1.00079029e+00
1.00079120e+00
1.00079638e+00
1.00080546e+00
1.00081806e+00
1.00083375e+00
1.00085211e+00
1.00087273e+00
1.00089519e+00
1.00091909e+00
1.00094406e+00
1.00096978e+00
1.00099593e+00
1.00102227e+00
1.00104859e+00
1.00107472e+00
1.00110056e+00
1.00112602e+00
1.00115110e+00
1.00117580e+00
1.00120015e+00
1.00122422e+00
1.00124809e+00
1.00127182e+00
1.00129550e+00
1.00131916e+00
1.00134284e+00
1.00136650e+00
1.00139010e+00
1.00141352e+00
1.00143657e+00
1.00145903e+00
1.00148059e+00
1.00150090e+00
1.00151954e+00
1.00153608e+00
1.00155002e+00
1.00156088e+00
1.00156816e+00
1.00157138e+00
1.00157012e+00
1.00156399e+00
1.00155269e+00
1.00153601e+00
1.00151382e+00
1.00148610e+00
1.00145292e+00
1.00141446e+00
1.00137099e+00
1.00132282e+00
1.00127036e+00
1.00121403e+00
1.00115427e+00
1.00109154e+00
1.00102625e+00
1.00095880e+00
1.00088955e+00
1.00081878e+00
1.00074672e+00
1.00067355e+00
1.00059939e+00
1.00052427e+00
1.00044826e+00
1.00037132e+00
1.00029340e+00
1.00021447e+00
1.00013455e+00
1.00005360e+00
9.99971576e-01
9.99888657e-01
9.99805044e-01
9.99720804e-01
9.99636215e-01
9.99551874e-01
9.99468216e-01
9.99385528e-01
9.99304592e-01
9.99226440e-01
9.99151611e-01
9.99080552e-01
9.99014454e-01
9.98954614e-01
9.98901428e-01
9.98854946e-01
9.98816746e-01
9.98787776e-01
9.98767087e-01
9.98755660e-01
1.00327999e+00
1.00326772e+00
1.00324536e+00
1.00321598e+00
1.00317774e+00
1.00312899e+00
1.00307272e+00
1.00301042e+00
1.00294048e+00
1.00286384e+00
1.00278296e+00
1.00269770e+00
1.00260787e+00
1.00251528e+00
1.00242094e+00
1.00232470e+00
1.00222737e+00
1.00213010e+00
1.00203322e+00
1.00193706e+00
1.00184238e+00
1.00174973e+00
1.00165939e+00
1.00157181e+00
1.00148747e+00
1.00140670e+00
1.00132982e+00
1.00125717e+00
1.00118907e+00
1.00112575e+00
1.00106747e+00
1.00101443e+00
1.00096679e+00
1.00092469e+00
1.00088819e+00
1.00085732e+00
1.00083205e+00
1.00081230e+00
1.00079795e+00
1.00078878e+00
1.00078458e+00
1.00078504e+00
1.00078984e+00
1.00079861e+00
1.00081097e+00
1.00082650e+00
1.00084479e+00
1.00086540e+00
1.00088793e+00
1.00091198e+00
1.00093717e+00
1.00096315e+00
1.00098962e+00
1.00101631e+00
1.00104300e+00
1.00106952e+00
1.00109574e+00
1.00112157e+00
1.00114697e+00
1.00117194e+00
1.00119650e+00
1.00122070e+00
1.00124461e+00
1.00126830e+00
1.00129181e+00
1.00131522e+00
1.00133852e+00
1.00136172e+00
1.00138476e+00
1.00140752e+00
1.00142984e+00
1.00145151e+00
1.00147225e+00
1.00149172e+00
1.00150953e+00
1.00152526e+00
1.00153847e+00
1.00154869e+00
1.00155545e+00
1.00155831e+00
1.00155686e+00
1.00155075e+00
1.00153969e+00
1.00152348e+00
1.00150200e+00
1.00147523e+00
1.00144322e+00
1.00140615e+00
1.00136423e+00
1.00131777e+00
1.00126713e+00
1.00121268e+00
1.00115484e+00
1.00109401e+00
1.00103058e+00
1.00096490e+00
1.00089730e+00
1.00082805e+00
1.00075734e+00
1.00068536e+00
1.00061222e+00
1.00053795e+00
1.00046259e+00
1.00038618e+00
1.00030866e+00
1.00022996e+00
1.00015018e+00
1.00006933e+00
9.99987297e-01
9.99904279e-01
9.99820643e-01
9.99736382e-01
9.99651641e-01
9.99567254e-01
9.99483732e-01
9.99401019e-01
9.99320051e-01
9.99242222e-01
9.99167583e-01
9.99096461e-01
9.99030846e-01
9.98971496e-01
9.98917908e-01
9.98871543e-01
9.98834283e-01
9.98805494e-01
9.98784444e-01
9.98772716e-01
1.00325144e+00
1.00324036e+00
1.00322054e+00
1.00319067e+00
1.00315245e+00
1.00310703e+00
1.00305311e+00
1.00299130e+00
1.00292367e+00
1.00285048e+00
1.00277134e+00
1.00268749e+00
1.00260043e+00
1.00251025e+00
1.00241719e+00
1.00232253e+00
1.00222709e+00
1.00213103e+00
1.00203494e+00
1.00193970e+00
1.00184575e+00
1.00175340e+00
1.00166323e+00
1.00157575e+00
1.00149129e+00
1.00141022e+00
1.00133296e+00
1.00125984e+00
1.00119114e+00
1.00112717e+00
1.00106818e+00
1.00101439e+00
1.00096597e+00
1.00092307e+00
1.00088577e+00
1.00085410e+00
1.00082806e+00
1.00080757e+00
1.00079251e+00
1.00078270e+00
1.00077790e+00
1.00077784e+00
1.00078219e+00
1.00079061e+00
1.00080269e+00
1.00081804e+00
1.00083623e+00
1.00085684e+00
1.00087945e+00
1.00090366e+00
1.00092908e+00
1.00095537e+00
1.00098220e+00
1.00100929e+00
1.00103641e+00
1.00106337e+00
1.00109001e+00
1.00111625e+00
1.00114202e+00
1.00116730e+00
1.00119209e+00
1.00121644e+00
1.00124040e+00
1.00126402e+00
1.00128736e+00
1.00131047e+00
1.00133336e+00
1.00135604e+00
1.00137844e+00
1.00140047e+00
1.00142199e+00
1.00144278e+00
1.00146261e+00
1.00148115e+00
1.00149804e+00
1.00151291e+00
1.00152532e+00
1.00153484e+00
1.00154105e+00
1.00154352e+00
1.00154189e+00
1.00153582e+00
1.00152505e+00
1.00150938e+00
1.00148870e+00
1.00146299e+00
1.00143230e+00
1.00139676e+00
1.00135657e+00
1.00131202e+00
1.00126340e+00
1.00121106e+00
1.00115537e+00
1.00109667e+00
1.00103533e+00
1.00097166e+00
1.00090593e+00
1.00083841e+00
1.00076928e+00
1.00069868e+00
1.00062672e+00
1.00055348e+00
1.00047896e+00
1.00040315e+00
1.00032612e+00
1.00024785e+00
1.00016825e+00
1.00008743e+00
1.00000557e+00
9.99922656e-01
9.99838770e-01
9.99754418e-01
9.99669978e-01
9.99585507e-01
9.99501576e-01
9.99419211e-01
9.99338808e-01
9.99260602e-01
9.99185819e-01
9.99115708e-01
9.99050428e-01
9.98990428e-01
9.98937354e-01
9.98892150e-01
9.98854340e-01
9.98824746e-01
9.98804577e-01
9.98793212e-01
1.00322065e+00
1.00320924e+00
1.00319079e+00
1.00316242e+00
1.00312535e+00
1.00308155e+00
1.00302988e+00
1.00297041e+00
1.00290505e+00
1.00283417e+00
1.00275746e+00
1.00267624e+00
1.00259156e+00
1.00250339e+00
1.00241242e+00
1.00231983e+00
1.00222598e+00
1.00213122e+00
1.00203642e+00
1.00194222e+00
1.00184891e+00
1.00175704e+00
1.00166722e+00
1.00157984e+00
1.00149526e+00
1.00141397e+00
1.00133634e+00
1.00126271e+00
1.00119340e+00
1.00112874e+00
1.00106900e+00
1.00101438e+00
1.00096511e+00
1.00092133e+00
1.00088313e+00
1.00085057e+00
1.00082366e+00
1.00080232e+00
1.00078646e+00
1.00077589e+00
1.00077041e+00
1.00076974e+00
1.00077357e+00
1.00078155e+00
1.00079330e+00
1.00080841e+00
1.00082647e+00
1.00084705e+00
1.00086973e+00
1.00089410e+00
1.00091977e+00
1.00094638e+00
1.00097360e+00
1.00100112e+00
1.00102871e+00
1.00105614e+00
1.00108326e+00
1.00110995e+00
1.00113612e+00
1.00116174e+00
1.00118679e+00
1.00121131e+00
1.00123532e+00
1.00125888e+00
1.00128204e+00
1.00130483e+00
1.00132728e+00
1.00134938e+00
1.00137110e+00
1.00139235e+00
1.00141299e+00
1.00143286e+00
1.00145170e+00
1.00146925e+00
1.00148517e+00
1.00149910e+00
1.00151066e+00
1.00151945e+00
1.00152508e+00
1.00152716e+00
1.00152535e+00
1.00151934e+00
1.00150889e+00
1.00149382e+00
1.00147403e+00
1.00144947e+00
1.00142020e+00
1.00138633e+00
1.00134804e+00
1.00130555e+00
1.00125913e+00
1.00120910e+00
1.00115575e+00
1.00109939e+00
1.00104035e+00
1.00097888e+00
1.00091525e+00
1.00084965e+00
1.00078228e+00
1.00071325e+00
1.00064265e+00
1.00057057e+00
1.00049704e+00
1.00042204e+00
1.00034559e+00
1.00026778e+00
1.00018856e+00
1.00010795e+00
1.00002617e+00
9.99943364e-01
9.99859579e-01
9.99775189e-01
9.99690729e-01
9.99606391e-01
9.99522583e-01
9.99440263e-01
9.99359993e-01
9.99282069e-01
9.99207631e-01
9.99137770e-01
9.99072608e-01
9.99012988e-01
9.98960481e-01
9.98915365e-01
9.98877452e-01
9.98848280e-01
9.98828616e-01
9.98816700e-01
1.00318746e+00
1.00317615e+00
1.00315663e+00
1.00313050e+00
1.00309620e+00
1.00305298e+00
1.00300304e+00
1.00294718e+00
1.00288424e+00
1.00281509e+00
1.00274148e+00
1.00266343e+00
1.00258076e+00
1.00249482e+00
1.00240660e+00
1.00231607e+00
1.00222374e+00
1.00213072e+00
1.00203748e+00
1.00194425e+00
1.00185174e+00
1.00176061e+00
1.00167121e+00
1.00158395e+00
1.00149938e+00
1.00141793e+00
1.00133994e+00
1.00126581e+00
1.00119591e+00
1.00113054e+00
1.00106999e+00
1.00101451e+00
1.00096432e+00
1.00091957e+00
1.00088040e+00
1.00084686e+00
1.00081897e+00
1.00079669e+00
1.00077992e+00
1.00076850e+00
1.00076223e+00
1.00076086e+00
1.00076408e+00
1.00077155e+00
1.00078289e+00
1.00079770e+00
1.00081558e+00
1.00083609e+00
1.00085881e+00
1.00088333e+00
1.00090924e+00
1.00093617e+00
1.00096378e+00
1.00099176e+00
1.00101983e+00
1.00104778e+00
1.00107540e+00
1.00110256e+00
1.00112917e+00
1.00115515e+00
1.00118049e+00
1.00120519e+00
1.00122927e+00
1.00125277e+00
1.00127573e+00
1.00129819e+00
1.00132018e+00
1.00134169e+00
1.00136269e+00
1.00138312e+00
1.00140285e+00
1.00142173e+00
1.00143955e+00
1.00145606e+00
1.00147096e+00
1.00148393e+00
1.00149462e+00
1.00150266e+00
1.00150769e+00
1.00150938e+00
1.00150740e+00
1.00150148e+00
1.00149139e+00
1.00147698e+00
1.00145813e+00
1.00143481e+00
1.00140706e+00
1.00137497e+00
1.00133868e+00
1.00129839e+00
1.00125433e+00
1.00120674e+00
1.00115590e+00
1.00110206e+00
1.00104548e+00
1.00098640e+00
1.00092504e+00
1.00086156e+00
1.00079611e+00
1.00072883e+00
1.00065979e+00
1.00058902e+00
1.00051660e+00
1.00044258e+00
1.00036690e+00
1.00028961e+00
1.00021087e+00
1.00013071e+00
1.00004910e+00
9.99966369e-01
9.99882894e-01
9.99798713e-01
9.99714110e-01
9.99629931e-01
9.99546652e-01
9.99464373e-01
9.99384001e-01
9.99306780e-01
9.99232948e-01
9.99162846e-01
9.99098040e-01
9.99039569e-01
9.98987107e-01
9.98941497e-01
9.98904573e-01
9.98876154e-01
9.98855331e-01
9.98843188e-01
1.00314898e+00
1.00313866e+00
1.00312054e+00
1.00309526e+00
1.00306242e+00
1.00302173e+00
1.00297425e+00
1.00292044e+00
1.00286018e+00
1.00279427e+00
1.00272345e+00
1.00264785e+00
1.00256807e+00
1.00248506e+00
1.00239913e+00
1.00231068e+00
1.00222060e+00
1.00212948e+00
1.00203762e+00
1.00194565e+00
1.00185430e+00
1.00176393e+00
1.00167498e+00
1.00158805e+00
1.00150361e+00
1.00142202e+00
1.00134373e+00
1.00126917e+00
1.00119869e+00
1.00113260e+00
1.00107123e+00
1.00101486e+00
1.00096369e+00
1.00091793e+00
1.00087770e+00
1.00084310e+00
1.00081414e+00
1.00079081e+00
1.00077303e+00
1.00076066e+00
1.00075351e+00
1.00075133e+00
1.00075383e+00
1.00076069e+00
1.00077154e+00
1.00078598e+00
1.00080361e+00
1.00082399e+00
1.00084671e+00
1.00087133e+00
1.00089746e+00
1.00092470e+00
1.00095271e+00
1.00098114e+00
1.00100971e+00
1.00103817e+00
1.00106632e+00
1.00109398e+00
1.00112104e+00
1.00114742e+00
1.00117306e+00
1.00119796e+00
1.00122212e+00
1.00124557e+00
1.00126834e+00
1.00129048e+00
1.00131199e+00
1.00133290e+00
1.00135317e+00
1.00137276e+00
1.00139156e+00
1.00140944e+00
1.00142622e+00
1.00144167e+00
1.00145554e+00
1.00146753e+00
1.00147733e+00
1.00148461e+00
1.00148906e+00
1.00149036e+00
1.00148824e+00
1.00148243e+00
1.00147275e+00
1.00145903e+00
1.00144119e+00
1.00141918e+00
1.00139302e+00
1.00136279e+00
1.00132861e+00
1.00129062e+00
1.00124902e+00
1.00120400e+00
1.00115579e+00
1.00110459e+00
1.00105063e+00
1.00099408e+00
1.00093513e+00
1.00087393e+00
1.00081058e+00
1.00074519e+00
1.00067785e+00
1.00060860e+00
1.00053745e+00
1.00046449e+00
1.00038976e+00
1.00031325e+00
1.00023505e+00
1.00015535e+00
1.00007424e+00
9.99991828e-01
9.99908507e-01
9.99824633e-01
9.99740439e-01
9.99656438e-01
9.99573316e-01
9.99491539e-01
9.99411697e-01
9.99334699e-01
9.99261212e-01
9.99191854e-01
9.99127621e-01
9.99069309e-01
9.99017292e-01
9.98972431e-01
9.98935709e-01
9.98907229e-01
9.98886914e-01
9.98874984e-01
1.00310705e+00
1.00309746e+00
1.00308142e+00
1.00305685e+00
1.00302506e+00
1.00298738e+00
1.00294255e+00
1.00289062e+00
1.00283338e+00
1.00277096e+00
1.00270278e+00
1.00262993e+00
1.00255350e+00
1.00247333e+00
1.00238974e+00
1.00230388e+00
1.00221624e+00
1.00212696e+00
1.00203675e+00
1.00194640e+00
1.00185625e+00
1.00176671e+00
1.00167847e+00
1.00159203e+00
1.00150776e+00
1.00142614e+00
1.00134767e+00
1.00127273e+00
1.00120168e+00
1.00113491e+00
1.00107274e+00
1.00101545e+00
1.00096329e+00
1.00091646e+00
1.00087512e+00
1.00083937e+00
1.00080927e+00
1.00078480e+00
1.00076591e+00
1.00075248e+00
1.00074433e+00
1.00074124e+00
1.00074293e+00
1.00074908e+00
1.00075934e+00
1.00077333e+00
1.00079062e+00
1.00081081e+00
1.00083346e+00
1.00085814e+00
1.00088445e+00
1.00091197e+00
1.00094035e+00
1.00096922e+00
1.00099829e+00
1.00102727e+00
1.00105595e+00
1.00108413e+00
1.00111166e+00
1.00113844e+00
1.00116440e+00
1.00118952e+00
1.00121377e+00
1.00123719e+00
1.00125978e+00
1.00128160e+00
1.00130265e+00
1.00132296e+00
1.00134250e+00
1.00136125e+00
1.00137912e+00
1.00139601e+00
1.00141174e+00
1.00142615e+00
1.00143899e+00
1.00145001e+00
1.00145894e+00
1.00146549e+00
1.00146937e+00
1.00147032e+00
1.00146808e+00
1.00146242e+00
1.00145318e+00
1.00144021e+00
1.00142342e+00
1.00140277e+00
1.00137827e+00
1.00134996e+00
1.00131794e+00
1.00128233e+00
1.00124326e+00
1.00120091e+00
1.00115542e+00
1.00110697e+00
1.00105573e+00
1.00100184e+00
1.00094543e+00
1.00088662e+00
1.00082552e+00
1.00076218e+00
1.00069667e+00
1.00062907e+00
1.00055940e+00
1.00048767e+00
1.00041399e+00
1.00033845e+00
1.00026104e+00
1.00018190e+00
1.00010137e+00
1.00001956e+00
9.99936605e-01
9.99853050e-01
9.99769448e-01
9.99685938e-01
9.99603048e-01
9.99521841e-01
9.99442804e-01
9.99366156e-01
9.99293071e-01
9.99224733e-01
9.99161168e-01
9.99102918e-01
9.99051661e-01
9.99007869e-01
9.98971029e-01
9.98942402e-01
9.98922990e-01
9.98911232e-01
1.00306265e+00
1.00305314e+00
1.00303755e+00
1.00301501e+00
1.00298553e+00
1.00294946e+00
1.00290692e+00
1.00285838e+00
1.00280414e+00
1.00274428e+00
1.00267939e+00
1.00261010e+00
1.00253655e+00
1.00245912e+00
1.00237863e+00
1.00229556e+00
1.00221012e+00
1.00212298e+00
1.00203489e+00
1.00194617e+00
1.00185727e+00
1.00176889e+00
1.00168156e+00
1.00159565e+00
1.00151169e+00
1.00143022e+00
1.00135165e+00
1.00127638e+00
1.00120485e+00
1.00113745e+00
1.00107449e+00
1.00101629e+00
1.00096311e+00
1.00091519e+00
1.00087269e+00
1.00083574e+00
1.00080442e+00
1.00077873e+00
1.00075864e+00
1.00074405e+00
1.00073481e+00
1.00073070e+00
1.00073147e+00
1.00073681e+00
1.00074638e+00
1.00075981e+00
1.00077668e+00
1.00079659e+00
1.00081910e+00
1.00084379e+00
1.00087021e+00
1.00089798e+00
1.00092669e+00
1.00095598e+00
1.00098552e+00
1.00101502e+00
1.00104422e+00
1.00107291e+00
1.00110092e+00
1.00112812e+00
1.00115442e+00
1.00117976e+00
1.00120413e+00
1.00122753e+00
1.00124997e+00
1.00127148e+00
1.00129209e+00
1.00131182e+00
1.00133066e+00
1.00134860e+00
1.00136556e+00
1.00138147e+00
1.00139620e+00
1.00140959e+00
1.00142143e+00
1.00143152e+00
1.00143962e+00
1.00144547e+00
1.00144884e+00
1.00144947e+00
1.00144716e+00
1.00144171e+00
1.00143295e+00
1.00142076e+00
1.00140507e+00
1.00138582e+00
1.00136302e+00
1.00133668e+00
1.00130687e+00
1.00127368e+00
1.00123720e+00
1.00119755e+00
1.00115485e+00
1.00110922e+00
1.00106077e+00
1.00100962e+00
1.00095585e+00
1.00089954e+00
1.00084078e+00
1.00077963e+00
1.00071611e+00
1.00065028e+00
1.00058222e+00
1.00051194e+00
1.00043948e+00
1.00036498e+00
1.00028858e+00
1.00021033e+00
1.00013045e+00
1.00004929e+00
9.99967124e-01
9.99884182e-01
9.99801015e-01
9.99718216e-01
9.99636189e-01
9.99555511e-01
9.99477012e-01
9.99401383e-01
9.99329211e-01
9.99261295e-01
9.99198465e-01
9.99141392e-01
9.99090695e-01
9.99047052e-01
9.99011001e-01
9.98983183e-01
9.98963669e-01
9.98951637e-01
1.00301451e+00
1.00300565e+00
1.00299054e+00
1.00296977e+00
1.00294254e+00
1.00290831e+00
1.00286834e+00
1.00282306e+00
1.00277168e+00
1.00271482e+00
1.00265349e+00
1.00258752e+00
1.00251695e+00
1.00244278e+00
1.00236549e+00
1.00228506e+00
1.00220216e+00
1.00211758e+00
1.00203159e+00
1.00194458e+00
1.00185730e+00
1.00177029e+00
1.00168390e+00
1.00159870e+00
1.00151527e+00
1.00143405e+00
1.00135546e+00
1.00128000e+00
1.00120809e+00
1.00114010e+00
1.00107639e+00
1.00101731e+00
1.00096314e+00
1.00091410e+00
1.00087042e+00
1.00083223e+00
1.00079962e+00
1.00077264e+00
1.00075127e+00
1.00073544e+00
1.00072500e+00
1.00071977e+00
1.00071951e+00
1.00072394e+00
1.00073272e+00
1.00074549e+00
1.00076186e+00
1.00078140e+00
1.00080369e+00
1.00082830e+00
1.00085479e+00
1.00088273e+00
1.00091173e+00
1.00094140e+00
1.00097139e+00
1.00100139e+00
1.00103110e+00
1.00106030e+00
1.00108878e+00
1.00111640e+00
1.00114304e+00
1.00116863e+00
1.00119313e+00
1.00121652e+00
1.00123883e+00
1.00126008e+00
1.00128028e+00
1.00129947e+00
1.00131764e+00
1.00133481e+00
1.00135091e+00
1.00136590e+00
1.00137967e+00
1.00139209e+00
1.00140300e+00
1.00141223e+00
1.00141955e+00
1.00142478e+00
1.00142768e+00
1.00142807e+00
1.00142575e+00
1.00142055e+00
1.00141233e+00
1.00140098e+00
1.00138642e+00
1.00136861e+00
1.00134753e+00
1.00132319e+00
1.00129561e+00
1.00126486e+00
1.00123100e+00
1.00119408e+00
1.00115419e+00
1.00111141e+00
1.00106580e+00
1.00101743e+00
1.00096636e+00
1.00091265e+00
1.00085632e+00
1.00079744e+00
1.00073605e+00
1.00067216e+00
1.00060581e+00
1.00053712e+00
1.00046612e+00
1.00039286e+00
1.00031756e+00
1.00024042e+00
1.00016152e+00
1.00008117e+00
9.99999862e-01
9.99917867e-01
9.99835473e-01
9.99753436e-01
9.99672411e-01
9.99592669e-01
9.99514939e-01
9.99440332e-01
9.99369279e-01
9.99302142e-01
9.99240172e-01
9.99184270e-01
9.99134316e-01
9.99091093e-01
9.99055922e-01
9.99028759e-01
9.99009130e-01
9.98997266e-01
1.00296230e+00
1.00295438e+00
1.00294098e+00
1.00292126e+00
1.00289557e+00
1.00286422e+00
1.00282711e+00
1.00278419e+00
1.00273597e+00
1.00268286e+00
1.00262473e+00
1.00256183e+00
1.00249489e+00
1.00242418e+00
1.00234978e+00
1.00227229e+00
1.00219239e+00
1.00211032e+00
1.00202646e+00
1.00194156e+00
1.00185612e+00
1.00177049e+00
1.00168525e+00
1.00160103e+00
1.00151826e+00
1.00143738e+00
1.00135894e+00
1.00128342e+00
1.00121120e+00
1.00114270e+00
1.00107833e+00
1.00101841e+00
1.00096325e+00
1.00091312e+00
1.00086824e+00
1.00082878e+00
1.00079486e+00
1.00076653e+00
1.00074381e+00
1.00072665e+00
1.00071493e+00
1.00070849e+00
1.00070711e+00
1.00071053e+00
1.00071842e+00
1.00073044e+00
1.00074619e+00
1.00076528e+00
1.00078727e+00
1.00081172e+00
1.00083819e+00
1.00086626e+00
1.00089549e+00
1.00092549e+00
1.00095589e+00
1.00098634e+00
1.00101654e+00
1.00104623e+00
1.00107518e+00
1.00110321e+00
1.00113020e+00
1.00115604e+00
1.00118069e+00
1.00120412e+00
1.00122633e+00
1.00124734e+00
1.00126718e+00
1.00128587e+00
1.00130344e+00
1.00131990e+00
1.00133522e+00
1.00134936e+00
1.00136225e+00
1.00137379e+00
1.00138385e+00
1.00139229e+00
1.00139894e+00
1.00140362e+00
1.00140615e+00
1.00140637e+00
1.00140411e+00
1.00139924e+00
1.00139161e+00
1.00138115e+00
1.00136778e+00
1.00135143e+00
1.00133210e+00
1.00130977e+00
1.00128443e+00
1.00125612e+00
1.00122486e+00
1.00119068e+00
1.00115360e+00
1.00111367e+00
1.00107092e+00
1.00102536e+00
1.00097702e+00
1.00092595e+00
1.00087214e+00
1.00081561e+00
1.00075641e+00
1.00069459e+00
1.00063014e+00
1.00056314e+00
1.00049373e+00
1.00042199e+00
1.00034799e+00
1.00027203e+00
1.00019438e+00
1.00011521e+00
1.00003487e+00
9.99953919e-01
9.99872778e-01
9.99791800e-01
9.99711684e-01
9.99633208e-01
9.99556840e-01
9.99483169e-01
9.99413143e-01
9.99347515e-01
9.99286699e-01
9.99231423e-01
9.99182572e-01
9.99140638e-01
9.99105875e-01
9.99078922e-01
9.99060193e-01
9.99048723e-01
1.00290735e+00
1.00289996e+00
1.00288782e+00
1.00286957e+00
1.00284577e+00
1.00281691e+00
1.00278240e+00
1.00274234e+00
1.00269748e+00
1.00264770e+00
1.00259282e+00
1.00253352e+00
1.00247018e+00
1.00240269e+00
1.00233151e+00
1.00225733e+00
1.00218033e+00
1.00210082e+00
1.00201950e+00
1.00193688e+00
1.00185327e+00
1.00176925e+00
1.00168546e+00
1.00160232e+00
1.00152030e+00
1.00143998e+00
1.00136187e+00
1.00128637e+00
1.00121395e+00
1.00114507e+00
1.00108011e+00
1.00101941e+00
1.00096331e+00
1.00091212e+00
1.00086605e+00
1.00082531e+00
1.00079005e+00
1.00076034e+00
1.00073622e+00
1.00071767e+00
1.00070461e+00
1.00069688e+00
1.00069429e+00
1.00069660e+00
1.00070352e+00
1.00071469e+00
1.00072974e+00
1.00074828e+00
1.00076988e+00
1.00079409e+00
1.00082048e+00
1.00084859e+00
1.00087799e+00
1.00090827e+00
1.00093902e+00
1.00096989e+00
1.00100054e+00
1.00103069e+00
1.00106009e+00
1.00108854e+00
1.00111587e+00
1.00114199e+00
1.00116681e+00
1.00119029e+00
1.00121244e+00