# vtk DataFile Version 2.0
LBM Flow Field - Timestep 1210
ASCII
DATASET STRUCTURED_POINTS
DIMENSIONS 128 128 1
ORIGIN 0.0 0.0 0.0
SPACING 1.0 1.0 1.0
POINT_DATA 16384
SCALARS density double 1
LOOKUP_TABLE default
9.99846433e-01
9.99838555e-01
9.99827146e-01
9.99863241e-01
9.99899987e-01
9.99926508e-01
9.99965248e-01
1.00001468e+00
1.00005772e+00
1.00009918e+00
1.00014139e+00
1.00017986e+00
1.00021110e+00
1.00023705e+00
1.00025634e+00
1.00026856e+00
1.00027367e+00
1.00027258e+00
1.00026571e+00
1.00025431e+00
1.00023919e+00
1.00022149e+00
1.00020207e+00
1.00018174e+00
1.00016074e+00
1.00013913e+00
1.00011647e+00
1.00009191e+00
1.00006414e+00
1.00003164e+00
9.99992612e-01
9.99945234e-01
9.99887831e-01
9.99819124e-01
9.99738314e-01
9.99645293e-01
9.99540782e-01
9.99426330e-01
9.99304254e-01
9.99177588e-01
9.99049911e-01
9.98925123e-01
9.98807230e-01
9.98700155e-01
9.98607524e-01
9.98532518e-01
9.98477766e-01
9.98445283e-01
9.98436447e-01
9.98452012e-01
9.98492141e-01
9.98556466e-01
9.98644143e-01
9.98753917e-01
9.98884182e-01
9.99033040e-01
9.99198354e-01
9.99377797e-01
9.99568898e-01
9.99769090e-01
9.99975749e-01
1.00018624e+00
1.00039795e+00
1.00060833e+00
1.00081493e+00
1.00101543e+00
1.00120762e+00
1.00138951e+00
1.00155926e+00
1.00171523e+00
1.00185602e+00
1.00198043e+00
1.00208752e+00
1.00217662e+00
1.00224735e+00
1.00229962e+00
1.00233370e+00
1.00235016e+00
1.00234992e+00
1.00233424e+00
1.00230465e+00
1.00226297e+00
1.00221120e+00
1.00215150e+00
1.00208606e+00
1.00201709e+00
1.00194669e+00
1.00187679e+00
1.00180911e+00
1.00174508e+00
1.00168584e+00
1.00163223e+00
1.00158475e+00
1.00154366e+00
1.00150898e+00
1.00148053e+00
1.00145796e+00
1.00144088e+00
1.00142880e+00
1.00142120e+00
1.00141753e+00
1.00141729e+00
1.00141989e+00
1.00142477e+00
1.00143132e+00
1.00143894e+00
1.00144694e+00
1.00145475e+00
1.00146162e+00
1.00146707e+00
1.00147051e+00
1.00147164e+00
1.00146979e+00
1.00146532e+00
1.00145795e+00
1.00144769e+00
1.00143427e+00
1.00142002e+00
1.00140380e+00
1.00138464e+00
1.00136540e+00
1.00135138e+00
1.00133288e+00
1.00131013e+00
1.00130196e+00
1.00130115e+00
1.00127406e+00
1.00125997e+00
9.99843466e-01
9.99854313e-01
9.99847769e-01
9.99873449e-01
9.99907471e-01
9.99939917e-01
9.99974728e-01
1.00001942e+00
1.00006181e+00
1.00010325e+00
1.00014209e+00
1.00017879e+00
1.00020912e+00
1.00023421e+00
1.00025228e+00
1.00026416e+00
1.00026908e+00
1.00026814e+00
1.00026146e+00
1.00025049e+00
1.00023579e+00
1.00021858e+00
1.00019950e+00
1.00017939e+00
1.00015840e+00
1.00013662e+00
1.00011355e+00
1.00008843e+00
1.00005999e+00
1.00002679e+00
9.99987135e-01
9.99939357e-01
9.99881880e-01
9.99813521e-01
9.99733562e-01
9.99641941e-01
9.99539342e-01
9.99427256e-01
9.99307907e-01
9.99184198e-01
9.99059548e-01
9.98937714e-01
9.98822573e-01
9.98717930e-01
9.98627324e-01
9.98553883e-01
9.98500207e-01
9.98468306e-01
9.98459568e-01
9.98474772e-01
9.98514115e-01
9.98577262e-01
9.98663408e-01
9.98771338e-01
9.98899489e-01
9.99046004e-01
9.99208792e-01
9.99385575e-01
9.99573935e-01
9.99771356e-01
9.99975270e-01
1.00018309e+00
1.00039226e+00
1.00060028e+00
1.00080472e+00
1.00100329e+00
1.00119382e+00
1.00137431e+00
1.00154294e+00
1.00169806e+00
1.00183827e+00
1.00196236e+00
1.00206938e+00
1.00215866e+00
1.00222980e+00
1.00228272e+00
1.00231767e+00
1.00233521e+00
1.00233626e+00
1.00232205e+00
1.00229410e+00
1.00225419e+00
1.00220429e+00
1.00214651e+00
1.00208300e+00
1.00201593e+00
1.00194734e+00
1.00187912e+00
1.00181293e+00
1.00175020e+00
1.00169203e+00
1.00163923e+00
1.00159232e+00
1.00155157e+00
1.00151699e+00
1.00148844e+00
1.00146560e+00
1.00144809e+00
1.00143544e+00
1.00142715e+00
1.00142269e+00
1.00142157e+00
1.00142317e+00
1.00142698e+00
1.00143234e+00
1.00143873e+00
1.00144539e+00
1.00145184e+00
1.00145728e+00
1.00146140e+00
1.00146339e+00
1.00146324e+00
1.00146015e+00
1.00145465e+00
1.00144594e+00
1.00143498e+00
1.00142094e+00
1.00140592e+00
1.00138815e+00
1.00136985e+00
1.00135079e+00
1.00133464e+00
1.00131437e+00
1.00129684e+00
1.00128782e+00
1.00127915e+00
1.00125486e+00
1.00125632e+00
9.99843120e-01
9.99858213e-01
9.99889213e-01
9.99897945e-01
9.99915424e-01
9.99957275e-01
9.99996213e-01
1.00002974e+00
1.00006982e+00
1.00011211e+00
1.00014820e+00
1.00018075e+00
1.00021000e+00
1.00023338e+00
1.00024997e+00
1.00026052e+00
1.00026476e+00
1.00026320e+00
1.00025645e+00
1.00024535e+00
1.00023077e+00
1.00021376e+00
1.00019496e+00
1.00017496e+00
1.00015409e+00
1.00013231e+00
1.00010912e+00
1.00008375e+00
1.00005507e+00
1.00002162e+00
9.99981818e-01
9.99934088e-01
9.99876984e-01
9.99809338e-01
9.99730504e-01
9.99640470e-01
9.99539890e-01
9.99430175e-01
9.99313491e-01
9.99192635e-01
9.99070895e-01
9.98951902e-01
9.98839429e-01
9.98737175e-01
9.98648594e-01
9.98576752e-01
9.98524208e-01
9.98492942e-01
9.98484332e-01
9.98499155e-01
9.98537617e-01
9.98599404e-01
9.98683736e-01
9.98789433e-01
9.98914977e-01
9.99058564e-01
9.99218168e-01
9.99391580e-01
9.99576461e-01
9.99770380e-01
9.99970851e-01
1.00017537e+00
1.00038147e+00
1.00058669e+00
1.00078869e+00
1.00098520e+00
1.00117410e+00
1.00135339e+00
1.00152124e+00
1.00167600e+00
1.00181623e+00
1.00194070e+00
1.00204843e+00
1.00213869e+00
1.00221106e+00
1.00226543e+00
1.00230199e+00
1.00232131e+00
1.00232426e+00
1.00231204e+00
1.00228616e+00
1.00224837e+00
1.00220061e+00
1.00214496e+00
1.00208356e+00
1.00201852e+00
1.00195185e+00
1.00188541e+00
1.00182083e+00
1.00175949e+00
1.00170247e+00
1.00165055e+00
1.00160427e+00
1.00156387e+00
1.00152934e+00
1.00150059e+00
1.00147731e+00
1.00145910e+00
1.00144553e+00
1.00143614e+00
1.00143041e+00
1.00142780e+00
1.00142780e+00
1.00142985e+00
1.00143333e+00
1.00143768e+00
1.00144225e+00
1.00144647e+00
1.00144973e+00
1.00145153e+00
1.00145129e+00
1.00144878e+00
1.00144375e+00
1.00143598e+00
1.00142518e+00
1.00141233e+00
1.00139729e+00
1.00137941e+00
1.00135999e+00
1.00134223e+00
1.00132231e+00
1.00129900e+00
1.00128224e+00
1.00127198e+00
1.00125036e+00
1.00122944e+00
1.00123577e+00
1.00124116e+00
9.99891335e-01
9.99894293e-01
9.99909685e-01
9.99926010e-01
9.99951141e-01
9.99981507e-01
1.00001479e+00
1.00004992e+00
1.00008754e+00
1.00012313e+00
1.00015656e+00
1.00018705e+00
1.00021313e+00
1.00023335e+00
1.00024814e+00
1.00025703e+00
1.00025999e+00
1.00025746e+00
1.00025024e+00
1.00023894e+00
1.00022446e+00
1.00020759e+00
1.00018906e+00
1.00016934e+00
1.00014868e+00
1.00012696e+00
1.00010374e+00
1.00007820e+00
1.00004923e+00
1.00001549e+00
9.99975465e-01
9.99927660e-01
9.99870739e-01
9.99803665e-01
9.99725859e-01
9.99637335e-01
9.99538779e-01
9.99431586e-01
9.99317835e-01
9.99200217e-01
9.99081907e-01
9.98966395e-01
9.98857299e-01
9.98758184e-01
9.98672385e-01
9.98602859e-01
9.98552079e-01
9.98521962e-01
9.98513844e-01
9.98528476e-01
9.98566060e-01
9.98626290e-01
9.98708417e-01
9.98811304e-01
9.98933493e-01
9.99073260e-01
9.99228669e-01
9.99397618e-01
9.99577883e-01
9.99767156e-01
9.99963077e-01
1.00016327e+00
1.00036535e+00
1.00056700e+00
1.00076594e+00
1.00095996e+00
1.00114698e+00
1.00132501e+00
1.00149224e+00
1.00164697e+00
1.00178772e+00
1.00191322e+00
1.00202242e+00
1.00211452e+00
1.00218905e+00
1.00224582e+00
1.00228498e+00
1.00230703e+00
1.00231280e+00
1.00230346e+00
1.00228047e+00
1.00224554e+00
1.00220059e+00
1.00214766e+00
1.00208885e+00
1.00202623e+00
1.00196180e+00
1.00189737e+00
1.00183454e+00
1.00177466e+00
1.00171878e+00
1.00166768e+00
1.00162186e+00
1.00158156e+00
1.00154682e+00
1.00151750e+00
1.00149333e+00
1.00147393e+00
1.00145891e+00
1.00144780e+00
1.00144010e+00
1.00143531e+00
1.00143294e+00
1.00143241e+00
1.00143318e+00
1.00143466e+00
1.00143629e+00
1.00143746e+00
1.00143763e+00
1.00143629e+00
1.00143305e+00
1.00142746e+00
1.00141941e+00
1.00140878e+00
1.00139558e+00
1.00137969e+00
1.00136203e+00
1.00134253e+00
1.00132142e+00
1.00129947e+00
1.00127867e+00
1.00125680e+00
1.00123634e+00
1.00121868e+00
1.00120366e+00
1.00118829e+00
1.00118088e+00
1.00117604e+00
9.99941840e-01
9.99942944e-01
9.99940724e-01
9.99964436e-01
9.99992979e-01
1.00001175e+00
1.00004029e+00
1.00007677e+00
1.00010879e+00
1.00013785e+00
1.00016850e+00
1.00019569e+00
1.00021727e+00
1.00023441e+00
1.00024680e+00
1.00025336e+00
1.00025464e+00
1.00025106e+00
1.00024309e+00
1.00023148e+00
1.00021702e+00
1.00020030e+00
1.00018202e+00
1.00016261e+00
1.00014214e+00
1.00012047e+00
1.00009715e+00
1.00007138e+00
1.00004205e+00
1.00000789e+00
9.99967550e-01
9.99919616e-01
9.99862868e-01
9.99796425e-01
9.99719802e-01
9.99633046e-01
9.99536870e-01
9.99432647e-01
9.99322360e-01
9.99208576e-01
9.99094329e-01
9.98982942e-01
9.98877860e-01
9.98782488e-01
9.98700014e-01
9.98633267e-01
9.98584615e-01
9.98555896e-01
9.98548389e-01
9.98562810e-01
9.98599348e-01
9.98657710e-01
9.98737174e-01
9.98836658e-01
9.98954779e-01
9.99089908e-01
9.99240224e-01
9.99403758e-01
9.99578429e-01
9.99762083e-01
9.99952513e-01
1.00014749e+00
1.00034478e+00
1.00054218e+00
1.00073751e+00
1.00092863e+00
1.00111352e+00
1.00129020e+00
1.00145683e+00
1.00161172e+00
1.00175332e+00
1.00188027e+00
1.00199147e+00
1.00208603e+00
1.00216339e+00
1.00222328e+00
1.00226579e+00
1.00229133e+00
1.00230069e+00
1.00229496e+00
1.00227558e+00
1.00224419e+00
1.00220269e+00
1.00215306e+00
1.00209737e+00
1.00203765e+00
1.00197585e+00
1.00191376e+00
1.00185292e+00
1.00179465e+00
1.00173999e+00
1.00168969e+00
1.00164423e+00
1.00160386e+00
1.00156863e+00
1.00153840e+00
1.00151292e+00
1.00149187e+00
1.00147485e+00
1.00146141e+00
1.00145110e+00
1.00144347e+00
1.00143800e+00
1.00143417e+00
1.00143147e+00
1.00142934e+00
1.00142724e+00
1.00142461e+00
1.00142095e+00
1.00141575e+00
1.00140875e+00
1.00139952e+00
1.00138779e+00
1.00137365e+00
1.00135741e+00
1.00133847e+00
1.00131729e+00
1.00129550e+00
1.00127286e+00
1.00124717e+00
1.00122305e+00
1.00120303e+00
1.00118043e+00
1.00115490e+00
1.00114238e+00
1.00113367e+00
1.00111373e+00
1.00110540e+00
9.99982755e-01
9.99989642e-01
9.99997232e-01
1.00001011e+00
1.00002684e+00
1.00005075e+00
1.00007827e+00
1.00010412e+00
1.00013044e+00
1.00015844e+00
1.00018387e+00
1.00020488e+00
1.00022281e+00
1.00023702e+00
1.00024592e+00
1.00024977e+00
1.00024919e+00
1.00024429e+00
1.00023543e+00
1.00022336e+00
1.00020875e+00
1.00019220e+00
1.00017420e+00
1.00015503e+00
1.00013479e+00
1.00011326e+00
1.00008990e+00
1.00006393e+00
1.00003432e+00
9.99999852e-01
9.99959236e-01
9.99911244e-01
9.99854786e-01
9.99789061e-01
9.99713704e-01
9.99628859e-01
9.99535241e-01
9.99434179e-01
9.99327601e-01
9.99217963e-01
9.99108128e-01
9.99001246e-01
9.98900587e-01
9.98809373e-01
9.98730618e-01
9.98667001e-01
9.98620766e-01
9.98593648e-01
9.98586851e-01
9.98601046e-01
9.98636402e-01
9.98692632e-01
9.98769050e-01
9.98864637e-01
9.98978097e-01
9.99107915e-01
9.99252405e-01
9.99409753e-01
9.99578048e-01
9.99755312e-01
9.99939517e-01
1.00012860e+00
1.00032050e+00
1.00051314e+00
1.00070445e+00
1.00089239e+00
1.00107496e+00
1.00125024e+00
1.00141636e+00
1.00157158e+00
1.00171430e+00
1.00184309e+00
1.00195673e+00
1.00205427e+00
1.00213503e+00
1.00219864e+00
1.00224511e+00
1.00227477e+00
1.00228832e+00
1.00228680e+00
1.00227157e+00
1.00224424e+00
1.00220664e+00
1.00216073e+00
1.00210850e+00
1.00205197e+00
1.00199303e+00
1.00193342e+00
1.00187466e+00
1.00181805e+00
1.00176457e+00
1.00171496e+00
1.00166972e+00
1.00162907e+00
1.00159306e+00
1.00156158e+00
1.00153443e+00
1.00151128e+00
1.00149175e+00
1.00147547e+00
1.00146202e+00
1.00145093e+00
1.00144175e+00
1.00143402e+00
1.00142725e+00
1.00142090e+00
1.00141447e+00
1.00140749e+00
1.00139950e+00
1.00139002e+00
1.00137871e+00
1.00136541e+00
1.00134991e+00
1.00133194e+00
1.00131181e+00
1.00129003e+00
1.00126617e+00
1.00124041e+00
1.00121479e+00
1.00118929e+00
1.00116220e+00
1.00113613e+00
1.00111420e+00
1.00109334e+00
1.00107254e+00
1.00105639e+00
1.00104363e+00
1.00103869e+00
1.00003751e+00
1.00004060e+00
1.00005225e+00
1.00005932e+00
1.00007138e+00
1.00009453e+00
1.00011524e+00
1.00013434e+00
1.00015789e+00
1.00018085e+00
1.00019921e+00
1.00021581e+00
1.00023020e+00
1.00023985e+00
1.00024504e+00
1.00024656e+00
1.00024392e+00
1.00023737e+00
1.00022763e+00
1.00021516e+00
1.00020044e+00
1.00018407e+00
1.00016637e+00
1.00014753e+00
1.00012755e+00
1.00010616e+00
1.00008275e+00
1.00005656e+00
1.00002662e+00
9.99991789e-01
9.99950872e-01
9.99902788e-01
9.99846607e-01
9.99781651e-01
9.99707660e-01
9.99624865e-01
9.99534002e-01
9.99436362e-01
9.99333798e-01
9.99228633e-01
9.99123563e-01
9.99021549e-01
9.98925663e-01
9.98838926e-01
9.98764167e-01
9.98703904e-01
9.98660239e-01
9.98634797e-01
9.98628699e-01
9.98642567e-01
9.98676548e-01
9.98730366e-01
9.98803376e-01
9.98894628e-01
9.99002928e-01
9.99126887e-01
9.99264973e-01
9.99415541e-01
9.99576867e-01
9.99747165e-01
9.99924601e-01
1.00010730e+00
1.00029337e+00
1.00048087e+00
1.00066786e+00
1.00085240e+00
1.00103253e+00
1.00120634e+00
1.00137196e+00
1.00152762e+00
1.00167163e+00
1.00180249e+00
1.00191889e+00
1.00201976e+00
1.00210432e+00
1.00217210e+00
1.00222299e+00
1.00225724e+00
1.00227547e+00
1.00227864e+00
1.00226803e+00
1.00224519e+00
1.00221190e+00
1.00217004e+00
1.00212158e+00
1.00206847e+00
1.00201256e+00
1.00195553e+00
1.00189889e+00
1.00184388e+00
1.00179147e+00
1.00174239e+00
1.00169711e+00
1.00165588e+00
1.00161875e+00
1.00158565e+00
1.00155639e+00
1.00153066e+00
1.00150817e+00
1.00148856e+00
1.00147143e+00
1.00145638e+00
1.00144301e+00
1.00143089e+00
1.00141954e+00
1.00140854e+00
1.00139741e+00
1.00138570e+00
1.00137301e+00
1.00135901e+00
1.00134328e+00
1.00132564e+00
1.00130614e+00
1.00128461e+00
1.00126076e+00
1.00123543e+00
1.00120919e+00
1.00118105e+00
1.00115171e+00
1.00112421e+00
1.00109706e+00
1.00106798e+00
1.00104243e+00
1.00102289e+00
1.00100053e+00
1.00098056e+00
1.00097071e+00
1.00096221e+00
1.00010268e+00
1.00010077e+00
1.00010223e+00
1.00011120e+00
1.00012478e+00
1.00013734e+00
1.00015141e+00
1.00017003e+00
1.00018767e+00
1.00020203e+00
1.00021605e+00
1.00022896e+00
1.00023776e+00
1.00024279e+00
1.00024505e+00
1.00024382e+00
1.00023883e+00
1.00023079e+00
1.00022017e+00
1.00020726e+00
1.00019250e+00
1.00017629e+00
1.00015892e+00
1.00014047e+00
1.00012079e+00
1.00009952e+00
1.00007611e+00
1.00004977e+00
1.00001951e+00
9.99984329e-01
9.99943178e-01
9.99895061e-01
9.99839189e-01
9.99775069e-01
9.99702543e-01
9.99621887e-01
9.99533880e-01
9.99439804e-01
9.99341409e-01
9.99240879e-01
9.99140753e-01
9.99043798e-01
9.98952866e-01
9.98870771e-01
9.98800153e-01
9.98743350e-01
9.98702313e-01
9.98678550e-01
9.98673096e-01
9.98686518e-01
9.98718943e-01
9.98770109e-01
9.98839419e-01
9.98926003e-01
9.99028775e-01
9.99146486e-01
9.99277765e-01
9.99421152e-01
9.99575119e-01
9.99738079e-01
9.99908401e-01
1.00008440e+00
1.00026436e+00
1.00044649e+00
1.00062897e+00
1.00080994e+00
1.00098752e+00
1.00115980e+00
1.00132491e+00
1.00148103e+00
1.00162640e+00
1.00175946e+00
1.00187877e+00
1.00198317e+00
1.00207176e+00
1.00214397e+00
1.00219959e+00
1.00223875e+00
1.00226199e+00
1.00227017e+00
1.00226451e+00
1.00224646e+00
1.00221774e+00
1.00218017e+00
1.00213566e+00
1.00208609e+00
1.00203326e+00
1.00197883e+00
1.00192424e+00
1.00187070e+00
1.00181919e+00
1.00177040e+00
1.00172481e+00
1.00168267e+00
1.00164408e+00
1.00160898e+00
1.00157719e+00
1.00154850e+00
1.00152263e+00
1.00149926e+00
1.00147805e+00
1.00145866e+00
1.00144073e+00
1.00142385e+00
1.00140764e+00
1.00139171e+00
1.00137566e+00
1.00135909e+00
1.00134161e+00
1.00132297e+00
1.00130295e+00
1.00128121e+00
1.00125766e+00
1.00123263e+00
1.00120602e+00
1.00117744e+00
1.00114794e+00
1.00111853e+00
1.00108796e+00
1.00105658e+00
1.00102765e+00
1.00100069e+00
1.00097276e+00
1.00094774e+00
1.00092794e+00
1.00091039e+00
1.00089429e+00
1.00088157e+00
1.00016198e+00
1.00016006e+00
1.00015898e+00
1.00016548e+00
1.00017397e+00
1.00018106e+00
1.00019252e+00
1.00020531e+00
1.00021503e+00
1.00022484e+00
1.00023482e+00
1.00024132e+00
1.00024482e+00
1.00024667e+00
1.00024561e+00
1.00024109e+00
1.00023411e+00
1.00022489e+00
1.00021337e+00
1.00020004e+00
1.00018535e+00
1.00016944e+00
1.00015246e+00
1.00013442e+00
1.00011506e+00
1.00009396e+00
1.00007054e+00
1.00004402e+00
1.00001347e+00
9.99977951e-01
9.99936558e-01
9.99888442e-01
9.99832959e-01
9.99769748e-01
9.99698773e-01
9.99620383e-01
9.99535379e-01
9.99445004e-01
9.99350916e-01
9.99255166e-01
9.99160115e-01
9.99068317e-01
9.98982413e-01
9.98905009e-01
9.98838538e-01
9.98785160e-01
9.98746678e-01
9.98724482e-01
9.98719521e-01
9.98732314e-01
9.98762974e-01
9.98811260e-01
9.98876628e-01
9.98958295e-01
9.99055292e-01
9.99166515e-01
9.99290762e-01
9.99426757e-01
9.99573169e-01
9.99728616e-01
9.99891663e-01
1.00006082e+00
1.00023452e+00
1.00041115e+00
1.00058900e+00
1.00076629e+00
1.00094120e+00
1.00111184e+00
1.00127633e+00
1.00143281e+00
1.00157948e+00
1.00171466e+00
1.00183686e+00
1.00194480e+00
1.00203747e+00
1.00211419e+00
1.00217464e+00
1.00221887e+00
1.00224729e+00
1.00226068e+00
1.00226015e+00
1.00224709e+00
1.00222312e+00
1.00218999e+00
1.00214953e+00
1.00210356e+00
1.00205383e+00
1.00200194e+00
1.00194930e+00
1.00189709e+00
1.00184625e+00
1.00179749e+00
1.00175129e+00
1.00170793e+00
1.00166753e+00
1.00163006e+00
1.00159541e+00
1.00156341e+00
1.00153383e+00
1.00150638e+00
1.00148081e+00
1.00145683e+00
1.00143410e+00
1.00141230e+00
1.00139112e+00
1.00137019e+00
1.00134917e+00
1.00132779e+00
1.00130572e+00
1.00128262e+00
1.00125841e+00
1.00123300e+00
1.00120607e+00
1.00117767e+00
1.00114840e+00
1.00111804e+00
1.00108624e+00
1.00105439e+00
1.00102341e+00
1.00099171e+00
1.00096027e+00
1.00093232e+00
1.00090573e+00
1.00087951e+00
1.00085813e+00
1.00084059e+00
1.00082370e+00
1.00081066e+00
1.00021910e+00
1.00021717e+00
1.00021756e+00
1.00021800e+00
1.00022022e+00
1.00022643e+00
1.00023311e+00
1.00023748e+00
1.00024272e+00
1.00024868e+00
1.00025185e+00
1.00025270e+00
1.00025276e+00
1.00025070e+00
1.00024573e+00
1.00023880e+00
1.00023018e+00
1.00021957e+00
1.00020732e+00
1.00019384e+00
1.00017928e+00
1.00016375e+00
1.00014727e+00
1.00012967e+00
1.00011069e+00
1.00008986e+00
1.00006647e+00
1.00003980e+00
1.00000902e+00
9.99973260e-01
9.99931686e-01
9.99883647e-01
9.99828652e-01
9.99766442e-01
9.99697096e-01
9.99621060e-01
9.99539136e-01
9.99452514e-01
9.99362776e-01
9.99271835e-01
9.99181853e-01
9.99095184e-01
9.99014259e-01
9.98941464e-01
9.98879029e-01
9.98828941e-01
9.98792858e-01
9.98772053e-01
9.98767399e-01
9.98779371e-01
9.98808078e-01
9.98853304e-01
9.98914567e-01
9.98991177e-01
9.99082286e-01
9.99186935e-01
9.99304089e-01
9.99432655e-01
9.99571493e-01
9.99719416e-01
9.99875180e-01
1.00003747e+00
1.00020490e+00
1.00037598e+00
1.00054911e+00
1.00072261e+00
1.00089470e+00
1.00106354e+00
1.00122722e+00
1.00138385e+00
1.00153160e+00
1.00166871e+00
1.00179360e+00
1.00190491e+00
1.00200152e+00
1.00208266e+00
1.00214789e+00
1.00219715e+00
1.00223077e+00
1.00224940e+00
1.00225408e+00
1.00224608e+00
1.00222692e+00
1.00219828e+00
1.00216190e+00
1.00211953e+00
1.00207285e+00
1.00202339e+00
1.00197255e+00
1.00192147e+00
1.00187108e+00
1.00182208e+00
1.00177500e+00
1.00173012e+00
1.00168761e+00
1.00164749e+00
1.00160972e+00
1.00157416e+00
1.00154063e+00
1.00150896e+00
1.00147890e+00
1.00145021e+00
1.00142265e+00
1.00139596e+00
1.00136985e+00
1.00134405e+00
1.00131830e+00
1.00129233e+00
1.00126594e+00
1.00123890e+00
1.00121097e+00
1.00118219e+00
1.00115261e+00
1.00112188e+00
1.00109016e+00
1.00105828e+00
1.00102604e+00
1.00099284e+00
1.00096030e+00
1.00092956e+00
1.00089878e+00
1.00086873e+00
1.00084237e+00
1.00081869e+00
1.00079583e+00
1.00077643e+00
1.00076155e+00
1.00074870e+00
1.00027685e+00
1.00027191e+00
1.00026982e+00
1.00026782e+00
1.00026754e+00
1.00026898e+00
1.00026890e+00
1.00026906e+00
1.00027038e+00
1.00026959e+00
1.00026693e+00
1.00026431e+00
1.00026022e+00
1.00025362e+00
1.00024583e+00
1.00023706e+00
1.00022661e+00
1.00021482e+00
1.00020224e+00
1.00018881e+00
1.00017451e+00
1.00015947e+00
1.00014359e+00
1.00012657e+00
1.00010804e+00
1.00008747e+00
1.00006420e+00
1.00003746e+00
1.00000651e+00
9.99970557e-01
9.99928927e-01
9.99881080e-01
9.99826670e-01
9.99765587e-01
9.99698009e-01
9.99624429e-01
9.99545661e-01
9.99462861e-01
9.99377503e-01
9.99291343e-01
9.99206367e-01
9.99124726e-01
9.99048630e-01
9.98980250e-01
9.98921632e-01
9.98874595e-01
9.98840654e-01
9.98820984e-01
9.98816393e-01
9.98827326e-01
9.98853894e-01
9.98895917e-01
9.98952983e-01
9.99024494e-01
9.99109723e-01
9.99207853e-01
9.99318007e-01
9.99439265e-01
9.99570665e-01
9.99711200e-01
9.99859802e-01
1.00001532e+00
1.00017652e+00
1.00034204e+00
1.00051039e+00
1.00067996e+00
1.00084904e+00
1.00101581e+00
1.00117837e+00
1.00133481e+00
1.00148326e+00
1.00162192e+00
1.00174913e+00
1.00186344e+00
1.00196367e+00
1.00204893e+00
1.00211871e+00
1.00217283e+00
1.00221150e+00
1.00223530e+00
1.00224513e+00
1.00224216e+00
1.00222782e+00
1.00220366e+00
1.00217135e+00
1.00213254e+00
1.00208883e+00
1.00204173e+00
1.00199254e+00
1.00194241e+00
1.00189227e+00
1.00184283e+00
1.00179462e+00
1.00174800e+00
1.00170316e+00
1.00166020e+00
1.00161913e+00
1.00157988e+00
1.00154235e+00
1.00150641e+00
1.00147188e+00
1.00143858e+00
1.00140634e+00
1.00137494e+00
1.00134414e+00
1.00131379e+00
1.00128369e+00
1.00125358e+00
1.00122331e+00
1.00119285e+00
1.00116198e+00
1.00113049e+00
1.00109863e+00
1.00106651e+00
1.00103374e+00
1.00100057e+00
1.00096796e+00
1.00093560e+00
1.00090298e+00
1.00087179e+00
1.00084262e+00
1.00081410e+00
1.00078734e+00
1.00076422e+00
1.00074283e+00
1.00072425e+00
1.00070948e+00
1.00069545e+00
1.00032999e+00
1.00032343e+00
1.00031779e+00
1.00031413e+00
1.00031094e+00
1.00030651e+00
1.00030225e+00
1.00029893e+00
1.00029400e+00
1.00028760e+00
1.00028148e+00
1.00027445e+00
1.00026557e+00
1.00025605e+00
1.00024613e+00
1.00023505e+00
1.00022313e+00
1.00021087e+00
1.00019811e+00
1.00018478e+00
1.00017101e+00
1.00015666e+00
1.00014149e+00
1.00012517e+00
1.00010721e+00
1.00008701e+00
1.00006395e+00
1.00003728e+00
1.00000627e+00
9.99970262e-01
9.99928727e-01
9.99881225e-01
9.99827545e-01
9.99767727e-01
9.99702035e-01
9.99630997e-01
9.99555440e-01
9.99476471e-01
9.99395448e-01
9.99313975e-01
9.99233865e-01
9.99157058e-01
9.99085549e-01
9.99021316e-01
9.98966222e-01
9.98921925e-01
9.98889823e-01
9.98871005e-01
9.98866225e-01
9.98875913e-01
9.98900194e-01
9.98938935e-01
9.98991793e-01
9.99058265e-01
9.99137739e-01
9.99229530e-01
9.99332907e-01
9.99447104e-01
9.99571318e-01
9.99704702e-01
9.99846344e-01
9.99995243e-01
1.00015029e+00
1.00031024e+00
1.00047372e+00
1.00063919e+00
1.00080499e+00
1.00096934e+00
1.00113036e+00
1.00128614e+00
1.00143477e+00
1.00157444e+00
1.00170342e+00
1.00182022e+00
1.00192357e+00
1.00201253e+00
1.00208646e+00
1.00214512e+00
1.00218859e+00
1.00221736e+00
1.00223219e+00
1.00223415e+00
1.00222454e+00
1.00220482e+00
1.00217652e+00
1.00214121e+00
1.00210042e+00
1.00205557e+00
1.00200794e+00
1.00195864e+00
1.00190860e+00
1.00185856e+00
1.00180907e+00
1.00176055e+00
1.00171327e+00
1.00166739e+00
1.00162298e+00
1.00158007e+00
1.00153862e+00
1.00149853e+00
1.00145972e+00
1.00142208e+00
1.00138545e+00
1.00134970e+00
1.00131468e+00
1.00128025e+00
1.00124628e+00
1.00121264e+00
1.00117921e+00
1.00114587e+00
1.00111268e+00
1.00107951e+00
1.00104619e+00
1.00101302e+00
1.00098022e+00
1.00094732e+00
1.00091461e+00
1.00088315e+00
1.00085250e+00
1.00082215e+00
1.00079371e+00
1.00076772e+00
1.00074270e+00
1.00071990e+00
1.00070020e+00
1.00068333e+00
1.00066843e+00
1.00065457e+00
1.00037548e+00
1.00036837e+00
1.00036175e+00
1.00035516e+00
1.00034787e+00
1.00034005e+00
1.00033248e+00
1.00032376e+00
1.00031360e+00
1.00030377e+00
1.00029349e+00
1.00028165e+00
1.00026963e+00
1.00025787e+00
1.00024542e+00
1.00023255e+00
1.00021998e+00
1.00020742e+00
1.00019461e+00
1.00018174e+00
1.00016875e+00
1.00015526e+00
1.00014096e+00
1.00012545e+00
1.00010818e+00
1.00008852e+00
1.00006579e+00
1.00003931e+00
1.00000842e+00
9.99972553e-01
9.99931268e-01
9.99884295e-01
9.99831554e-01
9.99773173e-01
9.99709500e-01
9.99641120e-01
9.99568845e-01
9.99493704e-01
9.99416953e-01
9.99340050e-01
9.99264616e-01
9.99192388e-01
9.99125169e-01
9.99064748e-01
9.99012815e-01
9.98970893e-01
9.98940281e-01
9.98921999e-01
9.98916767e-01
9.98925015e-01
9.98946896e-01
9.98982329e-01
9.99031042e-01
9.99092625e-01
9.99166571e-01
9.99252310e-01
9.99349238e-01
9.99456720e-01
9.99574089e-01
9.99700632e-01
9.99835568e-01
9.99978024e-01
1.00012701e+00
1.00028138e+00
1.00043985e+00
1.00060097e+00
1.00076314e+00
1.00092461e+00
1.00108354e+00
1.00123804e+00
1.00138621e+00
1.00152619e+00
1.00165626e+00
1.00177488e+00
1.00188072e+00
1.00197278e+00
1.00205036e+00
1.00211310e+00
1.00216101e+00
1.00219444e+00
1.00221406e+00
1.00222080e+00
1.00221582e+00
1.00220046e+00
1.00217614e+00
1.00214431e+00
1.00210640e+00
1.00206377e+00
1.00201766e+00
1.00196914e+00
1.00191915e+00
1.00186845e+00
1.00181765e+00
1.00176722e+00
1.00171751e+00
1.00166875e+00
1.00162112e+00
1.00157470e+00
1.00152952e+00
1.00148558e+00
1.00144285e+00
1.00140126e+00
1.00136071e+00
1.00132113e+00
1.00128245e+00
1.00124454e+00
1.00120734e+00
1.00117082e+00
1.00113495e+00
1.00109957e+00
1.00106470e+00
1.00103051e+00
1.00099683e+00
1.00096348e+00
1.00093089e+00
1.00089925e+00
1.00086805e+00
1.00083764e+00
1.00080889e+00
1.00078137e+00
1.00075477e+00
1.00073035e+00
1.00070803e+00
1.00068753e+00
1.00066917e+00
1.00065351e+00
1.00064015e+00
1.00062750e+00
1.00041474e+00
1.00040680e+00
1.00039886e+00
1.00038947e+00
1.00037928e+00
1.00036869e+00
1.00035675e+00
1.00034349e+00
1.00033015e+00
1.00031638e+00
1.00030149e+00
1.00028663e+00
1.00027231e+00
1.00025778e+00
1.00024338e+00
1.00022981e+00
1.00021673e+00
1.00020390e+00
1.00019156e+00
1.00017954e+00
1.00016744e+00
1.00015500e+00
1.00014180e+00
1.00012729e+00
1.00011088e+00
1.00009193e+00
1.00006972e+00
1.00004362e+00
1.00001306e+00
9.99977544e-01
9.99936738e-01
9.99890518e-01
9.99838917e-01
9.99782152e-01
9.99720650e-01
9.99655028e-01
9.99586066e-01
9.99514728e-01
9.99442158e-01
9.99369657e-01
9.99298660e-01
9.99230721e-01
9.99167456e-01
9.99110471e-01
9.99061310e-01
9.99021385e-01
9.98991911e-01
9.98973858e-01
9.98967937e-01
9.98974592e-01
9.98994014e-01
9.99026178e-01
9.99070887e-01
9.99127813e-01
9.99196539e-01
9.99276594e-01
9.99367475e-01
9.99468652e-01
9.99579564e-01
9.99699607e-01
9.99828106e-01
9.99964290e-01
1.00010727e+00
1.00025600e+00
1.00040927e+00
1.00056572e+00
1.00072381e+00
1.00088186e+00
1.00103807e+00
1.00119058e+00
1.00133751e+00
1.00147702e+00
1.00160737e+00
1.00172702e+00
1.00183461e+00
1.00192909e+00
1.00200969e+00
1.00207598e+00
1.00212788e+00
1.00216563e+00
1.00218975e+00
1.00220107e+00
1.00220061e+00
1.00218955e+00
1.00216918e+00
1.00214084e+00
1.00210586e+00
1.00206550e+00
1.00202094e+00
1.00197326e+00
1.00192338e+00
1.00187208e+00
1.00182005e+00
1.00176782e+00
1.00171582e+00
1.00166438e+00
1.00161376e+00
1.00156412e+00
1.00151557e+00
1.00146821e+00
1.00142202e+00
1.00137700e+00
1.00133312e+00
1.00129035e+00
1.00124863e+00
1.00120794e+00
1.00116828e+00
1.00112960e+00
1.00109193e+00
1.00105533e+00
1.00101970e+00
1.00098505e+00
1.00095159e+00
1.00091919e+00
1.00088764e+00
1.00085736e+00
1.00082851e+00
1.00080057e+00
1.00077385e+00
1.00074911e+00
1.00072574e+00
1.00070371e+00
1.00068379e+00
1.00066607e+00
1.00064982e+00
1.00063577e+00
1.00062409e+00
1.00061263e+00
1.00044662e+00
1.00043757e+00
1.00042819e+00
1.00041710e+00
1.00040460e+00
1.00039066e+00
1.00037505e+00
1.00035879e+00
1.00034204e+00
1.00032423e+00
1.00030633e+00
1.00028917e+00
1.00027219e+00
1.00025563e+00
1.00024036e+00
1.00022616e+00
1.00021273e+00
1.00020028e+00
1.00018878e+00
1.00017772e+00
1.00016680e+00
1.00015565e+00
1.00014374e+00
1.00013044e+00
1.00011509e+00
1.00009701e+00
1.00007555e+00
1.00005009e+00
1.00002007e+00
9.99985144e-01
9.99945097e-01
9.99899880e-01
9.99849635e-01
9.99794693e-01
9.99735531e-01
9.99672765e-01
9.99607153e-01
9.99539590e-01
9.99471093e-01
9.99402803e-01
9.99335990e-01
9.99272029e-01
9.99212349e-01
9.99158407e-01
9.99111623e-01
9.99073311e-01
9.99044625e-01
9.99026515e-01
9.99019698e-01
9.99024646e-01
9.99041599e-01
9.99070595e-01
9.99111503e-01
9.99164068e-01
9.99227946e-01
9.99302743e-01
9.99388029e-01
9.99483347e-01
9.99588217e-01
9.99702109e-01
9.99824432e-01
9.99954497e-01
1.00009150e+00
1.00023447e+00
1.00038230e+00
1.00053370e+00
1.00068720e+00
1.00084120e+00
1.00099396e+00
1.00114368e+00
1.00128851e+00
1.00142666e+00
1.00155642e+00
1.00167623e+00
1.00178475e+00
1.00188088e+00
1.00196381e+00
1.00203306e+00
1.00208845e+00
1.00213011e+00
1.00215846e+00
1.00217416e+00
1.00217809e+00
1.00217129e+00
1.00215491e+00
1.00213014e+00
1.00209819e+00
1.00206025e+00
1.00201742e+00
1.00197075e+00
1.00192116e+00
1.00186948e+00
1.00181644e+00
1.00176265e+00
1.00170863e+00
1.00165482e+00
1.00160156e+00
1.00154912e+00
1.00149769e+00
1.00144740e+00
1.00139832e+00
1.00135050e+00
1.00130395e+00
1.00125867e+00
1.00121464e+00
1.00117190e+00
1.00113049e+00
1.00109042e+00
1.00105171e+00
1.00101450e+00
1.00097883e+00
1.00094458e+00
1.00091185e+00
1.00088083e+00
1.00085130e+00
1.00082308e+00
1.00079655e+00
1.00077175e+00
1.00074818e+00
1.00072616e+00
1.00070602e+00
1.00068744e+00
1.00067031e+00
1.00065504e+00
1.00064145e+00
1.00062965e+00
1.00061948e+00
1.00060925e+00
1.00047023e+00
1.00046073e+00
1.00045013e+00
1.00043743e+00
1.00042259e+00
1.00040588e+00
1.00038780e+00
1.00036865e+00
1.00034840e+00
1.00032789e+00
1.00030788e+00
1.00028815e+00
1.00026914e+00
1.00025169e+00
1.00023572e+00
1.00022099e+00
1.00020789e+00
1.00019630e+00
1.00018572e+00
1.00017589e+00
1.00016649e+00
1.00015688e+00
1.00014644e+00
1.00013455e+00
1.00012050e+00
1.00010355e+00
1.00008308e+00
1.00005848e+00
1.00002929e+00
9.99995239e-01
9.99956205e-01
9.99912242e-01
9.99863597e-01
9.99810676e-01
9.99753992e-01
9.99694167e-01
9.99631930e-01
9.99568084e-01
9.99503522e-01
9.99439241e-01
9.99376347e-01
9.99316034e-01
9.99259578e-01
9.99208301e-01
9.99163515e-01
9.99126458e-01
9.99098253e-01
9.99079848e-01
9.99071981e-01
9.99075166e-01
9.99089703e-01
9.99115690e-01
9.99153058e-01
9.99201609e-01
9.99261057e-01
9.99331053e-01
9.99411213e-01
9.99501129e-01
9.99600364e-01
9.99708440e-01
9.99824821e-01
9.99948882e-01
1.00007989e+00
1.00021695e+00
1.00035904e+00