# vtk DataFile Version 2.0
LBM Flow Field - Timestep 4700
ASCII
DATASET STRUCTURED_POINTS
DIMENSIONS 128 128 1
ORIGIN 0.0 0.0 0.0
SPACING 1.0 1.0 1.0
POINT_DATA 16384
SCALARS density double 1
LOOKUP_TABLE default
9.97896820e-01
9.97908459e-01
9.97924201e-01
9.97931382e-01
9.97945160e-01
9.97965106e-01
9.97986861e-01
9.98010885e-01
9.98039246e-01
9.98070876e-01
9.98105475e-01
9.98143323e-01
9.98184353e-01
9.98228425e-01
9.98275577e-01
9.98325641e-01
9.98378514e-01
9.98434260e-01
9.98492743e-01
9.98553802e-01
9.98617415e-01
9.98683549e-01
9.98752030e-01
9.98822765e-01
9.98895705e-01
9.98970742e-01
9.99047732e-01
9.99126597e-01
9.99207240e-01
9.99289538e-01
9.99373373e-01
9.99458654e-01
9.99545267e-01
9.99633099e-01
9.99722048e-01
9.99812018e-01
9.99902908e-01
9.99994623e-01
1.00008708e+00
1.00018020e+00
1.00027391e+00
1.00036814e+00
1.00046284e+00
1.00055796e+00
1.00065345e+00
1.00074929e+00
1.00084545e+00
1.00094192e+00
1.00103868e+00
1.00113573e+00
1.00123306e+00
1.00133069e+00
1.00142862e+00
1.00152685e+00
1.00162538e+00
1.00172423e+00
1.00182338e+00
1.00192282e+00
1.00202254e+00
1.00212251e+00
1.00222270e+00
1.00232306e+00
1.00242352e+00
1.00252403e+00
1.00262449e+00
1.00272480e+00
1.00282487e+00
1.00292457e+00
1.00302377e+00
1.00312232e+00
1.00322009e+00
1.00331690e+00
1.00341261e+00
1.00350705e+00
1.00360004e+00
1.00369141e+00
1.00378100e+00
1.00386864e+00
1.00395416e+00
1.00403740e+00
1.00411820e+00
1.00419642e+00
1.00427192e+00
1.00434456e+00
1.00441421e+00
1.00448076e+00
1.00454411e+00
1.00460415e+00
1.00466081e+00
1.00471401e+00
1.00476368e+00
1.00480979e+00
1.00485228e+00
1.00489114e+00
1.00492635e+00
1.00495792e+00
1.00498588e+00
1.00501026e+00
1.00503110e+00
1.00504849e+00
1.00506251e+00
1.00507326e+00
1.00508088e+00
1.00508552e+00
1.00508732e+00
1.00508648e+00
1.00508319e+00
1.00507766e+00
1.00507013e+00
1.00506084e+00
1.00505002e+00
1.00503792e+00
1.00502494e+00
1.00501116e+00
1.00499685e+00
1.00498249e+00
1.00496841e+00
1.00495424e+00
1.00494073e+00
1.00492867e+00
1.00491751e+00
1.00490629e+00
1.00489799e+00
1.00489252e+00
1.00488596e+00
1.00487932e+00
1.00488338e+00
1.00488721e+00
9.97911398e-01
9.97916585e-01
9.97931498e-01
9.97941470e-01
9.97955593e-01
9.97973948e-01
9.97996050e-01
9.98020503e-01
9.98048547e-01
9.98079844e-01
9.98114420e-01
9.98152099e-01
9.98192883e-01
9.98236732e-01
9.98283629e-01
9.98333455e-01
9.98386091e-01
9.98441563e-01
9.98499763e-01
9.98560589e-01
9.98623943e-01
9.98689801e-01
9.98758026e-01
9.98828528e-01
9.98901211e-01
9.98975997e-01
9.99052754e-01
9.99131390e-01
9.99211795e-01
9.99293868e-01
9.99377486e-01
9.99462550e-01
9.99548947e-01
9.99636574e-01
9.99725320e-01
9.99815090e-01
9.99905783e-01
9.99997309e-01
1.00008958e+00
1.00018252e+00
1.00027605e+00
1.00037011e+00
1.00046463e+00
1.00055959e+00
1.00065492e+00
1.00075060e+00
1.00084661e+00
1.00094293e+00
1.00103954e+00
1.00113645e+00
1.00123365e+00
1.00133114e+00
1.00142894e+00
1.00152704e+00
1.00162544e+00
1.00172416e+00
1.00182318e+00
1.00192249e+00
1.00202209e+00
1.00212193e+00
1.00222198e+00
1.00232220e+00
1.00242253e+00
1.00252289e+00
1.00262321e+00
1.00272338e+00
1.00282329e+00
1.00292283e+00
1.00302187e+00
1.00312027e+00
1.00321787e+00
1.00331452e+00
1.00341007e+00
1.00350434e+00
1.00359716e+00
1.00368837e+00
1.00377780e+00
1.00386528e+00
1.00395064e+00
1.00403372e+00
1.00411438e+00
1.00419246e+00
1.00426781e+00
1.00434032e+00
1.00440984e+00
1.00447628e+00
1.00453951e+00
1.00459945e+00
1.00465601e+00
1.00470912e+00
1.00475872e+00
1.00480475e+00
1.00484719e+00
1.00488600e+00
1.00492118e+00
1.00495273e+00
1.00498068e+00
1.00500506e+00
1.00502592e+00
1.00504334e+00
1.00505740e+00
1.00506821e+00
1.00507591e+00
1.00508063e+00
1.00508253e+00
1.00508179e+00
1.00507863e+00
1.00507323e+00
1.00506585e+00
1.00505669e+00
1.00504604e+00
1.00503412e+00
1.00502127e+00
1.00500762e+00
1.00499359e+00
1.00497937e+00
1.00496532e+00
1.00495135e+00
1.00493828e+00
1.00492601e+00
1.00491475e+00
1.00490413e+00
1.00489623e+00
1.00488940e+00
1.00488345e+00
1.00487855e+00
1.00488121e+00
1.00488087e+00
9.97932983e-01
9.97936992e-01
9.97939940e-01
9.97953922e-01
9.97970881e-01
9.97987230e-01
9.98008272e-01
9.98033553e-01
9.98061390e-01
9.98092223e-01
9.98126558e-01
9.98163965e-01
9.98204474e-01
9.98248049e-01
9.98294532e-01
9.98343974e-01
9.98396354e-01
9.98451451e-01
9.98509223e-01
9.98569710e-01
9.98632753e-01
9.98698210e-01
9.98766065e-01
9.98836245e-01
9.98908590e-01
9.98983012e-01
9.99059444e-01
9.99137765e-01
9.99217845e-01
9.99299595e-01
9.99382914e-01
9.99467677e-01
9.99553774e-01
9.99641109e-01
9.99729573e-01
9.99819060e-01
9.99909476e-01
1.00000073e+00
1.00009274e+00
1.00018541e+00
1.00027868e+00
1.00037249e+00
1.00046677e+00
1.00056148e+00
1.00065657e+00
1.00075203e+00
1.00084781e+00
1.00094391e+00
1.00104031e+00
1.00113701e+00
1.00123401e+00
1.00133131e+00
1.00142892e+00
1.00152684e+00
1.00162508e+00
1.00172363e+00
1.00182249e+00
1.00192165e+00
1.00202110e+00
1.00212080e+00
1.00222072e+00
1.00232080e+00
1.00242100e+00
1.00252123e+00
1.00262142e+00
1.00272147e+00
1.00282126e+00
1.00292068e+00
1.00301960e+00
1.00311788e+00
1.00321536e+00
1.00331189e+00
1.00340732e+00
1.00350147e+00
1.00359417e+00
1.00368526e+00
1.00377457e+00
1.00386192e+00
1.00394716e+00
1.00403013e+00
1.00411066e+00
1.00418861e+00
1.00426385e+00
1.00433623e+00
1.00440563e+00
1.00447194e+00
1.00453506e+00
1.00459488e+00
1.00465133e+00
1.00470432e+00
1.00475381e+00
1.00479974e+00
1.00484207e+00
1.00488079e+00
1.00491588e+00
1.00494735e+00
1.00497522e+00
1.00499953e+00
1.00502033e+00
1.00503770e+00
1.00505172e+00
1.00506251e+00
1.00507018e+00
1.00507489e+00
1.00507679e+00
1.00507607e+00
1.00507292e+00
1.00506755e+00
1.00506019e+00
1.00505108e+00
1.00504049e+00
1.00502864e+00
1.00501577e+00
1.00500223e+00
1.00498836e+00
1.00497411e+00
1.00495990e+00
1.00494640e+00
1.00493347e+00
1.00492059e+00
1.00490932e+00
1.00490030e+00
1.00489129e+00
1.00488245e+00
1.00487892e+00
1.00487749e+00
1.00487202e+00
1.00487090e+00
9.97946389e-01
9.97951885e-01
9.97959484e-01
9.97972133e-01
9.97986137e-01
9.98003544e-01
9.98025069e-01
9.98049514e-01
9.98076917e-01
9.98107731e-01
9.98141764e-01
9.98178769e-01
9.98218895e-01
9.98262087e-01
9.98308230e-01
9.98357254e-01
9.98409159e-01
9.98463840e-01
9.98521228e-01
9.98581242e-01
9.98643822e-01
9.98708869e-01
9.98776300e-01
9.98846017e-01
9.98917935e-01
9.98991948e-01
9.99067954e-01
9.99145847e-01
9.99225525e-01
9.99306875e-01
9.99389789e-01
9.99474156e-01
9.99559871e-01
9.99646822e-01
9.99734907e-01
9.99824024e-01
9.99914076e-01
1.00000497e+00
1.00009662e+00
1.00018895e+00
1.00028188e+00
1.00037535e+00
1.00046931e+00
1.00056370e+00
1.00065849e+00
1.00075364e+00
1.00084913e+00
1.00094495e+00
1.00104108e+00
1.00113752e+00
1.00123427e+00
1.00133133e+00
1.00142872e+00
1.00152642e+00
1.00162445e+00
1.00172281e+00
1.00182149e+00
1.00192048e+00
1.00201976e+00
1.00211930e+00
1.00221907e+00
1.00231902e+00
1.00241908e+00
1.00251919e+00
1.00261925e+00
1.00271918e+00
1.00281886e+00
1.00291817e+00
1.00301698e+00
1.00311515e+00
1.00321253e+00
1.00330896e+00
1.00340428e+00
1.00349832e+00
1.00359092e+00
1.00368191e+00
1.00377111e+00
1.00385835e+00
1.00394348e+00
1.00402633e+00
1.00410674e+00
1.00418458e+00
1.00425969e+00
1.00433194e+00
1.00440121e+00
1.00446739e+00
1.00453037e+00
1.00459005e+00
1.00464636e+00
1.00469921e+00
1.00474855e+00
1.00479433e+00
1.00483652e+00
1.00487509e+00
1.00491004e+00
1.00494137e+00
1.00496911e+00
1.00499329e+00
1.00501397e+00
1.00503123e+00
1.00504514e+00
1.00505583e+00
1.00506342e+00
1.00506804e+00
1.00506988e+00
1.00506910e+00
1.00506590e+00
1.00506049e+00
1.00505311e+00
1.00504398e+00
1.00503335e+00
1.00502151e+00
1.00500868e+00
1.00499514e+00
1.00498116e+00
1.00496704e+00
1.00495297e+00
1.00493925e+00
1.00492615e+00
1.00491390e+00
1.00490251e+00
1.00489256e+00
1.00488403e+00
1.00487680e+00
1.00487118e+00
1.00486820e+00
1.00486558e+00
1.00486642e+00
9.97966717e-01
9.97972761e-01
9.97982372e-01
9.97991802e-01
9.98005018e-01
9.98024088e-01
9.98045070e-01
9.98068434e-01
9.98095808e-01
9.98126453e-01
9.98159927e-01
9.98196559e-01
9.98236278e-01
9.98278948e-01
9.98324654e-01
9.98373226e-01
9.98424564e-01
9.98478734e-01
9.98535650e-01
9.98595122e-01
9.98657146e-01
9.98721693e-01
9.98788609e-01
9.98857783e-01
9.98929181e-01
9.99002694e-01
9.99078185e-01
9.99155566e-01
9.99234751e-01
9.99315611e-01
9.99398032e-01
9.99481918e-01
9.99567161e-01
9.99653642e-01
9.99741262e-01
9.99829924e-01
9.99919528e-01
1.00000998e+00
1.00010119e+00
1.00019309e+00
1.00028561e+00
1.00037867e+00
1.00047222e+00
1.00056622e+00
1.00066063e+00
1.00075541e+00
1.00085055e+00
1.00094603e+00
1.00104183e+00
1.00113796e+00
1.00123441e+00
1.00133119e+00
1.00142830e+00
1.00152575e+00
1.00162355e+00
1.00172168e+00
1.00182015e+00
1.00191894e+00
1.00201804e+00
1.00211741e+00
1.00221702e+00
1.00231682e+00
1.00241675e+00
1.00251672e+00
1.00261667e+00
1.00271648e+00
1.00281605e+00
1.00291526e+00
1.00301397e+00
1.00311204e+00
1.00320932e+00
1.00330565e+00
1.00340088e+00
1.00349483e+00
1.00358733e+00
1.00367821e+00
1.00376731e+00
1.00385445e+00
1.00393947e+00
1.00402220e+00
1.00410249e+00
1.00418020e+00
1.00425517e+00
1.00432729e+00
1.00439641e+00
1.00446243e+00
1.00452525e+00
1.00458476e+00
1.00464089e+00
1.00469357e+00
1.00474272e+00
1.00478832e+00
1.00483032e+00
1.00486870e+00
1.00490345e+00
1.00493460e+00
1.00496215e+00
1.00498615e+00
1.00500665e+00
1.00502373e+00
1.00503749e+00
1.00504802e+00
1.00505546e+00
1.00505996e+00
1.00506167e+00
1.00506077e+00
1.00505747e+00
1.00505197e+00
1.00504451e+00
1.00503533e+00
1.00502463e+00
1.00501271e+00
1.00499989e+00
1.00498632e+00
1.00497222e+00
1.00495812e+00
1.00494421e+00
1.00493028e+00
1.00491694e+00
1.00490513e+00
1.00489392e+00
1.00488296e+00
1.00487452e+00
1.00486883e+00
1.00486217e+00
1.00485715e+00
1.00485741e+00
1.00485844e+00
9.97992862e-01
9.97996958e-01
9.98004759e-01
9.98015480e-01
9.98030078e-01
9.98047305e-01
9.98067184e-01
9.98091080e-01
9.98118256e-01
9.98148091e-01
9.98181058e-01
9.98217322e-01
9.98256565e-01
9.98298691e-01
9.98343772e-01
9.98391776e-01
9.98442599e-01
9.98496154e-01
9.98552401e-01
9.98611298e-01
9.98672744e-01
9.98736639e-01
9.98802922e-01
9.98871517e-01
9.98942306e-01
9.99015190e-01
9.99090087e-01
9.99166888e-01
9.99245475e-01
9.99325747e-01
9.99407600e-01
9.99490919e-01
9.99575592e-01
9.99661520e-01
9.99748595e-01
9.99836715e-01
9.99925783e-01
1.00001571e+00
1.00010641e+00
1.00019780e+00
1.00028982e+00
1.00038239e+00
1.00047547e+00
1.00056901e+00
1.00066297e+00
1.00075732e+00
1.00085204e+00
1.00094711e+00
1.00104253e+00
1.00113829e+00
1.00123439e+00
1.00133084e+00
1.00142764e+00
1.00152479e+00
1.00162231e+00
1.00172019e+00
1.00181842e+00
1.00191699e+00
1.00201588e+00
1.00211507e+00
1.00221451e+00
1.00231415e+00
1.00241393e+00
1.00251378e+00
1.00261360e+00
1.00271330e+00
1.00281276e+00
1.00291187e+00
1.00301049e+00
1.00310847e+00
1.00320566e+00
1.00330191e+00
1.00339705e+00
1.00349091e+00
1.00358333e+00
1.00367412e+00
1.00376312e+00
1.00385016e+00
1.00393507e+00
1.00401768e+00
1.00409785e+00
1.00417543e+00
1.00425026e+00
1.00432222e+00
1.00439118e+00
1.00445703e+00
1.00451966e+00
1.00457898e+00
1.00463491e+00
1.00468737e+00
1.00473631e+00
1.00478168e+00
1.00482345e+00
1.00486159e+00
1.00489611e+00
1.00492702e+00
1.00495433e+00
1.00497809e+00
1.00499836e+00
1.00501522e+00
1.00502876e+00
1.00503908e+00
1.00504632e+00
1.00505063e+00
1.00505216e+00
1.00505110e+00
1.00504765e+00
1.00504201e+00
1.00503441e+00
1.00502510e+00
1.00501433e+00
1.00500231e+00
1.00498933e+00
1.00497572e+00
1.00496168e+00
1.00494737e+00
1.00493323e+00
1.00491960e+00
1.00490636e+00
1.00489376e+00
1.00488260e+00
1.00487276e+00
1.00486367e+00
1.00485627e+00
1.00485113e+00
1.00484751e+00
1.00484583e+00
1.00484557e+00
9.98021587e-01
9.98025919e-01
9.98032093e-01
9.98042986e-01
9.98057036e-01
9.98073230e-01
9.98093459e-01
9.98117148e-01
9.98143277e-01
9.98172661e-01
9.98205402e-01
9.98240993e-01
9.98279542e-01
9.98321150e-01
9.98365605e-01
9.98412911e-01
9.98463085e-01
9.98515969e-01
9.98571507e-01
9.98629714e-01
9.98690468e-01
9.98753648e-01
9.98819228e-01
9.98887131e-01
9.98957218e-01
9.99029404e-01
9.99103617e-01
9.99179736e-01
9.99257642e-01
9.99337245e-01
9.99418437e-01
9.99501099e-01
9.99585124e-01
9.99670411e-01
9.99756855e-01
9.99844349e-01
9.99932802e-01
1.00002212e+00
1.00011223e+00
1.00020303e+00
1.00029448e+00
1.00038649e+00
1.00047902e+00
1.00057203e+00
1.00066547e+00
1.00075932e+00
1.00085356e+00
1.00094817e+00
1.00104314e+00
1.00113848e+00
1.00123418e+00
1.00133025e+00
1.00142670e+00
1.00152352e+00
1.00162073e+00
1.00171832e+00
1.00181628e+00
1.00191461e+00
1.00201328e+00
1.00211226e+00
1.00221151e+00
1.00231098e+00
1.00241061e+00
1.00251032e+00
1.00261001e+00
1.00270960e+00
1.00280896e+00
1.00290797e+00
1.00300649e+00
1.00310439e+00
1.00320150e+00
1.00329767e+00
1.00339273e+00
1.00348651e+00
1.00357884e+00
1.00366955e+00
1.00375845e+00
1.00384539e+00
1.00393019e+00
1.00401269e+00
1.00409273e+00
1.00417016e+00
1.00424484e+00
1.00431664e+00
1.00438542e+00
1.00445108e+00
1.00451350e+00
1.00457260e+00
1.00462830e+00
1.00468052e+00
1.00472920e+00
1.00477431e+00
1.00481580e+00
1.00485367e+00
1.00488790e+00
1.00491852e+00
1.00494555e+00
1.00496902e+00
1.00498902e+00
1.00500560e+00
1.00501886e+00
1.00502893e+00
1.00503591e+00
1.00503998e+00
1.00504128e+00
1.00504001e+00
1.00503634e+00
1.00503052e+00
1.00502275e+00
1.00501326e+00
1.00500233e+00
1.00499021e+00
1.00497709e+00
1.00496330e+00
1.00494922e+00
1.00493487e+00
1.00492049e+00
1.00490673e+00
1.00489369e+00
1.00488094e+00
1.00486932e+00
1.00485972e+00
1.00485090e+00
1.00484280e+00
1.00483783e+00
1.00483466e+00
1.00483176e+00
1.00483186e+00
9.98052038e-01
9.98056214e-01
9.98063494e-01
9.98073582e-01
9.98086451e-01
9.98103009e-01
9.98123029e-01
9.98145584e-01
9.98171258e-01
9.98200399e-01
9.98232456e-01
9.98267330e-01
9.98305250e-01
9.98346174e-01
9.98389959e-01
9.98436541e-01
9.98485907e-01
9.98538045e-01
9.98592869e-01
9.98650264e-01
9.98710198e-01
9.98772630e-01
9.98837440e-01
9.98904523e-01
9.98973827e-01
9.99045259e-01
9.99118691e-01
9.99194029e-01
9.99271184e-01
9.99350039e-01
9.99430476e-01
9.99512398e-01
9.99595698e-01
9.99680263e-01
9.99765988e-01
9.99852781e-01
9.99940541e-01
1.00002918e+00
1.00011861e+00
1.00020876e+00
1.00029955e+00
1.00039093e+00
1.00048285e+00
1.00057525e+00
1.00066811e+00
1.00076140e+00
1.00085509e+00
1.00094918e+00
1.00104366e+00
1.00113852e+00
1.00123378e+00
1.00132942e+00
1.00142547e+00
1.00152192e+00
1.00161879e+00
1.00171605e+00
1.00181372e+00
1.00191178e+00
1.00201020e+00
1.00210896e+00
1.00220801e+00
1.00230730e+00
1.00240676e+00
1.00250632e+00
1.00260589e+00
1.00270535e+00
1.00280460e+00
1.00290352e+00
1.00300195e+00
1.00309976e+00
1.00319680e+00
1.00329289e+00
1.00338787e+00
1.00348158e+00
1.00357383e+00
1.00366444e+00
1.00375326e+00
1.00384009e+00
1.00392478e+00
1.00400716e+00
1.00408706e+00
1.00416435e+00
1.00423887e+00
1.00431048e+00
1.00437907e+00
1.00444451e+00
1.00450671e+00
1.00456557e+00
1.00462101e+00
1.00467295e+00
1.00472135e+00
1.00476615e+00
1.00480734e+00
1.00484489e+00
1.00487880e+00
1.00490909e+00
1.00493579e+00
1.00495893e+00
1.00497859e+00
1.00499485e+00
1.00500780e+00
1.00501755e+00
1.00502424e+00
1.00502801e+00
1.00502904e+00
1.00502750e+00
1.00502359e+00
1.00501753e+00
1.00500955e+00
1.00499986e+00
1.00498870e+00
1.00497639e+00
1.00496318e+00
1.00494921e+00
1.00493483e+00
1.00492048e+00
1.00490618e+00
1.00489200e+00
1.00487862e+00
1.00486637e+00
1.00485475e+00
1.00484410e+00
1.00483552e+00
1.00482847e+00
1.00482243e+00
1.00481836e+00
1.00481685e+00
1.00481739e+00
9.98086821e-01
9.98090714e-01
9.98097316e-01
9.98106647e-01
9.98119487e-01
9.98135856e-01
9.98154818e-01
9.98176878e-01
9.98202443e-01
9.98230780e-01
9.98261931e-01
9.98296293e-01
9.98333591e-01
9.98373649e-01
9.98416627e-01
9.98462459e-01
9.98511010e-01
9.98562293e-01
9.98616264e-01
9.98672807e-01
9.98731887e-01
9.98793451e-01
9.98857385e-01
9.98923607e-01
9.98992056e-01
9.99062624e-01
9.99135198e-01
9.99209693e-01
9.99286010e-01
9.99364027e-01
9.99443639e-01
9.99524746e-01
9.99607237e-01
9.99691000e-01
9.99775938e-01
9.99861951e-01
9.99948942e-01
1.00003682e+00
1.00012551e+00
1.00021492e+00
1.00030500e+00
1.00039569e+00
1.00048692e+00
1.00057866e+00
1.00067088e+00
1.00076354e+00
1.00085664e+00
1.00095015e+00
1.00104408e+00
1.00113842e+00
1.00123318e+00
1.00132836e+00
1.00142397e+00
1.00152001e+00
1.00161649e+00
1.00171341e+00
1.00181075e+00
1.00190851e+00
1.00200666e+00
1.00210518e+00
1.00220401e+00
1.00230310e+00
1.00240238e+00
1.00250178e+00
1.00260120e+00
1.00270054e+00
1.00279968e+00
1.00289849e+00
1.00299683e+00
1.00309455e+00
1.00319150e+00
1.00328752e+00
1.00338242e+00
1.00347604e+00
1.00356821e+00
1.00365873e+00
1.00374745e+00
1.00383418e+00
1.00391875e+00
1.00400099e+00
1.00408075e+00
1.00415787e+00
1.00423221e+00
1.00430363e+00
1.00437201e+00
1.00443722e+00
1.00449917e+00
1.00455775e+00
1.00461290e+00
1.00466454e+00
1.00471262e+00
1.00475709e+00
1.00479793e+00
1.00483512e+00
1.00486867e+00
1.00489859e+00
1.00492491e+00
1.00494768e+00
1.00496697e+00
1.00498286e+00
1.00499545e+00
1.00500485e+00
1.00501119e+00
1.00501464e+00
1.00501534e+00
1.00501350e+00
1.00500931e+00
1.00500296e+00
1.00499470e+00
1.00498479e+00
1.00497343e+00
1.00496086e+00
1.00494743e+00
1.00493338e+00
1.00491881e+00
1.00490414e+00
1.00488978e+00
1.00487565e+00
1.00486194e+00
1.00484939e+00
1.00483797e+00
1.00482729e+00
1.00481824e+00
1.00481124e+00
1.00480527e+00
1.00480101e+00
1.00479947e+00
1.00479967e+00
9.98124090e-01
9.98127293e-01
9.98133536e-01
9.98142914e-01
9.98155467e-01
9.98170914e-01
9.98189379e-01
9.98211196e-01
9.98235954e-01
9.98263488e-01
9.98294098e-01
9.98327712e-01
9.98364149e-01
9.98403431e-01
9.98445558e-01
9.98490496e-01
9.98538196e-01
9.98588567e-01
9.98641575e-01
9.98697215e-01
9.98755384e-01
9.98815975e-01
9.98878959e-01
9.98944269e-01
9.99011776e-01
9.99081389e-01
9.99153044e-01
9.99226628e-01
9.99302018e-01
9.99379123e-01
9.99457844e-01
9.99538060e-01
9.99619663e-01
9.99702557e-01
9.99786636e-01
9.99871797e-01
9.99957948e-01
1.00004500e+00
1.00013288e+00
1.00022150e+00
1.00031079e+00
1.00040071e+00
1.00049120e+00
1.00058222e+00
1.00067374e+00
1.00076572e+00
1.00085816e+00
1.00095105e+00
1.00104438e+00
1.00113815e+00
1.00123237e+00
1.00132704e+00
1.00142217e+00
1.00151777e+00
1.00161384e+00
1.00171037e+00
1.00180736e+00
1.00190480e+00
1.00200266e+00
1.00210090e+00
1.00219949e+00
1.00229836e+00
1.00239746e+00
1.00249668e+00
1.00259595e+00
1.00269515e+00
1.00279416e+00
1.00289286e+00
1.00299110e+00
1.00308873e+00
1.00318559e+00
1.00328152e+00
1.00337634e+00
1.00346987e+00
1.00356194e+00
1.00365238e+00
1.00374099e+00
1.00382760e+00
1.00391204e+00
1.00399414e+00
1.00407375e+00
1.00415069e+00
1.00422484e+00
1.00429604e+00
1.00436419e+00
1.00442914e+00
1.00449082e+00
1.00454911e+00
1.00460394e+00
1.00465525e+00
1.00470298e+00
1.00474709e+00
1.00478754e+00
1.00482435e+00
1.00485749e+00
1.00488701e+00
1.00491292e+00
1.00493528e+00
1.00495416e+00
1.00496964e+00
1.00498183e+00
1.00499084e+00
1.00499680e+00
1.00499988e+00
1.00500023e+00
1.00499804e+00
1.00499352e+00
1.00498688e+00
1.00497832e+00
1.00496811e+00
1.00495652e+00
1.00494373e+00
1.00493000e+00
1.00491570e+00
1.00490108e+00
1.00488619e+00
1.00487143e+00
1.00485730e+00
1.00484370e+00
1.00483063e+00
1.00481891e+00
1.00480872e+00
1.00479945e+00
1.00479164e+00
1.00478605e+00
1.00478227e+00
1.00477999e+00
1.00477980e+00
9.98163911e-01
9.98167023e-01
9.98172744e-01
9.98181648e-01
9.98193566e-01
9.98208508e-01
9.98226728e-01
9.98247829e-01
9.98271657e-01
9.98298651e-01
9.98328637e-01
9.98361297e-01
9.98396841e-01
9.98435337e-01
9.98476573e-01
9.98520531e-01
9.98567262e-01
9.98616679e-01
9.98668716e-01
9.98723343e-01
9.98780489e-01
9.98840084e-01
9.98902069e-01
9.98966354e-01
9.99032844e-01
9.99101466e-01
9.99172124e-01
9.99244704e-01
9.99319110e-01
9.99395244e-01
9.99472993e-01
9.99552246e-01
9.99632903e-01
9.99714859e-01
9.99798008e-01
9.99882253e-01
9.99967502e-01
1.00005367e+00
1.00014067e+00
1.00022843e+00
1.00031689e+00
1.00040598e+00
1.00049567e+00
1.00058591e+00
1.00067667e+00
1.00076793e+00
1.00085967e+00
1.00095188e+00
1.00104457e+00
1.00113773e+00
1.00123136e+00
1.00132549e+00
1.00142010e+00
1.00151522e+00
1.00161084e+00
1.00170696e+00
1.00180357e+00
1.00190065e+00
1.00199819e+00
1.00209614e+00
1.00219447e+00
1.00229311e+00
1.00239198e+00
1.00249102e+00
1.00259011e+00
1.00268916e+00
1.00278804e+00
1.00288661e+00
1.00298473e+00
1.00308226e+00
1.00317902e+00
1.00327485e+00
1.00336957e+00
1.00346300e+00
1.00355497e+00
1.00364530e+00
1.00373379e+00
1.00382027e+00
1.00390457e+00
1.00398651e+00
1.00406594e+00
1.00414270e+00
1.00421663e+00
1.00428760e+00
1.00435548e+00
1.00442016e+00
1.00448154e+00
1.00453951e+00
1.00459400e+00
1.00464494e+00
1.00469229e+00
1.00473600e+00
1.00477604e+00
1.00481242e+00
1.00484513e+00
1.00487420e+00
1.00489967e+00
1.00492158e+00
1.00494002e+00
1.00495506e+00
1.00496681e+00
1.00497539e+00
1.00498094e+00
1.00498361e+00
1.00498358e+00
1.00498103e+00
1.00497614e+00
1.00496916e+00
1.00496031e+00
1.00494978e+00
1.00493786e+00
1.00492486e+00
1.00491092e+00
1.00489630e+00
1.00488142e+00
1.00486648e+00
1.00485153e+00
1.00483700e+00
1.00482332e+00
1.00481035e+00
1.00479829e+00
1.00478775e+00
1.00477863e+00
1.00477084e+00
1.00476495e+00
1.00476091e+00
1.00475861e+00
1.00475865e+00
9.98205862e-01
9.98208556e-01
9.98214130e-01
9.98222631e-01
9.98234098e-01
9.98248606e-01
9.98266106e-01
9.98286473e-01
9.98309782e-01
9.98336020e-01
9.98365047e-01
9.98396919e-01
9.98431640e-01
9.98469133e-01
9.98509398e-01
9.98552405e-01
9.98598095e-01
9.98646471e-01
9.98697483e-01
9.98751032e-01
9.98807095e-01
9.98865639e-01
9.98926548e-01
9.98989736e-01
9.99055161e-01
9.99122726e-01
9.99192308e-01
9.99263825e-01
9.99337191e-01
9.99412284e-01
9.99488993e-01
9.99567226e-01
9.99646875e-01
9.99727827e-01
9.99809985e-01
9.99893257e-01
9.99977545e-01
1.00006276e+00
1.00014883e+00
1.00023568e+00
1.00032324e+00
1.00041146e+00
1.00050030e+00
1.00058971e+00
1.00067967e+00
1.00077015e+00
1.00086114e+00
1.00095263e+00
1.00104463e+00
1.00113714e+00
1.00123016e+00
1.00132369e+00
1.00141776e+00
1.00151236e+00
1.00160750e+00
1.00170317e+00
1.00179937e+00
1.00189608e+00
1.00199327e+00
1.00209091e+00
1.00218895e+00
1.00228733e+00
1.00238597e+00
1.00248480e+00
1.00258370e+00
1.00268258e+00
1.00278130e+00
1.00287973e+00
1.00297772e+00
1.00307512e+00
1.00317177e+00
1.00326748e+00
1.00336209e+00
1.00345541e+00
1.00354727e+00
1.00363746e+00
1.00372582e+00
1.00381216e+00
1.00389630e+00
1.00397807e+00
1.00405730e+00
1.00413384e+00
1.00420754e+00
1.00427826e+00
1.00434586e+00
1.00441024e+00
1.00447129e+00
1.00452892e+00
1.00458304e+00
1.00463359e+00
1.00468053e+00
1.00472381e+00
1.00476342e+00
1.00479934e+00
1.00483159e+00
1.00486018e+00
1.00488517e+00
1.00490661e+00
1.00492457e+00
1.00493914e+00
1.00495043e+00
1.00495856e+00
1.00496366e+00
1.00496591e+00
1.00496546e+00
1.00496251e+00
1.00495726e+00
1.00494990e+00
1.00494070e+00
1.00492988e+00
1.00491765e+00
1.00490430e+00
1.00489014e+00
1.00487533e+00
1.00486010e+00
1.00484490e+00
1.00482992e+00
1.00481516e+00
1.00480107e+00
1.00478811e+00
1.00477608e+00
1.00476509e+00
1.00475582e+00
1.00474825e+00
1.00474205e+00
1.00473771e+00
1.00473574e+00
1.00473572e+00
9.98250131e-01
9.98252572e-01
9.98257653e-01
9.98265628e-01
9.98276686e-01
9.98290699e-01
9.98307473e-01
9.98327190e-01
9.98349865e-01
9.98375227e-01
9.98403356e-01
9.98434405e-01
9.98468198e-01
9.98504665e-01
9.98543908e-01
9.98585890e-01
9.98630523e-01
9.98677794e-01
9.98727680e-01
9.98780126e-01
9.98835079e-01
9.98892471e-01
9.98952232e-01
9.99014305e-01
9.99078602e-01
9.99145020e-01
9.99213481e-01
9.99283894e-01
9.99356146e-01
9.99430132e-01
9.99505757e-01
9.99582914e-01
9.99661489e-01
9.99741385e-01
9.99822503e-01
9.99904744e-01
9.99988014e-01
1.00007223e+00
1.00015732e+00
1.00024320e+00
1.00032982e+00
1.00041712e+00
1.00050506e+00
1.00059359e+00
1.00068270e+00
1.00077236e+00
1.00086257e+00
1.00095331e+00
1.00104458e+00
1.00113640e+00
1.00122876e+00
1.00132168e+00
1.00141516e+00
1.00150921e+00
1.00160384e+00
1.00169904e+00
1.00179480e+00
1.00189110e+00
1.00198792e+00
1.00208522e+00
1.00218294e+00
1.00228104e+00
1.00237942e+00
1.00247801e+00
1.00257670e+00
1.00267538e+00
1.00277393e+00
1.00287219e+00
1.00297004e+00
1.00306729e+00
1.00316380e+00
1.00325938e+00
1.00335386e+00
1.00344705e+00
1.00353876e+00
1.00362881e+00
1.00371701e+00
1.00380318e+00
1.00388714e+00
1.00396871e+00
1.00404773e+00
1.00412403e+00
1.00419747e+00
1.00426791e+00
1.00433521e+00
1.00439926e+00
1.00445996e+00
1.00451721e+00
1.00457093e+00
1.00462106e+00
1.00466756e+00
1.00471039e+00
1.00474952e+00
1.00478496e+00
1.00481671e+00
1.00484481e+00
1.00486929e+00
1.00489022e+00
1.00490768e+00
1.00492175e+00
1.00493255e+00
1.00494020e+00
1.00494484e+00
1.00494664e+00
1.00494575e+00
1.00494238e+00
1.00493674e+00
1.00492902e+00
1.00491943e+00
1.00490828e+00
1.00489577e+00
1.00488210e+00
1.00486760e+00
1.00485258e+00
1.00483718e+00
1.00482163e+00
1.00480638e+00
1.00479160e+00
1.00477733e+00
1.00476397e+00
1.00475187e+00
1.00474094e+00
1.00473139e+00
1.00472355e+00
1.00471742e+00
1.00471310e+00
1.00471082e+00
1.00471060e+00
9.98296051e-01
9.98298067e-01
9.98302966e-01
9.98310600e-01
9.98321072e-01
9.98334474e-01
9.98350716e-01
9.98369738e-01
9.98391528e-01
9.98416105e-01
9.98443445e-01
9.98473485e-01
9.98506253e-01
9.98541763e-01
9.98579945e-01
9.98620796e-01
9.98664327e-01
9.98710467e-01
9.98759181e-01
9.98810465e-01
9.98864243e-01
9.98920435e-01
9.98979015e-01
9.99039910e-01
9.99103010e-01
9.99168242e-01
9.99235537e-01
9.99304780e-01
9.99375863e-01
9.99448701e-01
9.99523190e-01
9.99599212e-01
9.99676667e-01
9.99755460e-01
9.99835487e-01
9.99916647e-01
9.99998856e-01
1.00008203e+00
1.00016609e+00
1.00025096e+00
1.00033660e+00
1.00042293e+00
1.00050993e+00
1.00059755e+00
1.00068577e+00
1.00077458e+00
1.00086395e+00
1.00095390e+00
1.00104441e+00
1.00113550e+00
1.00122718e+00
1.00131945e+00
1.00141231e+00
1.00150579e+00
1.00159988e+00
1.00169457e+00
1.00178986e+00
1.00188573e+00
1.00198215e+00
1.00207907e+00
1.00217646e+00
1.00227425e+00
1.00237235e+00
1.00247068e+00
1.00256913e+00
1.00266759e+00
1.00276593e+00
1.00286401e+00
1.00296168e+00
1.00305877e+00
1.00315511e+00
1.00325054e+00
1.00334486e+00
1.00343788e+00
1.00352943e+00
1.00361931e+00
1.00370734e+00
1.00379331e+00
1.00387707e+00
1.00395841e+00
1.00403719e+00
1.00411323e+00
1.00418639e+00
1.00425652e+00
1.00432349e+00
1.00438719e+00
1.00444751e+00
1.00450436e+00
1.00455766e+00
1.00460735e+00
1.00465338e+00
1.00469573e+00
1.00473436e+00
1.00476929e+00
1.00480053e+00
1.00482810e+00
1.00485206e+00
1.00487246e+00
1.00488939e+00
1.00490295e+00
1.00491324e+00
1.00492039e+00
1.00492455e+00
1.00492588e+00
1.00492455e+00
1.00492075e+00
1.00491468e+00
1.00490658e+00
1.00489664e+00
1.00488510e+00
1.00487226e+00
1.00485834e+00
1.00484353e+00
1.00482816e+00
1.00481256e+00
1.00479686e+00
1.00478127e+00
1.00476624e+00
1.00475193e+00
1.00473836e+00
1.00472595e+00
1.00471499e+00
1.00470537e+00
1.00469725e+00
1.00469106e+00
1.00468677e+00
1.00468432e+00
1.00468399e+00
9.98343734e-01
9.98345470e-01
9.98349848e-01
9.98357057e-01
9.98367060e-01
9.98379844e-01
9.98395452e-01
9.98413774e-01
9.98434744e-01
9.98458470e-01
9.98484911e-01
9.98513974e-01
9.98545717e-01
9.98580168e-01
9.98617259e-01
9.98656977e-01
9.98699330e-01
9.98744292e-01
9.98791824e-01
9.98841879e-01
9.98894415e-01
9.98949397e-01
9.99006750e-01
9.99066389e-01
9.99128257e-01
9.99192278e-01
9.99258344e-01
9.99326361e-01
9.99396246e-01
9.99467893e-01
9.99541187e-01
9.99616033e-01
9.99692332e-01
9.99769975e-01
9.99848863e-01
9.99928906e-01
1.00001001e+00
1.00009210e+00
1.00017509e+00
1.00025892e+00
1.00034353e+00
1.00042886e+00
1.00051488e+00
1.00060156e+00
1.00068886e+00
1.00077677e+00
1.00086529e+00
1.00095441e+00
1.00104414e+00
1.00113447e+00
1.00122543e+00
1.00131701e+00
1.00140924e+00
1.00150211e+00
1.00159562e+00
1.00168978e+00
1.00178458e+00
1.00187998e+00
1.00197597e+00
1.00207250e+00
1.00216952e+00
1.00226696e+00
1.00236475e+00
1.00246279e+00
1.00256098e+00
1.00265919e+00
1.00275730e+00
1.00285516e+00
1.00295262e+00
1.00304951e+00
1.00314566e+00
1.00324090e+00
1.00333503e+00
1.00342788e+00
1.00351923e+00
1.00360891e+00
1.00369673e+00
1.00378248e+00
1.00386600e+00
1.00394710e+00
1.00402560e+00
1.00410135e+00
1.00417420e+00
1.00424399e+00
1.00431061e+00
1.00437393e+00
1.00443384e+00
1.00449026e+00
1.00454311e+00
1.00459232e+00
1.00463787e+00
1.00467970e+00
1.00471781e+00
1.00475221e+00
1.00478290e+00
1.00480992e+00
1.00483333e+00
1.00485318e+00
1.00486957e+00
1.00488259e+00
1.00489235e+00
1.00489899e+00
1.00490266e+00
1.00490350e+00
1.00490172e+00
1.00489748e+00
1.00489099e+00
1.00488248e+00
1.00487219e+00
1.00486031e+00
1.00484710e+00
1.00483286e+00
1.00481782e+00
1.00480217e+00
1.00478624e+00
1.00477035e+00
1.00475462e+00
1.00473928e+00
1.00472474e+00
1.00471114e+00
1.00469855e+00
1.00468730e+00
1.00467762e+00
1.00466951e+00
1.00466312e+00
1.00465862e+00
1.00465617e+00
1.00465588e+00
9.98392601e-01
9.98393982e-01
9.98398045e-01
9.98404848e-01
9.98414379e-01
9.98426568e-01
9.98441450e-01
9.98459044e-01
9.98479267e-01
9.98502085e-01
9.98527540e-01
9.98555652e-01
9.98586368e-01
9.98619686e-01
9.98655646e-01
9.98694219e-01
9.98735366e-01
9.98779104e-01
9.98825401e-01
9.98874197e-01
9.98925474e-01
9.98979189e-01
9.99035259e-01
9.99093623e-01
9.99154229e-01
9.99216978e-01
9.99281774e-01
9.99348542e-01
9.99417185e-01
9.99487590e-01
9.99559659e-01
9.99633297e-01
9.99708396e-01
9.99784850e-01
9.99862569e-01
9.99941459e-01
1.00002143e+00
1.00010239e+00
1.00018429e+00
1.00026704e+00
1.00035059e+00
1.00043489e+00
1.00051991e+00
1.00060560e+00
1.00069196e+00
1.00077895e+00
1.00086658e+00
1.00095485e+00
1.00104376e+00
1.00113331e+00
1.00122352e+00
1.00131440e+00
1.00140595e+00
1.00149818e+00
1.00159110e+00
1.00168470e+00
1.00177897e+00
1.00187388e+00
1.00196941e+00
1.00206551e+00
1.00216213e+00
1.00225921e+00
1.00235665e+00
1.00245437e+00
1.00255225e+00