# vtk DataFile Version 2.0
LBM Flow Field - Timestep 3560
ASCII
DATASET STRUCTURED_POINTS
DIMENSIONS 128 128 1
ORIGIN 0.0 0.0 0.0
SPACING 1.0 1.0 1.0
POINT_DATA 16384
SCALARS density double 1
LOOKUP_TABLE default
1.00641095e+00
1.00640860e+00
1.00640231e+00
1.00637733e+00
1.00634580e+00
1.00631218e+00
1.00626995e+00
1.00621912e+00
1.00616486e+00
1.00610616e+00
1.00604114e+00
1.00597178e+00
1.00589965e+00
1.00582387e+00
1.00574465e+00
1.00566333e+00
1.00558021e+00
1.00549510e+00
1.00540862e+00
1.00532133e+00
1.00523326e+00
1.00514456e+00
1.00505560e+00
1.00496655e+00
1.00487742e+00
1.00478833e+00
1.00469942e+00
1.00461068e+00
1.00452210e+00
1.00443372e+00
1.00434552e+00
1.00425744e+00
1.00416944e+00
1.00408150e+00
1.00399356e+00
1.00390554e+00
1.00381741e+00
1.00372911e+00
1.00364059e+00
1.00355182e+00
1.00346275e+00
1.00337335e+00
1.00328359e+00
1.00319346e+00
1.00310293e+00
1.00301200e+00
1.00292065e+00
1.00282888e+00
1.00273667e+00
1.00264403e+00
1.00255094e+00
1.00245740e+00
1.00236339e+00
1.00226890e+00
1.00217392e+00
1.00207843e+00
1.00198244e+00
1.00188592e+00
1.00178888e+00
1.00169134e+00
1.00159330e+00
1.00149480e+00
1.00139589e+00
1.00129663e+00
1.00119709e+00
1.00109739e+00
1.00099763e+00
1.00089797e+00
1.00079855e+00
1.00069955e+00
1.00060115e+00
1.00050356e+00
1.00040699e+00
1.00031165e+00
1.00021775e+00
1.00012551e+00
1.00003512e+00
9.99946787e-01
9.99860676e-01
9.99776942e-01
9.99695716e-01
9.99617098e-01
9.99541158e-01
9.99467931e-01
9.99397418e-01
9.99329581e-01
9.99264347e-01
9.99201606e-01
9.99141212e-01
9.99082986e-01
9.99026723e-01
9.98972187e-01
9.98919123e-01
9.98867263e-01
9.98816329e-01
9.98766034e-01
9.98716099e-01
9.98666258e-01
9.98616260e-01
9.98565863e-01
9.98514871e-01
9.98463128e-01
9.98410501e-01
9.98356875e-01
9.98302257e-01
9.98246660e-01
9.98190101e-01
9.98132671e-01
9.98074667e-01
9.98016215e-01
9.97957441e-01
9.97898782e-01
9.97840825e-01
9.97783457e-01
9.97727011e-01
9.97672619e-01
9.97620643e-01
9.97570085e-01
9.97522499e-01
9.97479881e-01
9.97440306e-01
9.97402270e-01
9.97371574e-01
9.97348378e-01
9.97324700e-01
9.97305029e-01
9.97304027e-01
9.97304651e-01
1.00641155e+00
1.00640437e+00
1.00639501e+00
1.00637229e+00
1.00634198e+00
1.00630689e+00
1.00626535e+00
1.00621589e+00
1.00616147e+00
1.00610252e+00
1.00603837e+00
1.00596951e+00
1.00589729e+00
1.00582177e+00
1.00574310e+00
1.00566194e+00
1.00557890e+00
1.00549409e+00
1.00540785e+00
1.00532062e+00
1.00523265e+00
1.00514410e+00
1.00505520e+00
1.00496615e+00
1.00487705e+00
1.00478797e+00
1.00469902e+00
1.00461022e+00
1.00452159e+00
1.00443312e+00
1.00434482e+00
1.00425664e+00
1.00416854e+00
1.00408048e+00
1.00399241e+00
1.00390428e+00
1.00381604e+00
1.00372763e+00
1.00363902e+00
1.00355016e+00
1.00346101e+00
1.00337155e+00
1.00328174e+00
1.00319157e+00
1.00310102e+00
1.00301009e+00
1.00291875e+00
1.00282700e+00
1.00273483e+00
1.00264224e+00
1.00254921e+00
1.00245573e+00
1.00236181e+00
1.00226741e+00
1.00217253e+00
1.00207715e+00
1.00198127e+00
1.00188489e+00
1.00178799e+00
1.00169058e+00
1.00159270e+00
1.00149436e+00
1.00139562e+00
1.00129653e+00
1.00119718e+00
1.00109766e+00
1.00099810e+00
1.00089863e+00
1.00079941e+00
1.00070062e+00
1.00060242e+00
1.00050504e+00
1.00040866e+00
1.00031350e+00
1.00021979e+00
1.00012771e+00
1.00003748e+00
9.99949289e-01
9.99863303e-01
9.99779677e-01
9.99698541e-01
9.99619992e-01
9.99544101e-01
9.99470903e-01
9.99400398e-01
9.99332549e-01
9.99267284e-01
9.99204494e-01
9.99144035e-01
9.99085731e-01
9.99029377e-01
9.98974741e-01
9.98921572e-01
9.98869602e-01
9.98818559e-01
9.98768156e-01
9.98718123e-01
9.98668189e-01
9.98618108e-01
9.98567642e-01
9.98516607e-01
9.98464825e-01
9.98412180e-01
9.98358570e-01
9.98303993e-01
9.98248425e-01
9.98191945e-01
9.98134648e-01
9.98076763e-01
9.98018389e-01
9.97959847e-01
9.97901440e-01
9.97843584e-01
9.97786347e-01
9.97730413e-01
9.97676244e-01
9.97624150e-01
9.97574001e-01
9.97527329e-01
9.97484319e-01
9.97444396e-01
9.97407774e-01
9.97377929e-01
9.97352616e-01
9.97329688e-01
9.97313040e-01
9.97309155e-01
9.97303412e-01
1.00641335e+00
1.00640394e+00
1.00638489e+00
1.00636665e+00
1.00634076e+00
1.00630221e+00
1.00625913e+00
1.00621285e+00
1.00615888e+00
1.00609841e+00
1.00603489e+00
1.00596730e+00
1.00589477e+00
1.00581904e+00
1.00574104e+00
1.00566022e+00
1.00557700e+00
1.00549235e+00
1.00540643e+00
1.00531922e+00
1.00523121e+00
1.00514277e+00
1.00505392e+00
1.00496479e+00
1.00487563e+00
1.00478653e+00
1.00469747e+00
1.00460854e+00
1.00451980e+00
1.00443120e+00
1.00434273e+00
1.00425438e+00
1.00416613e+00
1.00407790e+00
1.00398966e+00
1.00390136e+00
1.00381296e+00
1.00372441e+00
1.00363566e+00
1.00354667e+00
1.00345742e+00
1.00336787e+00
1.00327800e+00
1.00318779e+00
1.00309722e+00
1.00300629e+00
1.00291497e+00
1.00282327e+00
1.00273118e+00
1.00263868e+00
1.00254577e+00
1.00245243e+00
1.00235866e+00
1.00226444e+00
1.00216975e+00
1.00207459e+00
1.00197894e+00
1.00188279e+00
1.00178615e+00
1.00168902e+00
1.00159141e+00
1.00149337e+00
1.00139492e+00
1.00129614e+00
1.00119711e+00
1.00109791e+00
1.00099867e+00
1.00089953e+00
1.00080063e+00
1.00070216e+00
1.00060428e+00
1.00050720e+00
1.00041113e+00
1.00031627e+00
1.00022283e+00
1.00013102e+00
1.00004104e+00
9.99953086e-01
9.99867317e-01
9.99783890e-01
9.99702930e-01
9.99624538e-01
9.99548782e-01
9.99475698e-01
9.99405284e-01
9.99337507e-01
9.99272293e-01
9.99209534e-01
9.99149088e-01
9.99090782e-01
9.99034409e-01
9.98979742e-01
9.98926534e-01
9.98874518e-01
9.98823418e-01
9.98772959e-01
9.98722872e-01
9.98672882e-01
9.98622743e-01
9.98572240e-01
9.98521171e-01
9.98469356e-01
9.98416689e-01
9.98363102e-01
9.98308529e-01
9.98252966e-01
9.98196548e-01
9.98139366e-01
9.98081485e-01
9.98023180e-01
9.97964875e-01
9.97906627e-01
9.97848637e-01
9.97791711e-01
9.97736308e-01
9.97681958e-01
9.97629506e-01
9.97580596e-01
9.97534419e-01
9.97489803e-01
9.97450257e-01
9.97417077e-01
9.97385173e-01
9.97355809e-01
9.97338316e-01
9.97326733e-01
9.97310125e-01
9.97301804e-01
1.00640574e+00
1.00639918e+00
1.00638291e+00
1.00636146e+00
1.00633307e+00
1.00629755e+00
1.00625557e+00
1.00620762e+00
1.00615389e+00
1.00609502e+00
1.00603139e+00
1.00596343e+00
1.00589162e+00
1.00581644e+00
1.00573828e+00
1.00565761e+00
1.00557482e+00
1.00549027e+00
1.00540430e+00
1.00531723e+00
1.00522932e+00
1.00514081e+00
1.00505189e+00
1.00496275e+00
1.00487349e+00
1.00478422e+00
1.00469502e+00
1.00460593e+00
1.00451698e+00
1.00442816e+00
1.00433948e+00
1.00425091e+00
1.00416241e+00
1.00407395e+00
1.00398549e+00
1.00389697e+00
1.00380836e+00
1.00371961e+00
1.00363068e+00
1.00354154e+00
1.00345215e+00
1.00336249e+00
1.00327254e+00
1.00318227e+00
1.00309168e+00
1.00300074e+00
1.00290946e+00
1.00281782e+00
1.00272582e+00
1.00263344e+00
1.00254068e+00
1.00244752e+00
1.00235396e+00
1.00225997e+00
1.00216554e+00
1.00207066e+00
1.00197531e+00
1.00187949e+00
1.00178320e+00
1.00168644e+00
1.00158922e+00
1.00149158e+00
1.00139356e+00
1.00129521e+00
1.00119662e+00
1.00109788e+00
1.00099911e+00
1.00090043e+00
1.00080201e+00
1.00070400e+00
1.00060660e+00
1.00050998e+00
1.00041437e+00
1.00031995e+00
1.00022695e+00
1.00013556e+00
1.00004598e+00
9.99958394e-01
9.99872979e-01
9.99789879e-01
9.99709219e-01
9.99631097e-01
9.99555581e-01
9.99482704e-01
9.99412467e-01
9.99344832e-01
9.99279730e-01
9.99217051e-01
9.99156655e-01
9.99098370e-01
9.99041994e-01
9.98987300e-01
9.98934042e-01
9.98881960e-01
9.98830783e-01
9.98780237e-01
9.98730051e-01
9.98679966e-01
9.98629737e-01
9.98579142e-01
9.98527986e-01
9.98476114e-01
9.98423400e-01
9.98369766e-01
9.98315179e-01
9.98259661e-01
9.98203258e-01
9.98146103e-01
9.98088353e-01
9.98030217e-01
9.97971928e-01
9.97913832e-01
9.97856219e-01
9.97799450e-01
9.97743921e-01
9.97690105e-01
9.97638278e-01
9.97588982e-01
9.97542642e-01
9.97499627e-01
9.97460195e-01
9.97425155e-01
9.97394404e-01
9.97368349e-01
9.97347627e-01
9.97332438e-01
9.97320372e-01
9.97315556e-01
1.00639743e+00
1.00639051e+00
1.00637926e+00
1.00635547e+00
1.00632484e+00
1.00629189e+00
1.00625079e+00
1.00620130e+00
1.00614806e+00
1.00609065e+00
1.00602692e+00
1.00595870e+00
1.00588766e+00
1.00581301e+00
1.00573477e+00
1.00565428e+00
1.00557192e+00
1.00548748e+00
1.00540148e+00
1.00531455e+00
1.00522673e+00
1.00513813e+00
1.00504913e+00
1.00495992e+00
1.00487052e+00
1.00478105e+00
1.00469166e+00
1.00460235e+00
1.00451313e+00
1.00442404e+00
1.00433508e+00
1.00424621e+00
1.00415741e+00
1.00406866e+00
1.00397990e+00
1.00389110e+00
1.00380223e+00
1.00371323e+00
1.00362408e+00
1.00353474e+00
1.00344519e+00
1.00335539e+00
1.00326533e+00
1.00317499e+00
1.00308436e+00
1.00299344e+00
1.00290219e+00
1.00281064e+00
1.00271875e+00
1.00262653e+00
1.00253396e+00
1.00244103e+00
1.00234772e+00
1.00225403e+00
1.00215994e+00
1.00206542e+00
1.00197047e+00
1.00187507e+00
1.00177923e+00
1.00168295e+00
1.00158623e+00
1.00148912e+00
1.00139164e+00
1.00129386e+00
1.00119585e+00
1.00109771e+00
1.00099954e+00
1.00090148e+00
1.00080368e+00
1.00070629e+00
1.00060951e+00
1.00051350e+00
1.00041849e+00
1.00032467e+00
1.00023223e+00
1.00014140e+00
1.00005235e+00
9.99965272e-01
9.99880331e-01
9.99797673e-01
9.99717420e-01
9.99639667e-01
9.99564479e-01
9.99491890e-01
9.99421899e-01
9.99354468e-01
9.99289527e-01
9.99226969e-01
9.99166653e-01
9.99108410e-01
9.99052042e-01
9.98997325e-01
9.98944014e-01
9.98891855e-01
9.98840583e-01
9.98789927e-01
9.98739619e-01
9.98689410e-01
9.98639060e-01
9.98588344e-01
9.98537075e-01
9.98485116e-01
9.98432330e-01
9.98378630e-01
9.98324015e-01
9.98268519e-01
9.98212140e-01
9.98155009e-01
9.98097388e-01
9.98039423e-01
9.97981208e-01
9.97923252e-01
9.97866031e-01
9.97809479e-01
9.97753905e-01
9.97700543e-01
9.97649448e-01
9.97599871e-01
9.97553341e-01
9.97511787e-01
9.97472848e-01
9.97435944e-01
9.97406057e-01
9.97383041e-01
9.97359844e-01
9.97341529e-01
9.97335162e-01
9.97330639e-01
1.00639302e+00
1.00638417e+00
1.00636916e+00
1.00634782e+00
1.00631970e+00
1.00628401e+00
1.00624221e+00
1.00619535e+00
1.00614249e+00
1.00608385e+00
1.00602091e+00
1.00595396e+00
1.00588273e+00
1.00580797e+00
1.00573050e+00
1.00565038e+00
1.00556789e+00
1.00548363e+00
1.00539796e+00
1.00531101e+00
1.00522309e+00
1.00513454e+00
1.00504550e+00
1.00495609e+00
1.00486650e+00
1.00477686e+00
1.00468721e+00
1.00459760e+00
1.00450809e+00
1.00441868e+00
1.00432938e+00
1.00424016e+00
1.00415102e+00
1.00406192e+00
1.00397283e+00
1.00388371e+00
1.00379453e+00
1.00370525e+00
1.00361584e+00
1.00352627e+00
1.00343652e+00
1.00334657e+00
1.00325640e+00
1.00316599e+00
1.00307533e+00
1.00298441e+00
1.00289323e+00
1.00280178e+00
1.00271004e+00
1.00261801e+00
1.00252568e+00
1.00243303e+00
1.00234006e+00
1.00224673e+00
1.00215304e+00
1.00205898e+00
1.00196451e+00
1.00186964e+00
1.00177435e+00
1.00167865e+00
1.00158256e+00
1.00148609e+00
1.00138928e+00
1.00129220e+00
1.00119490e+00
1.00109749e+00
1.00100006e+00
1.00090276e+00
1.00080571e+00
1.00070908e+00
1.00061305e+00
1.00051780e+00
1.00042352e+00
1.00033042e+00
1.00023869e+00
1.00014854e+00
1.00006014e+00
9.99973684e-01
9.99889329e-01
9.99807218e-01
9.99727471e-01
9.99650179e-01
9.99575406e-01
9.99503182e-01
9.99433506e-01
9.99366341e-01
9.99301614e-01
9.99239220e-01
9.99179022e-01
9.99120850e-01
9.99064509e-01
9.99009780e-01
9.98956425e-01
9.98904190e-01
9.98852815e-01
9.98802038e-01
9.98751600e-01
9.98701247e-01
9.98650749e-01
9.98599898e-01
9.98548507e-01
9.98496420e-01
9.98443537e-01
9.98389789e-01
9.98335128e-01
9.98279584e-01
9.98223258e-01
9.98166232e-01
9.98108635e-01
9.98050752e-01
9.97992858e-01
9.97935100e-01
9.97877845e-01
9.97821669e-01
9.97766778e-01
9.97713285e-01
9.97662033e-01
9.97613669e-01
9.97567830e-01
9.97524878e-01
9.97486369e-01
9.97452251e-01
9.97421404e-01
9.97395141e-01
9.97375014e-01
9.97359822e-01
9.97349144e-01
9.97342328e-01
1.00638465e+00
1.00637605e+00
1.00635923e+00
1.00633879e+00
1.00631158e+00
1.00627510e+00
1.00623365e+00
1.00618775e+00
1.00613486e+00
1.00607630e+00
1.00601418e+00
1.00594768e+00
1.00587651e+00
1.00580216e+00
1.00572518e+00
1.00564525e+00
1.00556289e+00
1.00547889e+00
1.00539336e+00
1.00530640e+00
1.00521849e+00
1.00512992e+00
1.00504076e+00
1.00495117e+00
1.00486140e+00
1.00477152e+00
1.00468156e+00
1.00459163e+00
1.00450178e+00
1.00441201e+00
1.00432231e+00
1.00423271e+00
1.00414318e+00
1.00405369e+00
1.00396422e+00
1.00387474e+00
1.00378522e+00
1.00369563e+00
1.00360594e+00
1.00351613e+00
1.00342617e+00
1.00333606e+00
1.00324577e+00
1.00315529e+00
1.00306461e+00
1.00297373e+00
1.00288263e+00
1.00279131e+00
1.00269976e+00
1.00260797e+00
1.00251593e+00
1.00242363e+00
1.00233105e+00
1.00223816e+00
1.00214496e+00
1.00205142e+00
1.00195753e+00
1.00186327e+00
1.00176864e+00
1.00167364e+00
1.00157827e+00
1.00148256e+00
1.00138655e+00
1.00129028e+00
1.00119382e+00
1.00109726e+00
1.00100071e+00
1.00090428e+00
1.00080812e+00
1.00071238e+00
1.00061724e+00
1.00052287e+00
1.00042946e+00
1.00033721e+00
1.00024631e+00
1.00015695e+00
1.00006933e+00
9.99983606e-01
9.99899944e-01
9.99818482e-01
9.99739335e-01
9.99662592e-01
9.99588314e-01
9.99516528e-01
9.99447232e-01
9.99380387e-01
9.99315923e-01
9.99253733e-01
9.99193682e-01
9.99135605e-01
9.99079308e-01
9.99024575e-01
9.98971176e-01
9.98918862e-01
9.98867375e-01
9.98816463e-01
9.98765874e-01
9.98715360e-01
9.98664695e-01
9.98613681e-01
9.98562142e-01
9.98509918e-01
9.98456914e-01
9.98403082e-01
9.98348377e-01
9.98292799e-01
9.98236476e-01
9.98179535e-01
9.98122044e-01
9.98064239e-01
9.98006535e-01
9.97949084e-01
9.97892003e-01
9.97835980e-01
9.97781577e-01
9.97728511e-01
9.97677236e-01
9.97629217e-01
9.97584252e-01
9.97541332e-01
9.97502534e-01
9.97469392e-01
9.97439099e-01
9.97411848e-01
9.97392537e-01
9.97378466e-01
9.97365758e-01
9.97359534e-01
1.00637259e+00
1.00636499e+00
1.00635075e+00
1.00632850e+00
1.00629959e+00
1.00626561e+00
1.00622511e+00
1.00617758e+00
1.00612524e+00
1.00606849e+00
1.00600624e+00
1.00593935e+00
1.00586919e+00
1.00579557e+00
1.00571842e+00
1.00563870e+00
1.00555693e+00
1.00547306e+00
1.00538744e+00
1.00530064e+00
1.00521283e+00
1.00512410e+00
1.00503478e+00
1.00494509e+00
1.00485509e+00
1.00476488e+00
1.00467462e+00
1.00458436e+00
1.00449412e+00
1.00440393e+00
1.00431383e+00
1.00422381e+00
1.00413384e+00
1.00404393e+00
1.00395406e+00
1.00386419e+00
1.00377431e+00
1.00368438e+00
1.00359440e+00
1.00350433e+00
1.00341417e+00
1.00332389e+00
1.00323349e+00
1.00314296e+00
1.00305228e+00
1.00296145e+00
1.00287047e+00
1.00277933e+00
1.00268801e+00
1.00259651e+00
1.00250482e+00
1.00241292e+00
1.00232080e+00
1.00222843e+00
1.00213579e+00
1.00204287e+00
1.00194964e+00
1.00185609e+00
1.00176222e+00
1.00166801e+00
1.00157348e+00
1.00147864e+00
1.00138352e+00
1.00128818e+00
1.00119268e+00
1.00109710e+00
1.00100154e+00
1.00090611e+00
1.00081096e+00
1.00071624e+00
1.00062210e+00
1.00052873e+00
1.00043631e+00
1.00034503e+00
1.00025508e+00
1.00016664e+00
1.00007989e+00
9.99995004e-01
9.99912135e-01
9.99831416e-01
9.99752958e-01
9.99676846e-01
9.99603137e-01
9.99531857e-01
9.99463002e-01
9.99396531e-01
9.99332375e-01
9.99270428e-01
9.99210557e-01
9.99152596e-01
9.99096360e-01
9.99041636e-01
9.98988195e-01
9.98935799e-01
9.98884199e-01
9.98833143e-01
9.98782384e-01
9.98731695e-01
9.98680854e-01
9.98629654e-01
9.98577937e-01
9.98525574e-01
9.98472445e-01
9.98418485e-01
9.98363714e-01
9.98308149e-01
9.98251810e-01
9.98194863e-01
9.98137544e-01
9.98079948e-01
9.98022265e-01
9.97965003e-01
9.97908476e-01
9.97852665e-01
9.97798128e-01
9.97745748e-01
9.97695398e-01
9.97646937e-01
9.97601782e-01
9.97560667e-01
9.97522356e-01
9.97487355e-01
9.97458024e-01
9.97433551e-01
9.97412312e-01
9.97396254e-01
9.97386777e-01
9.97381894e-01
1.00636085e+00
1.00635243e+00
1.00633857e+00
1.00631646e+00
1.00628777e+00
1.00625411e+00
1.00621357e+00
1.00616656e+00
1.00611500e+00
1.00605840e+00
1.00599637e+00
1.00593024e+00
1.00586060e+00
1.00578712e+00
1.00571033e+00
1.00563110e+00
1.00554953e+00
1.00546575e+00
1.00538033e+00
1.00529364e+00
1.00520577e+00
1.00511696e+00
1.00502755e+00
1.00493766e+00
1.00484739e+00
1.00475690e+00
1.00466632e+00
1.00457567e+00
1.00448502e+00
1.00439441e+00
1.00430387e+00
1.00421339e+00
1.00412298e+00
1.00403263e+00
1.00394233e+00
1.00385205e+00
1.00376179e+00
1.00367153e+00
1.00358125e+00
1.00349093e+00
1.00340056e+00
1.00331013e+00
1.00321964e+00
1.00312907e+00
1.00303842e+00
1.00294768e+00
1.00285686e+00
1.00276593e+00
1.00267490e+00
1.00258375e+00
1.00249246e+00
1.00240104e+00
1.00230944e+00
1.00221766e+00
1.00212567e+00
1.00203344e+00
1.00194097e+00
1.00184822e+00
1.00175520e+00
1.00166188e+00
1.00156829e+00
1.00147442e+00
1.00138031e+00
1.00128601e+00
1.00119157e+00
1.00109708e+00
1.00100262e+00
1.00090832e+00
1.00081429e+00
1.00072069e+00
1.00062768e+00
1.00053542e+00
1.00044410e+00
1.00035389e+00
1.00026499e+00
1.00017756e+00
1.00009179e+00
1.00000784e+00
9.99925854e-01
9.99845962e-01
9.99768271e-01
9.99692862e-01
9.99619789e-01
9.99549075e-01
9.99480714e-01
9.99414664e-01
9.99350854e-01
9.99289182e-01
9.99229515e-01
9.99171691e-01
9.99115527e-01
9.99060818e-01
9.99007339e-01
9.98954857e-01
9.98903132e-01
9.98851923e-01
9.98800987e-01
9.98750102e-01
9.98699061e-01
9.98647669e-01
9.98595761e-01
9.98543220e-01
9.98489955e-01
9.98435887e-01
9.98381016e-01
9.98325411e-01
9.98269112e-01
9.98212201e-01
9.98154926e-01
9.98097530e-01
9.98040104e-01
9.97982957e-01
9.97926653e-01
9.97871369e-01
9.97817154e-01
9.97764813e-01
9.97714991e-01
9.97667306e-01
9.97622170e-01
9.97581065e-01
9.97543653e-01
9.97509147e-01
9.97479505e-01
9.97455410e-01
9.97434594e-01
9.97418629e-01
9.97409506e-01
9.97404035e-01
1.00634812e+00
1.00633907e+00
1.00632338e+00
1.00630256e+00
1.00627522e+00
1.00624030e+00
1.00619975e+00
1.00615453e+00
1.00610313e+00
1.00604604e+00
1.00598504e+00
1.00591990e+00
1.00585014e+00
1.00577690e+00
1.00570095e+00
1.00562203e+00
1.00554043e+00
1.00545696e+00
1.00537186e+00
1.00528512e+00
1.00519718e+00
1.00510841e+00
1.00501889e+00
1.00492873e+00
1.00483822e+00
1.00474747e+00
1.00465651e+00
1.00456546e+00
1.00447440e+00
1.00438336e+00
1.00429235e+00
1.00420141e+00
1.00411054e+00
1.00401974e+00
1.00392900e+00
1.00383832e+00
1.00374769e+00
1.00365708e+00
1.00356651e+00
1.00347595e+00
1.00338539e+00
1.00329483e+00
1.00320427e+00
1.00311370e+00
1.00302312e+00
1.00293252e+00
1.00284189e+00
1.00275124e+00
1.00266055e+00
1.00256980e+00
1.00247899e+00
1.00238811e+00
1.00229711e+00
1.00220600e+00
1.00211473e+00
1.00202329e+00
1.00193166e+00
1.00183980e+00
1.00174772e+00
1.00165539e+00
1.00156282e+00
1.00147003e+00
1.00137703e+00
1.00128387e+00
1.00119060e+00
1.00109729e+00
1.00100404e+00
1.00091095e+00
1.00081816e+00
1.00072579e+00
1.00063400e+00
1.00054295e+00
1.00045283e+00
1.00036379e+00
1.00027603e+00
1.00018972e+00
1.00010501e+00
1.00002208e+00
9.99941055e-01
9.99862067e-01
9.99785215e-01
9.99710576e-01
9.99638201e-01
9.99568108e-01
9.99500289e-01
9.99434703e-01
9.99371278e-01
9.99309911e-01
9.99250473e-01
9.99192806e-01
9.99136729e-01
9.99082042e-01
9.99028530e-01
9.98975965e-01
9.98924111e-01
9.98872739e-01
9.98821621e-01
9.98770532e-01
9.98719272e-01
9.98667674e-01
9.98615575e-01
9.98562840e-01
9.98509406e-01
9.98455237e-01
9.98400286e-01
9.98344589e-01
9.98288301e-01
9.98231512e-01
9.98174285e-01
9.98116940e-01
9.98059841e-01
9.98003034e-01
9.97946755e-01
9.97891754e-01
9.97838312e-01
9.97786205e-01
9.97736200e-01
9.97689380e-01
9.97645238e-01
9.97603566e-01
9.97566161e-01
9.97533445e-01
9.97503817e-01
9.97478298e-01
9.97458888e-01
9.97444423e-01
9.97433547e-01
9.97427534e-01
1.00633170e+00
1.00632308e+00
1.00630779e+00
1.00628669e+00
1.00625919e+00
1.00622496e+00
1.00618518e+00
1.00613986e+00
1.00608869e+00
1.00603264e+00
1.00597218e+00
1.00590707e+00
1.00583790e+00
1.00576543e+00
1.00568971e+00
1.00561096e+00
1.00552983e+00
1.00544667e+00
1.00536158e+00
1.00527492e+00
1.00518710e+00
1.00509825e+00
1.00500854e+00
1.00491823e+00
1.00482749e+00
1.00473640e+00
1.00464509e+00
1.00455366e+00
1.00446218e+00
1.00437068e+00
1.00427922e+00
1.00418782e+00
1.00409649e+00
1.00400523e+00
1.00391407e+00
1.00382299e+00
1.00373198e+00
1.00364106e+00
1.00355021e+00
1.00345943e+00
1.00336872e+00
1.00327807e+00
1.00318748e+00
1.00309695e+00
1.00300648e+00
1.00291606e+00
1.00282569e+00
1.00273537e+00
1.00264508e+00
1.00255481e+00
1.00246455e+00
1.00237427e+00
1.00228396e+00
1.00219359e+00
1.00210313e+00
1.00201256e+00
1.00192185e+00
1.00183097e+00
1.00173992e+00
1.00164867e+00
1.00155722e+00
1.00146559e+00
1.00137379e+00
1.00128186e+00
1.00118984e+00
1.00109782e+00
1.00100587e+00
1.00091410e+00
1.00082262e+00
1.00073157e+00
1.00064109e+00
1.00055135e+00
1.00046251e+00
1.00037474e+00
1.00028820e+00
1.00020307e+00
1.00011951e+00
1.00003767e+00
9.99957682e-01
9.99879663e-01
9.99803712e-01
9.99729899e-01
9.99658272e-01
9.99588846e-01
9.99521611e-01
9.99456523e-01
9.99393512e-01
9.99332475e-01
9.99273285e-01
9.99215788e-01
9.99159808e-01
9.99105149e-01
9.99051603e-01
9.98998951e-01
9.98946967e-01
9.98895424e-01
9.98844106e-01
9.98792806e-01
9.98741325e-01
9.98689496e-01
9.98637185e-01
9.98584268e-01
9.98530657e-01
9.98476334e-01
9.98421309e-01
9.98365581e-01
9.98309241e-01
9.98252488e-01
9.98195445e-01
9.98138228e-01
9.98081202e-01
9.98024738e-01
9.97968910e-01
9.97914028e-01
9.97860800e-01
9.97809445e-01
9.97759906e-01
9.97712977e-01
9.97669363e-01
9.97628693e-01
9.97591311e-01
9.97558400e-01
9.97529630e-01
9.97504773e-01
9.97485111e-01
9.97470423e-01
9.97460033e-01
9.97454745e-01
1.00631310e+00
1.00630457e+00
1.00629029e+00
1.00626870e+00
1.00624082e+00
1.00620779e+00
1.00616850e+00
1.00612282e+00
1.00607244e+00
1.00601741e+00
1.00595701e+00
1.00589221e+00
1.00582398e+00
1.00575198e+00
1.00567637e+00
1.00559811e+00
1.00551749e+00
1.00543444e+00
1.00534944e+00
1.00526302e+00
1.00517524e+00
1.00508626e+00
1.00499645e+00
1.00490602e+00
1.00481501e+00
1.00472360e+00
1.00463197e+00
1.00454017e+00
1.00444826e+00
1.00435632e+00
1.00426442e+00
1.00417256e+00
1.00408077e+00
1.00398909e+00
1.00389751e+00
1.00380605e+00
1.00371470e+00
1.00362349e+00
1.00353240e+00
1.00344143e+00
1.00335060e+00
1.00325990e+00
1.00316933e+00
1.00307889e+00
1.00298859e+00
1.00289842e+00
1.00280837e+00
1.00271845e+00
1.00262863e+00
1.00253891e+00
1.00244927e+00
1.00235968e+00
1.00227013e+00
1.00218059e+00
1.00209102e+00
1.00200140e+00
1.00191169e+00
1.00182188e+00
1.00173194e+00
1.00164185e+00
1.00155161e+00
1.00146122e+00
1.00137070e+00
1.00128009e+00
1.00118942e+00
1.00109876e+00
1.00100819e+00
1.00091781e+00
1.00082774e+00
1.00073809e+00
1.00064901e+00
1.00056065e+00
1.00047316e+00
1.00038672e+00
1.00030149e+00
1.00021762e+00
1.00013527e+00
1.00005458e+00
9.99975690e-01
9.99898699e-01
9.99823702e-01
9.99750766e-01
9.99679932e-01
9.99611215e-01
9.99544600e-01
9.99480043e-01
9.99417473e-01
9.99356790e-01
9.99297867e-01
9.99240555e-01
9.99184682e-01
9.99130061e-01
9.99076486e-01
9.99023747e-01
9.98971631e-01
9.98919918e-01
9.98868396e-01
9.98816873e-01
9.98765169e-01
9.98713110e-01
9.98660566e-01
9.98607454e-01
9.98553684e-01
9.98499202e-01
9.98444055e-01
9.98388310e-01
9.98331979e-01
9.98275199e-01
9.98218261e-01
9.98161307e-01
9.98104420e-01
9.98048061e-01
9.97992691e-01
9.97938284e-01
9.97885119e-01
9.97834098e-01
9.97785418e-01
9.97738758e-01
9.97695041e-01
9.97655244e-01
9.97618645e-01
9.97585294e-01
9.97556855e-01
9.97533197e-01
9.97513218e-01
9.97498056e-01
9.97488799e-01
9.97483799e-01
1.00629313e+00
1.00628409e+00
1.00626935e+00
1.00624837e+00
1.00622117e+00
1.00618796e+00
1.00614878e+00
1.00610416e+00
1.00605437e+00
1.00599933e+00
1.00593958e+00
1.00587576e+00
1.00580782e+00
1.00573605e+00
1.00566116e+00
1.00558342e+00
1.00550291e+00
1.00542012e+00
1.00533549e+00
1.00524916e+00
1.00516133e+00
1.00507239e+00
1.00498255e+00
1.00489190e+00
1.00480066e+00
1.00470901e+00
1.00461706e+00
1.00452487e+00
1.00443256e+00
1.00434023e+00
1.00424788e+00
1.00415558e+00
1.00406338e+00
1.00397129e+00
1.00387933e+00
1.00378751e+00
1.00369587e+00
1.00360439e+00
1.00351310e+00
1.00342200e+00
1.00333110e+00
1.00324040e+00
1.00314991e+00
1.00305963e+00
1.00296956e+00
1.00287970e+00
1.00279005e+00
1.00270059e+00
1.00261133e+00
1.00252223e+00
1.00243329e+00
1.00234448e+00
1.00225577e+00
1.00216714e+00
1.00207854e+00
1.00198995e+00
1.00190133e+00
1.00181266e+00
1.00172391e+00
1.00163507e+00
1.00154611e+00
1.00145705e+00
1.00136789e+00
1.00127867e+00
1.00118941e+00
1.00110020e+00
1.00101108e+00
1.00092217e+00
1.00083356e+00
1.00074538e+00
1.00065777e+00
1.00057085e+00
1.00048480e+00
1.00039975e+00
1.00031588e+00
1.00023333e+00
1.00015224e+00
1.00007276e+00
9.99995014e-01
9.99919096e-01
9.99845096e-01
9.99773075e-01
9.99703071e-01
9.99635093e-01
9.99569125e-01
9.99505123e-01
9.99443014e-01
9.99382700e-01
9.99324057e-01
9.99266940e-01
9.99211180e-01
9.99156597e-01
9.99102997e-01
9.99050171e-01
9.98997916e-01
9.98946027e-01
9.98894301e-01
9.98842547e-01
9.98790600e-01
9.98738312e-01
9.98685545e-01
9.98632206e-01
9.98578256e-01
9.98523654e-01
9.98468384e-01
9.98412541e-01
9.98356243e-01
9.98299546e-01
9.98242617e-01
9.98185791e-01
9.98129255e-01
9.98073119e-01
9.98017842e-01
9.97963906e-01
9.97911347e-01
9.97860444e-01
9.97811980e-01
9.97766194e-01
9.97722965e-01
9.97683010e-01
9.97646959e-01
9.97614557e-01
9.97586100e-01
9.97562259e-01
9.97542979e-01
9.97528419e-01
9.97518770e-01
9.97513487e-01
1.00627034e+00
1.00626124e+00
1.00624611e+00
1.00622558e+00
1.00619889e+00
1.00616563e+00
1.00612690e+00
1.00608313e+00
1.00603362e+00
1.00597894e+00
1.00592008e+00
1.00585683e+00
1.00578917e+00
1.00571804e+00
1.00564379e+00
1.00556633e+00
1.00548612e+00
1.00540377e+00
1.00531938e+00
1.00523310e+00
1.00514539e+00
1.00505652e+00
1.00496657e+00
1.00487577e+00
1.00478437e+00
1.00469249e+00
1.00460021e+00
1.00450769e+00
1.00441504e+00
1.00432231e+00
1.00422956e+00
1.00413687e+00
1.00404428e+00
1.00395181e+00
1.00385951e+00
1.00376740e+00
1.00367549e+00
1.00358381e+00
1.00349237e+00
1.00340120e+00
1.00331028e+00
1.00321965e+00
1.00312930e+00
1.00303925e+00
1.00294949e+00
1.00286002e+00
1.00277084e+00
1.00268194e+00
1.00259330e+00
1.00250492e+00
1.00241676e+00
1.00232881e+00
1.00224102e+00
1.00215338e+00
1.00206583e+00
1.00197836e+00
1.00189091e+00
1.00180346e+00
1.00171598e+00
1.00162845e+00
1.00154086e+00
1.00145319e+00
1.00136546e+00
1.00127769e+00
1.00118993e+00
1.00110221e+00
1.00101462e+00
1.00092723e+00
1.00084016e+00
1.00075351e+00
1.00066741e+00
1.00058199e+00
1.00049742e+00
1.00041382e+00
1.00033136e+00
1.00025017e+00
1.00017040e+00
1.00009217e+00
1.00001561e+00
9.99940803e-01
9.99867836e-01
9.99796763e-01
9.99727618e-01
9.99660407e-01
9.99595111e-01
9.99531684e-01
9.99470055e-01
9.99410126e-01
9.99351776e-01
9.99294863e-01
9.99239226e-01
9.99184688e-01
9.99131064e-01
9.99078157e-01
9.99025766e-01
9.98973698e-01
9.98921768e-01
9.98869790e-01
9.98817599e-01
9.98765067e-01
9.98712082e-01
9.98658534e-01
9.98604381e-01
9.98549635e-01
9.98494287e-01
9.98438359e-01
9.98382012e-01
9.98325409e-01
9.98268611e-01
9.98211836e-01
9.98155492e-01
9.98099756e-01
9.98044721e-01
9.97990939e-01
9.97938908e-01
9.97888561e-01
9.97840229e-01
9.97794806e-01
9.97752364e-01
9.97712686e-01
9.97676704e-01
9.97645013e-01
9.97617005e-01
9.97593041e-01
9.97574186e-01
9.97560114e-01
9.97550230e-01
9.97545045e-01
1.00624433e+00
1.00623545e+00
1.00622087e+00
1.00620016e+00
1.00617341e+00
1.00614097e+00
1.00610287e+00
1.00605910e+00
1.00601015e+00
1.00595649e+00
1.00589805e+00
1.00583506e+00
1.00576824e+00
1.00569782e+00
1.00562381e+00
1.00554676e+00
1.00546717e+00
1.00538512e+00
1.00530085e+00
1.00521483e+00
1.00512732e+00
1.00503842e+00
1.00494841e+00
1.00485758e+00
1.00476603e+00
1.00467389e+00
1.00458137e+00
1.00448858e+00
1.00439559e+00
1.00430251e+00
1.00420942e+00
1.00411638e+00
1.00402344e+00
1.00393066e+00
1.00383807e+00
1.00374571e+00
1.00365360e+00
1.00356178e+00
1.00347026e+00
1.00337907e+00
1.00328822e+00
1.00319773e+00
1.00310760e+00
1.00301785e+00
1.00292848e+00
1.00283948e+00
1.00275086e+00
1.00266259e+00
1.00257468e+00
1.00248709e+00
1.00239980e+00
1.00231279e+00
1.00222601e+00
1.00213944e+00
1.00205303e+00
1.00196675e+00
1.00188055e+00
1.00179440e+00
1.00170827e+00
1.00162212e+00
1.00153595e+00
1.00144975e+00
1.00136351e+00
1.00127726e+00
1.00119104e+00
1.00110488e+00
1.00101886e+00
1.00093305e+00
1.00084756e+00
1.00076248e+00
1.00067795e+00
1.00059408e+00
1.00051102e+00
1.00042892e+00
1.00034790e+00
1.00026812e+00
1.00018969e+00
1.00011275e+00
1.00003740e+00
9.99963732e-01
9.99891822e-01
9.99821720e-01
9.99753453e-01
9.99687026e-01
9.99622416e-01
9.99559577e-01
9.99498438e-01
9.99438902e-01
9.99380850e-01
9.99324146e-01
9.99268634e-01
9.99214145e-01
9.99160495e-01
9.99107504e-01
9.99054980e-01
9.99002734e-01
9.98950588e-01
9.98898382e-01
9.98845957e-01
9.98793177e-01
9.98739950e-01
9.98686206e-01
9.98631873e-01
9.98576945e-01
9.98521490e-01
9.98465544e-01
9.98409158e-01
9.98352535e-01
9.98295896e-01
9.98239330e-01
9.98183064e-01
9.98127544e-01
9.98072995e-01
9.98019511e-01
9.97967609e-01
9.97917815e-01
9.97870132e-01
9.97824827e-01
9.97782656e-01
9.97743815e-01
9.97708219e-01
9.97676440e-01
9.97648955e-01
9.97625698e-01
9.97606791e-01
9.97592571e-01
9.97583215e-01
9.97578423e-01
1.00621588e+00
1.00620689e+00
1.00619256e+00
1.00617199e+00
1.00614549e+00
1.00611356e+00
1.00607584e+00
1.00603249e+00
1.00598427e+00
1.00593120e+00
1.00587318e+00
1.00581091e+00
1.00574480e+00
1.00567479e+00
1.00560128e+00
1.00552487e+00
1.00544568e+00
1.00536389e+00
1.00527997e+00
1.00519426e+00
1.00510684e+00
1.00501800e+00
1.00492806e+00
1.00483718e+00
1.00474549e+00
1.00465320e+00
1.00456049e+00
1.00446745e+00
1.00437417e+00
1.00428081e+00
1.00418743e+00
1.00409409e+00
1.00400087e+00
1.00390783e+00
1.00381502e+00
1.00372247e+00
1.00363023e+00
1.00353834e+00
1.00344681e+00
1.00335569e+00
1.00326498e+00
1.00317471e+00
1.00308489e+00
1.00299553e+00
1.00290663e+00
1.00281819e+00
1.00273021e+00
1.00264268e+00
1.00255557e+00
1.00246886e+00
1.00238253e+00
1.00229655e+00
1.00221087e+00
1.00212546e+00
1.00204026e+00
1.00195525e+00
1.00187037e+00
1.00178559e+00
1.00170087e+00
1.00161618e+00
1.00153150e+00
1.00144681e+00
1.00136212e+00
1.00127745e+00
1.00119282e+00