# vtk DataFile Version 2.0
LBM Flow Field - Timestep 4160
ASCII
DATASET STRUCTURED_POINTS
DIMENSIONS 128 128 1
ORIGIN 0.0 0.0 0.0
SPACING 1.0 1.0 1.0
POINT_DATA 16384
SCALARS density double 1
LOOKUP_TABLE default
1.00019920e+00
1.00019987e+00
1.00020082e+00
1.00019874e+00
1.00019607e+00
1.00019453e+00
1.00019209e+00
1.00018852e+00
1.00018507e+00
1.00018145e+00
1.00017653e+00
1.00017083e+00
1.00016473e+00
1.00015759e+00
1.00014913e+00
1.00013981e+00
1.00012950e+00
1.00011788e+00
1.00010506e+00
1.00009127e+00
1.00007637e+00
1.00006037e+00
1.00004350e+00
1.00002588e+00
1.00000756e+00
9.99988755e-01
9.99969694e-01
9.99950561e-01
9.99931568e-01
9.99912989e-01
9.99895091e-01
9.99878128e-01
9.99862384e-01
9.99848149e-01
9.99835705e-01
9.99825329e-01
9.99817300e-01
9.99811883e-01
9.99809328e-01
9.99809873e-01
9.99813733e-01
9.99821104e-01
9.99832155e-01
9.99847029e-01
9.99865843e-01
9.99888682e-01
9.99915603e-01
9.99946632e-01
9.99981765e-01
1.00002097e+00
1.00006419e+00
1.00011134e+00
1.00016232e+00
1.00021700e+00
1.00027523e+00
1.00033688e+00
1.00040177e+00
1.00046973e+00
1.00054060e+00
1.00061421e+00
1.00069039e+00
1.00076898e+00
1.00084983e+00
1.00093279e+00
1.00101774e+00
1.00110453e+00
1.00119306e+00
1.00128320e+00
1.00137485e+00
1.00146789e+00
1.00156222e+00
1.00165771e+00
1.00175426e+00
1.00185173e+00
1.00194999e+00
1.00204887e+00
1.00214821e+00
1.00224783e+00
1.00234754e+00
1.00244711e+00
1.00254633e+00
1.00264494e+00
1.00274271e+00
1.00283937e+00
1.00293465e+00
1.00302827e+00
1.00311997e+00
1.00320947e+00
1.00329650e+00
1.00338081e+00
1.00346214e+00
1.00354027e+00
1.00361497e+00
1.00368605e+00
1.00375333e+00
1.00381667e+00
1.00387594e+00
1.00393105e+00
1.00398194e+00
1.00402856e+00
1.00407093e+00
1.00410907e+00
1.00414305e+00
1.00417294e+00
1.00419889e+00
1.00422104e+00
1.00423957e+00
1.00425466e+00
1.00426658e+00
1.00427554e+00
1.00428178e+00
1.00428559e+00
1.00428736e+00
1.00428720e+00
1.00428541e+00
1.00428247e+00
1.00427870e+00
1.00427389e+00
1.00426874e+00
1.00426381e+00
1.00425886e+00
1.00425347e+00
1.00424946e+00
1.00424665e+00
1.00424338e+00
1.00424048e+00
1.00424231e+00
1.00424373e+00
1.00019932e+00
1.00019880e+00
1.00019888e+00
1.00019755e+00
1.00019529e+00
1.00019350e+00
1.00019119e+00
1.00018805e+00
1.00018448e+00
1.00018075e+00
1.00017605e+00
1.00017048e+00
1.00016422e+00
1.00015713e+00
1.00014883e+00
1.00013951e+00
1.00012917e+00
1.00011767e+00
1.00010497e+00
1.00009120e+00
1.00007639e+00
1.00006055e+00
1.00004381e+00
1.00002631e+00
1.00000817e+00
9.99989557e-01
9.99970678e-01
9.99951748e-01
9.99932985e-01
9.99914638e-01
9.99896974e-01
9.99880260e-01
9.99864771e-01
9.99850788e-01
9.99838597e-01
9.99828474e-01
9.99820690e-01
9.99815510e-01
9.99813182e-01
9.99813939e-01
9.99817995e-01
9.99825542e-01
9.99836749e-01
9.99851756e-01
9.99870677e-01
9.99893596e-01
9.99920570e-01
9.99951623e-01
9.99986752e-01
1.00002593e+00
1.00006909e+00
1.00011615e+00
1.00016702e+00
1.00022156e+00
1.00027964e+00
1.00034111e+00
1.00040581e+00
1.00047357e+00
1.00054423e+00
1.00061762e+00
1.00069357e+00
1.00077193e+00
1.00085255e+00
1.00093528e+00
1.00102000e+00
1.00110656e+00
1.00119487e+00
1.00128479e+00
1.00137622e+00
1.00146905e+00
1.00156317e+00
1.00165847e+00
1.00175481e+00
1.00185208e+00
1.00195014e+00
1.00204882e+00
1.00214797e+00
1.00224739e+00
1.00234690e+00
1.00244628e+00
1.00254530e+00
1.00264373e+00
1.00274131e+00
1.00283779e+00
1.00293289e+00
1.00302634e+00
1.00311788e+00
1.00320722e+00
1.00329411e+00
1.00337829e+00
1.00345950e+00
1.00353751e+00
1.00361212e+00
1.00368312e+00
1.00375034e+00
1.00381364e+00
1.00387288e+00
1.00392798e+00
1.00397887e+00
1.00402552e+00
1.00406794e+00
1.00410614e+00
1.00414019e+00
1.00417018e+00
1.00419625e+00
1.00421853e+00
1.00423720e+00
1.00425245e+00
1.00426455e+00
1.00427367e+00
1.00428013e+00
1.00428416e+00
1.00428612e+00
1.00428613e+00
1.00428466e+00
1.00428192e+00
1.00427827e+00
1.00427369e+00
1.00426895e+00
1.00426400e+00
1.00425913e+00
1.00425414e+00
1.00425045e+00
1.00424707e+00
1.00424420e+00
1.00424195e+00
1.00424302e+00
1.00424274e+00
1.00019907e+00
1.00019750e+00
1.00019513e+00
1.00019487e+00
1.00019410e+00
1.00019130e+00
1.00018855e+00
1.00018638e+00
1.00018304e+00
1.00017862e+00
1.00017417e+00
1.00016910e+00
1.00016265e+00
1.00015534e+00
1.00014739e+00
1.00013820e+00
1.00012772e+00
1.00011630e+00
1.00010384e+00
1.00009012e+00
1.00007535e+00
1.00005969e+00
1.00004312e+00
1.00002573e+00
1.00000777e+00
9.99989375e-01
9.99970695e-01
9.99951967e-01
9.99933445e-01
9.99915350e-01
9.99897934e-01
9.99881482e-01
9.99866269e-01
9.99852563e-01
9.99840648e-01
9.99830804e-01
9.99823299e-01
9.99818390e-01
9.99816325e-01
9.99817337e-01
9.99821634e-01
9.99829407e-01
9.99840822e-01
9.99856017e-01
9.99875105e-01
9.99898168e-01
9.99925260e-01
9.99956407e-01
9.99991603e-01
1.00003082e+00
1.00007399e+00
1.00012105e+00
1.00017188e+00
1.00022637e+00
1.00028437e+00
1.00034575e+00
1.00041033e+00
1.00047796e+00
1.00054848e+00
1.00062171e+00
1.00069751e+00
1.00077570e+00
1.00085616e+00
1.00093872e+00
1.00102326e+00
1.00110966e+00
1.00119780e+00
1.00128756e+00
1.00137883e+00
1.00147151e+00
1.00156547e+00
1.00166062e+00
1.00175682e+00
1.00185395e+00
1.00195186e+00
1.00205040e+00
1.00214941e+00
1.00224871e+00
1.00234809e+00
1.00244734e+00
1.00254624e+00
1.00264454e+00
1.00274200e+00
1.00283836e+00
1.00293334e+00
1.00302669e+00
1.00311812e+00
1.00320736e+00
1.00329415e+00
1.00337823e+00
1.00345936e+00
1.00353730e+00
1.00361183e+00
1.00368276e+00
1.00374993e+00
1.00381317e+00
1.00387236e+00
1.00392743e+00
1.00397829e+00
1.00402492e+00
1.00406732e+00
1.00410552e+00
1.00413958e+00
1.00416959e+00
1.00419567e+00
1.00421797e+00
1.00423668e+00
1.00425200e+00
1.00426413e+00
1.00427330e+00
1.00427986e+00
1.00428399e+00
1.00428592e+00
1.00428608e+00
1.00428479e+00
1.00428205e+00
1.00427831e+00
1.00427415e+00
1.00426954e+00
1.00426426e+00
1.00425942e+00
1.00425543e+00
1.00425113e+00
1.00424682e+00
1.00424514e+00
1.00424450e+00
1.00424213e+00
1.00424145e+00
1.00019521e+00
1.00019423e+00
1.00019284e+00
1.00019160e+00
1.00019018e+00
1.00018823e+00
1.00018579e+00
1.00018299e+00
1.00017974e+00
1.00017581e+00
1.00017121e+00
1.00016588e+00
1.00015970e+00
1.00015255e+00
1.00014442e+00
1.00013526e+00
1.00012499e+00
1.00011361e+00
1.00010113e+00
1.00008756e+00
1.00007296e+00
1.00005739e+00
1.00004096e+00
1.00002378e+00
1.00000601e+00
9.99987809e-01
9.99969373e-01
9.99950912e-01
9.99932652e-01
9.99914839e-01
9.99897731e-01
9.99881594e-01
9.99866698e-01
9.99853323e-01
9.99841746e-01
9.99832238e-01
9.99825066e-01
9.99820489e-01
9.99818750e-01
9.99820075e-01
9.99824674e-01
9.99832734e-01
9.99844418e-01
9.99859862e-01
9.99879177e-01
9.99902445e-01
9.99929718e-01
9.99961019e-01
9.99996346e-01
1.00003567e+00
1.00007892e+00
1.00012604e+00
1.00017690e+00
1.00023140e+00
1.00028940e+00
1.00035075e+00
1.00041530e+00
1.00048288e+00
1.00055334e+00
1.00062651e+00
1.00070223e+00
1.00078035e+00
1.00086073e+00
1.00094322e+00
1.00102768e+00
1.00111401e+00
1.00120207e+00
1.00129176e+00
1.00138296e+00
1.00147557e+00
1.00156947e+00
1.00166455e+00
1.00176068e+00
1.00185775e+00
1.00195559e+00
1.00205407e+00
1.00215301e+00
1.00225223e+00
1.00235153e+00
1.00245070e+00
1.00254951e+00
1.00264773e+00
1.00274510e+00
1.00284137e+00
1.00293626e+00
1.00302950e+00
1.00312084e+00
1.00320998e+00
1.00329667e+00
1.00338066e+00
1.00346168e+00
1.00353952e+00
1.00361396e+00
1.00368480e+00
1.00375187e+00
1.00381502e+00
1.00387412e+00
1.00392910e+00
1.00397988e+00
1.00402644e+00
1.00406876e+00
1.00410689e+00
1.00414088e+00
1.00417082e+00
1.00419685e+00
1.00421910e+00
1.00423776e+00
1.00425302e+00
1.00426512e+00
1.00427428e+00
1.00428077e+00
1.00428486e+00
1.00428683e+00
1.00428697e+00
1.00428556e+00
1.00428291e+00
1.00427926e+00
1.00427495e+00
1.00427019e+00
1.00426530e+00
1.00426040e+00
1.00425589e+00
1.00425177e+00
1.00424834e+00
1.00424569e+00
1.00424419e+00
1.00424305e+00
1.00424354e+00
1.00019024e+00
1.00018935e+00
1.00018918e+00
1.00018724e+00
1.00018506e+00
1.00018380e+00
1.00018168e+00
1.00017828e+00
1.00017499e+00
1.00017155e+00
1.00016683e+00
1.00016121e+00
1.00015523e+00
1.00014826e+00
1.00013997e+00
1.00013080e+00
1.00012073e+00
1.00010940e+00
1.00009690e+00
1.00008349e+00
1.00006906e+00
1.00005360e+00
1.00003733e+00
1.00002039e+00
1.00000284e+00
9.99984870e-01
9.99966717e-01
9.99948564e-01
9.99930618e-01
9.99913143e-01
9.99896400e-01
9.99880638e-01
9.99866128e-01
9.99853153e-01
9.99841983e-01
9.99832884e-01
9.99826123e-01
9.99821954e-01
9.99820616e-01
9.99822334e-01
9.99827313e-01
9.99835737e-01
9.99847767e-01
9.99863536e-01
9.99883154e-01
9.99906700e-01
9.99934225e-01
9.99965753e-01
1.00000128e+00
1.00004077e+00
1.00008418e+00
1.00013141e+00
1.00018238e+00
1.00023696e+00
1.00029502e+00
1.00035641e+00
1.00042098e+00
1.00048858e+00
1.00055905e+00
1.00063222e+00
1.00070793e+00
1.00078605e+00
1.00086641e+00
1.00094889e+00
1.00103335e+00
1.00111966e+00
1.00120772e+00
1.00129741e+00
1.00138861e+00
1.00148121e+00
1.00157511e+00
1.00167018e+00
1.00176631e+00
1.00186337e+00
1.00196120e+00
1.00205966e+00
1.00215857e+00
1.00225776e+00
1.00235702e+00
1.00245615e+00
1.00255491e+00
1.00265307e+00
1.00275037e+00
1.00284656e+00
1.00294137e+00
1.00303452e+00
1.00312576e+00
1.00321480e+00
1.00330139e+00
1.00338526e+00
1.00346617e+00
1.00354389e+00
1.00361821e+00
1.00368892e+00
1.00375586e+00
1.00381888e+00
1.00387786e+00
1.00393271e+00
1.00398336e+00
1.00402978e+00
1.00407197e+00
1.00410997e+00
1.00414383e+00
1.00417364e+00
1.00419954e+00
1.00422167e+00
1.00424021e+00
1.00425534e+00
1.00426733e+00
1.00427640e+00
1.00428275e+00
1.00428673e+00
1.00428866e+00
1.00428870e+00
1.00428711e+00
1.00428444e+00
1.00428085e+00
1.00427630e+00
1.00427136e+00
1.00426671e+00
1.00426183e+00
1.00425670e+00
1.00425269e+00
1.00424993e+00
1.00424663e+00
1.00424423e+00
1.00424465e+00
1.00424518e+00
1.00018549e+00
1.00018398e+00
1.00018263e+00
1.00018145e+00
1.00017989e+00
1.00017765e+00
1.00017525e+00
1.00017265e+00
1.00016931e+00
1.00016526e+00
1.00016075e+00
1.00015551e+00
1.00014926e+00
1.00014212e+00
1.00013411e+00
1.00012504e+00
1.00011482e+00
1.00010359e+00
1.00009133e+00
1.00007797e+00
1.00006362e+00
1.00004839e+00
1.00003235e+00
1.00001560e+00
9.99998305e-01
9.99980657e-01
9.99962815e-01
9.99944991e-01
9.99927427e-01
9.99910357e-01
9.99894023e-01
9.99878696e-01
9.99864645e-01
9.99852135e-01
9.99841437e-01
9.99832820e-01
9.99826543e-01
9.99822854e-01
9.99821991e-01
9.99824175e-01
9.99829608e-01
9.99838470e-01
9.99850918e-01
9.99867086e-01
9.99887078e-01
9.99910972e-01
9.99938820e-01
9.99970643e-01
1.00000644e+00
1.00004617e+00
1.00008979e+00
1.00013721e+00
1.00018834e+00
1.00024306e+00
1.00030124e+00
1.00036274e+00
1.00042740e+00
1.00049508e+00
1.00056561e+00
1.00063884e+00
1.00071461e+00
1.00079277e+00
1.00087319e+00
1.00095571e+00
1.00104022e+00
1.00112659e+00
1.00121470e+00
1.00130443e+00
1.00139568e+00
1.00148834e+00
1.00158229e+00
1.00167741e+00
1.00177358e+00
1.00187067e+00
1.00196854e+00
1.00206702e+00
1.00216595e+00
1.00226514e+00
1.00236440e+00
1.00246351e+00
1.00256225e+00
1.00266037e+00
1.00275762e+00
1.00285375e+00
1.00294849e+00
1.00304157e+00
1.00313272e+00
1.00322166e+00
1.00330814e+00
1.00339190e+00
1.00347269e+00
1.00355027e+00
1.00362445e+00
1.00369502e+00
1.00376180e+00
1.00382467e+00
1.00388348e+00
1.00393816e+00
1.00398864e+00
1.00403488e+00
1.00407689e+00
1.00411470e+00
1.00414838e+00
1.00417801e+00
1.00420371e+00
1.00422565e+00
1.00424400e+00
1.00425896e+00
1.00427074e+00
1.00427961e+00
1.00428584e+00
1.00428964e+00
1.00429132e+00
1.00429123e+00
1.00428961e+00
1.00428666e+00
1.00428279e+00
1.00427834e+00
1.00427340e+00
1.00426816e+00
1.00426319e+00
1.00425861e+00
1.00425423e+00
1.00425046e+00
1.00424789e+00
1.00424616e+00
1.00424537e+00
1.00424523e+00
1.00017890e+00
1.00017728e+00
1.00017524e+00
1.00017419e+00
1.00017288e+00
1.00017033e+00
1.00016777e+00
1.00016536e+00
1.00016199e+00
1.00015775e+00
1.00015330e+00
1.00014815e+00
1.00014180e+00
1.00013463e+00
1.00012673e+00
1.00011768e+00
1.00010747e+00
1.00009635e+00
1.00008422e+00
1.00007097e+00
1.00005678e+00
1.00004177e+00
1.00002596e+00
1.00000945e+00
9.99992466e-01
9.99975155e-01
9.99957668e-01
9.99940238e-01
9.99923106e-01
9.99906485e-01
9.99890627e-01
9.99875801e-01
9.99862269e-01
9.99850290e-01
9.99840136e-01
9.99832071e-01
9.99826347e-01
9.99823211e-01
9.99822897e-01
9.99825620e-01
9.99831579e-01
9.99840950e-01
9.99853889e-01
9.99870524e-01
9.99890959e-01
9.99915271e-01
9.99943507e-01
9.99975691e-01
1.00001182e+00
1.00005185e+00
1.00009574e+00
1.00014341e+00
1.00019476e+00
1.00024968e+00
1.00030804e+00
1.00036970e+00
1.00043451e+00
1.00050232e+00
1.00057297e+00
1.00064631e+00
1.00072219e+00
1.00080046e+00
1.00088098e+00
1.00096361e+00
1.00104822e+00
1.00113469e+00
1.00122290e+00
1.00131274e+00
1.00140410e+00
1.00149685e+00
1.00159090e+00
1.00168612e+00
1.00178238e+00
1.00187955e+00
1.00197748e+00
1.00207603e+00
1.00217501e+00
1.00227424e+00
1.00237352e+00
1.00247264e+00
1.00257138e+00
1.00266948e+00
1.00276670e+00
1.00286279e+00
1.00295747e+00
1.00305048e+00
1.00314154e+00
1.00323038e+00
1.00331675e+00
1.00340038e+00
1.00348103e+00
1.00355847e+00
1.00363249e+00
1.00370289e+00
1.00376950e+00
1.00383218e+00
1.00389080e+00
1.00394527e+00
1.00399554e+00
1.00404156e+00
1.00408335e+00
1.00412093e+00
1.00415436e+00
1.00418375e+00
1.00420922e+00
1.00423091e+00
1.00424901e+00
1.00426373e+00
1.00427527e+00
1.00428388e+00
1.00428986e+00
1.00429346e+00
1.00429488e+00
1.00429453e+00
1.00429274e+00
1.00428960e+00
1.00428544e+00
1.00428081e+00
1.00427581e+00
1.00427031e+00
1.00426504e+00
1.00426048e+00
1.00425603e+00
1.00425183e+00
1.00424931e+00
1.00424775e+00
1.00424628e+00
1.00424613e+00
1.00017017e+00
1.00016873e+00
1.00016747e+00
1.00016565e+00
1.00016364e+00
1.00016184e+00
1.00015944e+00
1.00015625e+00
1.00015290e+00
1.00014919e+00
1.00014447e+00
1.00013894e+00
1.00013287e+00
1.00012588e+00
1.00011774e+00
1.00010869e+00
1.00009875e+00
1.00008769e+00
1.00007554e+00
1.00006251e+00
1.00004858e+00
1.00003373e+00
1.00001814e+00
1.00000198e+00
9.99985336e-01
9.99968362e-01
9.99951293e-01
9.99934327e-01
9.99917659e-01
9.99901538e-01
9.99886225e-01
9.99871961e-01
9.99859004e-01
9.99847624e-01
9.99838084e-01
9.99830636e-01
9.99825534e-01
9.99823022e-01
9.99823325e-01
9.99826656e-01
9.99833210e-01
9.99843160e-01
9.99856657e-01
9.99873827e-01
9.99894772e-01
9.99919565e-01
9.99948253e-01
9.99980859e-01
1.00001738e+00
1.00005777e+00
1.00010200e+00
1.00014997e+00
1.00020160e+00
1.00025678e+00
1.00031537e+00
1.00037724e+00
1.00044225e+00
1.00051025e+00
1.00058107e+00
1.00065458e+00
1.00073063e+00
1.00080905e+00
1.00088973e+00
1.00097251e+00
1.00105727e+00
1.00114390e+00
1.00123226e+00
1.00132225e+00
1.00141376e+00
1.00150666e+00
1.00160085e+00
1.00169620e+00
1.00179259e+00
1.00188988e+00
1.00198792e+00
1.00208656e+00
1.00218563e+00
1.00228493e+00
1.00238426e+00
1.00248342e+00
1.00258217e+00
1.00268028e+00
1.00277749e+00
1.00287354e+00
1.00296818e+00
1.00306112e+00
1.00315209e+00
1.00324084e+00
1.00332709e+00
1.00341060e+00
1.00349110e+00
1.00356839e+00
1.00364223e+00
1.00371245e+00
1.00377886e+00
1.00384132e+00
1.00389972e+00
1.00395396e+00
1.00400398e+00
1.00404975e+00
1.00409128e+00
1.00412859e+00
1.00416174e+00
1.00419085e+00
1.00421602e+00
1.00423743e+00
1.00425522e+00
1.00426962e+00
1.00428088e+00
1.00428921e+00
1.00429485e+00
1.00429813e+00
1.00429936e+00
1.00429870e+00
1.00429650e+00
1.00429319e+00
1.00428893e+00
1.00428384e+00
1.00427845e+00
1.00427313e+00
1.00426769e+00
1.00426237e+00
1.00425792e+00
1.00425424e+00
1.00425100e+00
1.00424876e+00
1.00424792e+00
1.00424795e+00
1.00016063e+00
1.00015885e+00
1.00015759e+00
1.00015573e+00
1.00015357e+00
1.00015165e+00
1.00014919e+00
1.00014600e+00
1.00014260e+00
1.00013877e+00
1.00013402e+00
1.00012854e+00
1.00012244e+00
1.00011539e+00
1.00010729e+00
1.00009834e+00
1.00008844e+00
1.00007744e+00
1.00006547e+00
1.00005263e+00
1.00003886e+00
1.00002426e+00
1.00000899e+00
9.99993159e-01
9.99976866e-01
9.99960317e-01
9.99943713e-01
9.99927231e-01
9.99911089e-01
9.99895541e-01
9.99880822e-01
9.99867175e-01
9.99854864e-01
9.99844151e-01
9.99835286e-01
9.99828525e-01
9.99824117e-01
9.99822296e-01
9.99823286e-01
9.99827295e-01
9.99834513e-01
9.99845110e-01
9.99859232e-01
9.99877003e-01
9.99898522e-01
9.99923859e-01
9.99953063e-01
9.99986151e-01
1.00002312e+00
1.00006394e+00
1.00010855e+00
1.00015689e+00
1.00020885e+00
1.00026433e+00
1.00032321e+00
1.00038535e+00
1.00045060e+00
1.00051883e+00
1.00058988e+00
1.00066361e+00
1.00073986e+00
1.00081849e+00
1.00089936e+00
1.00098234e+00
1.00106731e+00
1.00115413e+00
1.00124269e+00
1.00133287e+00
1.00142457e+00
1.00151766e+00
1.00161202e+00
1.00170755e+00
1.00180410e+00
1.00190154e+00
1.00199972e+00
1.00209849e+00
1.00219766e+00
1.00229705e+00
1.00239646e+00
1.00249567e+00
1.00259446e+00
1.00269258e+00
1.00278979e+00
1.00288582e+00
1.00298041e+00
1.00307329e+00
1.00316418e+00
1.00325283e+00
1.00333896e+00
1.00342233e+00
1.00350268e+00
1.00357979e+00
1.00365345e+00
1.00372346e+00
1.00378966e+00
1.00385189e+00
1.00391004e+00
1.00396402e+00
1.00401376e+00
1.00405925e+00
1.00410048e+00
1.00413748e+00
1.00417033e+00
1.00419911e+00
1.00422394e+00
1.00424501e+00
1.00426248e+00
1.00427653e+00
1.00428743e+00
1.00429543e+00
1.00430075e+00
1.00430366e+00
1.00430454e+00
1.00430361e+00
1.00430109e+00
1.00429739e+00
1.00429287e+00
1.00428759e+00
1.00428185e+00
1.00427619e+00
1.00427064e+00
1.00426514e+00
1.00426035e+00
1.00425651e+00
1.00425312e+00
1.00425073e+00
1.00424983e+00
1.00424953e+00
1.00014989e+00
1.00014779e+00
1.00014573e+00
1.00014423e+00
1.00014245e+00
1.00013984e+00
1.00013713e+00
1.00013444e+00
1.00013091e+00
1.00012661e+00
1.00012202e+00
1.00011676e+00
1.00011040e+00
1.00010325e+00
1.00009540e+00
1.00008650e+00
1.00007651e+00
1.00006569e+00
1.00005397e+00
1.00004125e+00
1.00002767e+00
1.00001341e+00
9.99998478e-01
9.99982965e-01
9.99967096e-01
9.99951035e-01
9.99934919e-01
9.99918968e-01
9.99903425e-01
9.99888503e-01
9.99874428e-01
9.99861465e-01
9.99849868e-01
9.99839881e-01
9.99831758e-01
9.99825752e-01
9.99822104e-01
9.99821042e-01
9.99822786e-01
9.99827540e-01
9.99835489e-01
9.99846798e-01
9.99861610e-01
9.99880046e-01
9.99902201e-01
9.99928144e-01
9.99957921e-01
9.99991551e-01
1.00002903e+00
1.00007032e+00
1.00011538e+00
1.00016412e+00
1.00021647e+00
1.00027231e+00
1.00033152e+00
1.00039397e+00
1.00045952e+00
1.00052803e+00
1.00059935e+00
1.00067333e+00
1.00074984e+00
1.00082871e+00
1.00090983e+00
1.00099305e+00
1.00107825e+00
1.00116530e+00
1.00125410e+00
1.00134451e+00
1.00143643e+00
1.00152974e+00
1.00162432e+00
1.00172004e+00
1.00181679e+00
1.00191441e+00
1.00201275e+00
1.00211166e+00
1.00221097e+00
1.00231047e+00
1.00240997e+00
1.00250926e+00
1.00260809e+00
1.00270625e+00
1.00280346e+00
1.00289947e+00
1.00299402e+00
1.00308684e+00
1.00317766e+00
1.00326620e+00
1.00335222e+00
1.00343544e+00
1.00351563e+00
1.00359256e+00
1.00366602e+00
1.00373582e+00
1.00380178e+00
1.00386376e+00
1.00392164e+00
1.00397534e+00
1.00402479e+00
1.00406997e+00
1.00411088e+00
1.00414755e+00
1.00418005e+00
1.00420848e+00
1.00423296e+00
1.00425365e+00
1.00427075e+00
1.00428445e+00
1.00429496e+00
1.00430255e+00
1.00430753e+00
1.00431010e+00
1.00431053e+00
1.00430923e+00
1.00430648e+00
1.00430240e+00
1.00429739e+00
1.00429193e+00
1.00428605e+00
1.00427984e+00
1.00427394e+00
1.00426859e+00
1.00426348e+00
1.00425899e+00
1.00425574e+00
1.00425351e+00
1.00425196e+00
1.00425135e+00
1.00013694e+00
1.00013495e+00
1.00013295e+00
1.00013115e+00
1.00012917e+00
1.00012670e+00
1.00012398e+00
1.00012099e+00
1.00011740e+00
1.00011324e+00
1.00010855e+00
1.00010310e+00
1.00009682e+00
1.00008977e+00
1.00008186e+00
1.00007297e+00
1.00006317e+00
1.00005250e+00
1.00004088e+00
1.00002838e+00
1.00001512e+00
1.00000115e+00
9.99986540e-01
9.99971458e-01
9.99956066e-01
9.99940489e-01
9.99924918e-01
9.99909582e-01
9.99894679e-01
9.99880424e-01
9.99867067e-01
9.99854857e-01
9.99844027e-01
9.99834830e-01
9.99827520e-01
9.99822336e-01
9.99819512e-01
9.99819276e-01
9.99821842e-01
9.99827407e-01
9.99836152e-01
9.99848237e-01
9.99863803e-01
9.99882965e-01
9.99905816e-01
9.99932424e-01
9.99962832e-01
9.99997058e-01
1.00003510e+00
1.00007691e+00
1.00012246e+00
1.00017167e+00
1.00022445e+00
1.00028069e+00
1.00034028e+00
1.00040309e+00
1.00046898e+00
1.00053781e+00
1.00060943e+00
1.00068371e+00
1.00076050e+00
1.00083966e+00
1.00092105e+00
1.00100454e+00
1.00109001e+00
1.00117733e+00
1.00126639e+00
1.00135706e+00
1.00144923e+00
1.00154278e+00
1.00163760e+00
1.00173355e+00
1.00183051e+00
1.00192833e+00
1.00202686e+00
1.00212593e+00
1.00222538e+00
1.00232501e+00
1.00242462e+00
1.00252398e+00
1.00262288e+00
1.00272106e+00
1.00281829e+00
1.00291429e+00
1.00300880e+00
1.00310156e+00
1.00319229e+00
1.00328073e+00
1.00336662e+00
1.00344969e+00
1.00352971e+00
1.00360645e+00
1.00367970e+00
1.00374926e+00
1.00381498e+00
1.00387669e+00
1.00393429e+00
1.00398769e+00
1.00403683e+00
1.00408168e+00
1.00412225e+00
1.00415857e+00
1.00419070e+00
1.00421875e+00
1.00424286e+00
1.00426317e+00
1.00427986e+00
1.00429316e+00
1.00430330e+00
1.00431049e+00
1.00431503e+00
1.00431724e+00
1.00431733e+00
1.00431559e+00
1.00431243e+00
1.00430809e+00
1.00430276e+00
1.00429683e+00
1.00429065e+00
1.00428431e+00
1.00427805e+00
1.00427229e+00
1.00426707e+00
1.00426247e+00
1.00425892e+00
1.00425641e+00
1.00425480e+00
1.00425422e+00
1.00012232e+00
1.00012031e+00
1.00011870e+00
1.00011654e+00
1.00011417e+00
1.00011199e+00
1.00010930e+00
1.00010588e+00
1.00010230e+00
1.00009834e+00
1.00009345e+00
1.00008783e+00
1.00008172e+00
1.00007473e+00
1.00006671e+00
1.00005792e+00
1.00004834e+00
1.00003776e+00
1.00002628e+00
1.00001409e+00
1.00000114e+00
9.99987464e-01
9.99973257e-01
9.99958662e-01
9.99943751e-01
9.99928709e-01
9.99913762e-01
9.99899082e-01
9.99884860e-01
9.99871344e-01
9.99858771e-01
9.99847362e-01
9.99837363e-01
9.99829027e-01
9.99822592e-01
9.99818291e-01
9.99816358e-01
9.99817014e-01
9.99820465e-01
9.99826904e-01
9.99836508e-01
9.99849431e-01
9.99865810e-01
9.99885758e-01
9.99909363e-01
9.99936692e-01
9.99967785e-01
1.00000266e+00
1.00004131e+00
1.00008370e+00
1.00012979e+00
1.00017951e+00
1.00023276e+00
1.00028945e+00
1.00034946e+00
1.00041266e+00
1.00047892e+00
1.00054811e+00
1.00062008e+00
1.00069468e+00
1.00077179e+00
1.00085126e+00
1.00093296e+00
1.00101675e+00
1.00110252e+00
1.00119013e+00
1.00127947e+00
1.00137042e+00
1.00146287e+00
1.00155669e+00
1.00165176e+00
1.00174796e+00
1.00184515e+00
1.00194318e+00
1.00204191e+00
1.00214116e+00
1.00224077e+00
1.00234053e+00
1.00244025e+00
1.00253970e+00
1.00263866e+00
1.00273689e+00
1.00283412e+00
1.00293011e+00
1.00302459e+00
1.00311729e+00
1.00320794e+00
1.00329627e+00
1.00338202e+00
1.00346494e+00
1.00354478e+00
1.00362132e+00
1.00369435e+00
1.00376368e+00
1.00382913e+00
1.00389057e+00
1.00394788e+00
1.00400097e+00
1.00404978e+00
1.00409430e+00
1.00413451e+00
1.00417046e+00
1.00420223e+00
1.00422990e+00
1.00425361e+00
1.00427353e+00
1.00428982e+00
1.00430269e+00
1.00431242e+00
1.00431923e+00
1.00432335e+00
1.00432511e+00
1.00432485e+00
1.00432277e+00
1.00431914e+00
1.00431442e+00
1.00430885e+00
1.00430254e+00
1.00429590e+00
1.00428939e+00
1.00428293e+00
1.00427669e+00
1.00427125e+00
1.00426668e+00
1.00426276e+00
1.00425991e+00
1.00425843e+00
1.00425776e+00
1.00010650e+00
1.00010423e+00
1.00010228e+00
1.00010029e+00
1.00009802e+00
1.00009550e+00
1.00009264e+00
1.00008944e+00
1.00008578e+00
1.00008153e+00
1.00007668e+00
1.00007123e+00
1.00006499e+00
1.00005792e+00
1.00005009e+00
1.00004144e+00
1.00003188e+00
1.00002147e+00
1.00001031e+00
9.99998365e-01
9.99985683e-01
9.99972420e-01
9.99958683e-01
9.99944544e-01
9.99930168e-01
9.99915758e-01
9.99901466e-01
9.99887471e-01
9.99874007e-01
9.99861297e-01
9.99849551e-01
9.99839005e-01
9.99829908e-01
9.99822494e-01
9.99816992e-01
9.99813639e-01
9.99812663e-01
9.99814273e-01
9.99818670e-01
9.99826046e-01
9.99836570e-01
9.99850391e-01
9.99867641e-01
9.99888431e-01
9.99912845e-01
9.99940947e-01
9.99972777e-01
1.00000835e+00
1.00004766e+00
1.00009068e+00
1.00013735e+00
1.00018761e+00
1.00024138e+00
1.00029855e+00
1.00035901e+00
1.00042264e+00
1.00048931e+00
1.00055889e+00
1.00063122e+00
1.00070619e+00
1.00078364e+00
1.00086345e+00
1.00094547e+00
1.00102959e+00
1.00111567e+00
1.00120359e+00
1.00129324e+00
1.00138449e+00
1.00147722e+00
1.00157132e+00
1.00166666e+00
1.00176311e+00
1.00186054e+00
1.00195879e+00
1.00205773e+00
1.00215716e+00
1.00225693e+00
1.00235683e+00
1.00245667e+00
1.00255621e+00
1.00265523e+00
1.00275349e+00
1.00285074e+00
1.00294672e+00
1.00304115e+00
1.00313378e+00
1.00322434e+00
1.00331255e+00
1.00339816e+00
1.00348092e+00
1.00356058e+00
1.00363691e+00
1.00370971e+00
1.00377879e+00
1.00384398e+00
1.00390514e+00
1.00396214e+00
1.00401491e+00
1.00406340e+00
1.00410757e+00
1.00414742e+00
1.00418300e+00
1.00421439e+00
1.00424168e+00
1.00426499e+00
1.00428450e+00
1.00430040e+00
1.00431288e+00
1.00432217e+00
1.00432857e+00
1.00433233e+00
1.00433369e+00
1.00433298e+00
1.00433054e+00
1.00432661e+00
1.00432145e+00
1.00431548e+00
1.00430895e+00
1.00430202e+00
1.00429505e+00
1.00428835e+00
1.00428202e+00
1.00427625e+00
1.00427133e+00
1.00426734e+00
1.00426445e+00
1.00426269e+00
1.00426178e+00
1.00008886e+00
1.00008652e+00
1.00008428e+00
1.00008234e+00
1.00008016e+00
1.00007738e+00
1.00007442e+00
1.00007133e+00
1.00006756e+00
1.00006315e+00
1.00005838e+00
1.00005295e+00
1.00004662e+00
1.00003961e+00
1.00003194e+00
1.00002335e+00
1.00001390e+00
1.00000376e+00
9.99992855e-01
9.99981163e-01
9.99968859e-01
9.99956054e-01
9.99942769e-01
9.99929147e-01
9.99915394e-01
9.99901641e-01
9.99888035e-01
9.99874803e-01
9.99862161e-01
9.99850296e-01
9.99839435e-01
9.99829824e-01
9.99821687e-01
9.99815248e-01
9.99810745e-01
9.99808406e-01
9.99808443e-01
9.99811066e-01
9.99816472e-01
9.99824844e-01
9.99836343e-01
9.99851118e-01
9.99869296e-01
9.99890980e-01
9.99916255e-01
9.99945181e-01
9.99977795e-01
1.00001411e+00
1.00005413e+00
1.00009781e+00
1.00014510e+00
1.00019595e+00
1.00025027e+00
1.00030796e+00
1.00036891e+00
1.00043300e+00
1.00050010e+00
1.00057008e+00
1.00064282e+00
1.00071816e+00
1.00079598e+00
1.00087614e+00
1.00095851e+00
1.00104297e+00
1.00112938e+00
1.00121762e+00
1.00130759e+00
1.00139914e+00
1.00149217e+00
1.00158656e+00
1.00168217e+00
1.00177889e+00
1.00187656e+00
1.00197504e+00
1.00207418e+00
1.00217380e+00
1.00227373e+00
1.00237377e+00
1.00247372e+00
1.00257335e+00
1.00267243e+00
1.00277073e+00
1.00286798e+00
1.00296394e+00
1.00305833e+00
1.00315089e+00
1.00324135e+00
1.00332944e+00
1.00341491e+00
1.00349750e+00
1.00357697e+00
1.00365309e+00
1.00372566e+00
1.00379449e+00
1.00385941e+00
1.00392028e+00
1.00397698e+00
1.00402944e+00
1.00407759e+00
1.00412141e+00
1.00416092e+00
1.00419614e+00
1.00422715e+00
1.00425405e+00
1.00427699e+00
1.00429610e+00
1.00431159e+00
1.00432369e+00
1.00433261e+00
1.00433858e+00
1.00434195e+00
1.00434296e+00
1.00434185e+00
1.00433900e+00
1.00433474e+00
1.00432928e+00
1.00432290e+00
1.00431604e+00
1.00430890e+00
1.00430160e+00
1.00429455e+00
1.00428807e+00
1.00428209e+00
1.00427685e+00
1.00427275e+00
1.00426979e+00
1.00426778e+00
1.00426676e+00
1.00006922e+00
1.00006697e+00
1.00006495e+00
1.00006273e+00
1.00006031e+00
1.00005772e+00
1.00005479e+00
1.00005139e+00
1.00004759e+00
1.00004337e+00
1.00003848e+00
1.00003291e+00
1.00002673e+00
1.00001986e+00
1.00001215e+00
1.00000368e+00
9.99994519e-01
9.99984587e-01
9.99973892e-01
9.99962584e-01
9.99950726e-01
9.99938334e-01
9.99925550e-01
9.99912552e-01
9.99899443e-01
9.99886363e-01
9.99873524e-01
9.99861123e-01
9.99849333e-01
9.99838369e-01
9.99828468e-01
9.99819846e-01
9.99812718e-01
9.99807319e-01
9.99803878e-01
9.99802607e-01
9.99803716e-01
9.99807412e-01
9.99813885e-01
9.99823306e-01
9.99835837e-01
9.99851621e-01
9.99870777e-01
9.99893407e-01
9.99919591e-01
9.99949387e-01
9.99982830e-01
1.00001993e+00
1.00006069e+00
1.00010507e+00
1.00015303e+00
1.00020450e+00
1.00025940e+00
1.00031763e+00
1.00037910e+00
1.00044367e+00
1.00051123e+00
1.00058165e+00
1.00065479e+00
1.00073053e+00
1.00080873e+00
1.00088926e+00
1.00097199e+00
1.00105679e+00
1.00114354e+00
1.00123212e+00
1.00132240e+00
1.00141426e+00
1.00150759e+00
1.00160227e+00
1.00169815e+00
1.00179512e+00
1.00189304e+00
1.00199174e+00
1.00209108e+00
1.00219089e+00
1.00229097e+00
1.00239114e+00
1.00249120e+00
1.00259091e+00
1.00269005e+00
1.00278837e+00
1.00288562e+00
1.00298155e+00
1.00307589e+00
1.00316837e+00
1.00325872e+00
1.00334669e+00
1.00343200e+00
1.00351441e+00
1.00359369e+00
1.00366959e+00
1.00374193e+00
1.00381050e+00
1.00387515e+00
1.00393573e+00
1.00399213e+00
1.00404427e+00
1.00409210e+00
1.00413558e+00
1.00417474e+00
1.00420961e+00
1.00424026e+00
1.00426679e+00
1.00428936e+00
1.00430811e+00
1.00432322e+00
1.00433493e+00
1.00434349e+00
1.00434911e+00
1.00435208e+00
1.00435273e+00
1.00435132e+00
1.00434811e+00
1.00434346e+00
1.00433772e+00
1.00433109e+00
1.00432386e+00
1.00431640e+00
1.00430896e+00
1.00430167e+00
1.00429483e+00
1.00428870e+00
1.00428341e+00
1.00427906e+00
1.00427585e+00
1.00427384e+00
1.00427280e+00
1.00004806e+00
1.00004572e+00
1.00004375e+00
1.00004146e+00
1.00003894e+00
1.00003636e+00
1.00003337e+00
1.00002988e+00
1.00002610e+00
1.00002186e+00
1.00001692e+00
1.00001138e+00
1.00000531e+00
9.99998461e-01
9.99990845e-01
9.99982595e-01
9.99973640e-01
9.99963919e-01
9.99953568e-01
9.99942673e-01
9.99931218e-01
9.99919311e-01
9.99907127e-01
9.99894759e-01
9.99882314e-01
9.99869994e-01
9.99857985e-01
9.99846438e-01
9.99835556e-01
9.99825568e-01
9.99816677e-01
9.99809088e-01
9.99803034e-01
9.99798738e-01
9.99796409e-01
9.99796260e-01
9.99798501e-01
9.99803327e-01
9.99810916e-01
9.99821441e-01
9.99835057e-01
9.99851898e-01
9.99872080e-01
9.99895703e-01
9.99922842e-01
9.99953551e-01
9.99987865e-01
1.00002579e+00
1.00006733e+00
1.00011245e+00
1.00016110e+00
1.00021322e+00
1.00026873e+00
1.00032753e+00
1.00038953e+00
1.00045461e+00
1.00052264e+00
1.00059351e+00
1.00066709e+00
1.00074323e+00
1.00082182e+00
1.00090273e+00
1.00098582e+00
1.00107097e+00
1.00115806e+00