# vtk DataFile Version 2.0
LBM Flow Field - Timestep 2840
ASCII
DATASET STRUCTURED_POINTS
DIMENSIONS 128 128 1
ORIGIN 0.0 0.0 0.0
SPACING 1.0 1.0 1.0
POINT_DATA 16384
SCALARS density double 1
LOOKUP_TABLE default
9.94949168e-01
9.94956644e-01
9.94967881e-01
9.94983286e-01
9.95005472e-01
9.95031292e-01
9.95062165e-01
9.95098348e-01
9.95137982e-01
9.95180912e-01
9.95228390e-01
9.95279228e-01
9.95332370e-01
9.95388439e-01
9.95447449e-01
9.95508400e-01
9.95571176e-01
9.95636129e-01
9.95702920e-01
9.95771224e-01
9.95841257e-01
9.95913163e-01
9.95986832e-01
9.96062390e-01
9.96140122e-01
9.96220199e-01
9.96302773e-01
9.96388131e-01
9.96476549e-01
9.96568236e-01
9.96663414e-01
9.96762319e-01
9.96865120e-01
9.96971940e-01
9.97082872e-01
9.97197963e-01
9.97317190e-01
9.97440482e-01
9.97567721e-01
9.97698739e-01
9.97833322e-01
9.97971228e-01
9.98112188e-01
9.98255920e-01
9.98402134e-01
9.98550547e-01
9.98700889e-01
9.98852909e-01
9.99006384e-01
9.99161120e-01
9.99316950e-01
9.99473740e-01
9.99631381e-01
9.99789787e-01
9.99948884e-01
1.00010861e+00
1.00026891e+00
1.00042971e+00
1.00059093e+00
1.00075249e+00
1.00091427e+00
1.00107614e+00
1.00123794e+00
1.00139950e+00
1.00156063e+00
1.00172113e+00
1.00188078e+00
1.00203940e+00
1.00219677e+00
1.00235274e+00
1.00250713e+00
1.00265984e+00
1.00281076e+00
1.00295986e+00
1.00310712e+00
1.00325257e+00
1.00339627e+00
1.00353830e+00
1.00367879e+00
1.00381787e+00
1.00395567e+00
1.00409233e+00
1.00422796e+00
1.00436266e+00
1.00449647e+00
1.00462942e+00
1.00476148e+00
1.00489255e+00
1.00502250e+00
1.00515112e+00
1.00527816e+00
1.00540335e+00
1.00552634e+00
1.00564677e+00
1.00576427e+00
1.00587846e+00
1.00598898e+00
1.00609544e+00
1.00619753e+00
1.00629497e+00
1.00638750e+00
1.00647490e+00
1.00655706e+00
1.00663391e+00
1.00670538e+00
1.00677148e+00
1.00683234e+00
1.00688806e+00
1.00693875e+00
1.00698463e+00
1.00702598e+00
1.00706296e+00
1.00709585e+00
1.00712495e+00
1.00715048e+00
1.00717276e+00
1.00719206e+00
1.00720858e+00
1.00722252e+00
1.00723436e+00
1.00724409e+00
1.00725190e+00
1.00725800e+00
1.00726282e+00
1.00726596e+00
1.00726784e+00
1.00726694e+00
1.00726598e+00
9.94957312e-01
9.94963700e-01
9.94976422e-01
9.94992218e-01
9.95014118e-01
9.95039930e-01
9.95070756e-01
9.95106412e-01
9.95146107e-01
9.95189081e-01
9.95236068e-01
9.95286562e-01
9.95339755e-01
9.95395593e-01
9.95454170e-01
9.95514986e-01
9.95577698e-01
9.95642394e-01
9.95708974e-01
9.95777248e-01
9.95847207e-01
9.95918995e-01
9.95992635e-01
9.96068228e-01
9.96145956e-01
9.96226047e-01
9.96308681e-01
9.96394100e-01
9.96482555e-01
9.96574290e-01
9.96669510e-01
9.96768431e-01
9.96871221e-01
9.96978011e-01
9.97088883e-01
9.97203879e-01
9.97322979e-01
9.97446116e-01
9.97573170e-01
9.97703979e-01
9.97838335e-01
9.97976002e-01
9.98116715e-01
9.98260200e-01
9.98406174e-01
9.98554358e-01
9.98704487e-01
9.98856313e-01
9.99009615e-01
9.99164197e-01
9.99319893e-01
9.99476564e-01
9.99634099e-01
9.99792403e-01
9.99951401e-01
1.00011102e+00
1.00027120e+00
1.00043187e+00
1.00059295e+00
1.00075434e+00
1.00091592e+00
1.00107758e+00
1.00123914e+00
1.00140044e+00
1.00156129e+00
1.00172150e+00
1.00188086e+00
1.00203918e+00
1.00219627e+00
1.00235196e+00
1.00250609e+00
1.00265855e+00
1.00280926e+00
1.00295817e+00
1.00310525e+00
1.00325055e+00
1.00339411e+00
1.00353603e+00
1.00367642e+00
1.00381539e+00
1.00395308e+00
1.00408962e+00
1.00422512e+00
1.00435965e+00
1.00449328e+00
1.00462601e+00
1.00475781e+00
1.00488859e+00
1.00501821e+00
1.00514647e+00
1.00527313e+00
1.00539792e+00
1.00552049e+00
1.00564051e+00
1.00575761e+00
1.00587142e+00
1.00598157e+00
1.00608772e+00
1.00618954e+00
1.00628676e+00
1.00637912e+00
1.00646643e+00
1.00654856e+00
1.00662543e+00
1.00669698e+00
1.00676324e+00
1.00682430e+00
1.00688026e+00
1.00693124e+00
1.00697746e+00
1.00701915e+00
1.00705652e+00
1.00708980e+00
1.00711929e+00
1.00714525e+00
1.00716795e+00
1.00718760e+00
1.00720451e+00
1.00721891e+00
1.00723112e+00
1.00724103e+00
1.00724928e+00
1.00725577e+00
1.00726077e+00
1.00726373e+00
1.00726636e+00
1.00726651e+00
1.00726636e+00
9.94969363e-01
9.94976698e-01
9.94987903e-01
9.95003837e-01
9.95024848e-01
9.95051755e-01
9.95083019e-01
9.95117387e-01
9.95156779e-01
9.95200726e-01
9.95247290e-01
9.95296894e-01
9.95350320e-01
9.95406351e-01
9.95464316e-01
9.95524803e-01
9.95587652e-01
9.95652142e-01
9.95718342e-01
9.95786520e-01
9.95856444e-01
9.95928008e-01
9.96001482e-01
9.96077026e-01
9.96154667e-01
9.96234622e-01
9.96317183e-01
9.96402546e-01
9.96490910e-01
9.96582546e-01
9.96677687e-01
9.96776507e-01
9.96879170e-01
9.96985825e-01
9.97096549e-01
9.97211369e-01
9.97330275e-01
9.97453205e-01
9.97580037e-01
9.97710609e-01
9.97844724e-01
9.97982147e-01
9.98122620e-01
9.98265870e-01
9.98411621e-01
9.98559597e-01
9.98709534e-01
9.98861188e-01
9.99014335e-01
9.99168779e-01
9.99324351e-01
9.99480907e-01
9.99638330e-01
9.99796522e-01
9.99955399e-01
1.00011489e+00
1.00027491e+00
1.00043540e+00
1.00059627e+00
1.00075742e+00
1.00091873e+00
1.00108007e+00
1.00124129e+00
1.00140223e+00
1.00156269e+00
1.00172248e+00
1.00188142e+00
1.00203930e+00
1.00219595e+00
1.00235121e+00
1.00250492e+00
1.00265697e+00
1.00280729e+00
1.00295583e+00
1.00310257e+00
1.00324754e+00
1.00339081e+00
1.00353244e+00
1.00367255e+00
1.00381127e+00
1.00394871e+00
1.00408499e+00
1.00422022e+00
1.00435448e+00
1.00448782e+00
1.00462025e+00
1.00475172e+00
1.00488215e+00
1.00501140e+00
1.00513928e+00
1.00526555e+00
1.00538994e+00
1.00551212e+00
1.00563175e+00
1.00574849e+00
1.00586196e+00
1.00597180e+00
1.00607770e+00
1.00617933e+00
1.00627639e+00
1.00636866e+00
1.00645599e+00
1.00653818e+00
1.00661514e+00
1.00668689e+00
1.00675344e+00
1.00681478e+00
1.00687107e+00
1.00692249e+00
1.00696918e+00
1.00701131e+00
1.00704917e+00
1.00708300e+00
1.00711302e+00
1.00713950e+00
1.00716272e+00
1.00718288e+00
1.00720034e+00
1.00721525e+00
1.00722780e+00
1.00723826e+00
1.00724694e+00
1.00725373e+00
1.00725902e+00
1.00726264e+00
1.00726496e+00
1.00726621e+00
1.00726659e+00
9.94982803e-01
9.94989578e-01
9.95001877e-01
9.95019111e-01
9.95039918e-01
9.95065847e-01
9.95096982e-01
9.95132198e-01
9.95171349e-01
9.95214521e-01
9.95261273e-01
9.95311170e-01
9.95364080e-01
9.95419744e-01
9.95477867e-01
9.95538207e-01
9.95600629e-01
9.95664975e-01
9.95731140e-01
9.95799049e-01
9.95868716e-01
9.95940176e-01
9.96013507e-01
9.96088824e-01
9.96166306e-01
9.96246136e-01
9.96328528e-01
9.96413711e-01
9.96501926e-01
9.96593400e-01
9.96688351e-01
9.96786976e-01
9.96889442e-01
9.96995874e-01
9.97106356e-01
9.97220925e-01
9.97339567e-01
9.97462216e-01
9.97588762e-01
9.97719045e-01
9.97852870e-01
9.97990008e-01
9.98130208e-01
9.98273200e-01
9.98418711e-01
9.98566468e-01
9.98716211e-01
9.98867692e-01
9.99020687e-01
9.99174997e-01
9.99330447e-01
9.99486888e-01
9.99644194e-01
9.99802260e-01
9.99960994e-01
1.00012031e+00
1.00028014e+00
1.00044038e+00
1.00060096e+00
1.00076178e+00
1.00092270e+00
1.00108361e+00
1.00124435e+00
1.00140475e+00
1.00156465e+00
1.00172384e+00
1.00188216e+00
1.00203941e+00
1.00219542e+00
1.00235003e+00
1.00250312e+00
1.00265457e+00
1.00280430e+00
1.00295228e+00
1.00309849e+00
1.00324297e+00
1.00338577e+00
1.00352698e+00
1.00366669e+00
1.00380502e+00
1.00394209e+00
1.00407802e+00
1.00421290e+00
1.00434682e+00
1.00447981e+00
1.00461187e+00
1.00474297e+00
1.00487303e+00
1.00500189e+00
1.00512937e+00
1.00525525e+00
1.00537924e+00
1.00550104e+00
1.00562031e+00
1.00573671e+00
1.00584988e+00
1.00595948e+00
1.00606518e+00
1.00616667e+00
1.00626367e+00
1.00635596e+00
1.00644334e+00
1.00652568e+00
1.00660290e+00
1.00667495e+00
1.00674185e+00
1.00680364e+00
1.00686045e+00
1.00691240e+00
1.00695967e+00
1.00700244e+00
1.00704096e+00
1.00707544e+00
1.00710614e+00
1.00713330e+00
1.00715719e+00
1.00717804e+00
1.00719613e+00
1.00721162e+00
1.00722477e+00
1.00723589e+00
1.00724504e+00
1.00725224e+00
1.00725789e+00
1.00726216e+00
1.00726498e+00
1.00726713e+00
1.00726734e+00
9.95001596e-01
9.95008706e-01
9.95019342e-01
9.95036152e-01
9.95058114e-01
9.95083752e-01
9.95114194e-01
9.95150035e-01
9.95189262e-01
9.95231651e-01
9.95278437e-01
9.95328666e-01
9.95381123e-01
9.95436375e-01
9.95494594e-01
9.95554800e-01
9.95616793e-01
9.95680953e-01
9.95747030e-01
9.95814655e-01
9.95884035e-01
9.95955337e-01
9.96028472e-01
9.96103530e-01
9.96180799e-01
9.96260448e-01
9.96342618e-01
9.96427570e-01
9.96515575e-01
9.96606826e-01
9.96701527e-01
9.96799897e-01
9.96902100e-01
9.97008245e-01
9.97118422e-01
9.97232676e-01
9.97350989e-01
9.97473296e-01
9.97599493e-01
9.97729429e-01
9.97862910e-01
9.97999712e-01
9.98139591e-01
9.98282284e-01
9.98427519e-01
9.98575027e-01
9.98724548e-01
9.98875835e-01
9.99028660e-01
9.99182819e-01
9.99338130e-01
9.99494438e-01
9.99651606e-01
9.99809519e-01
9.99968074e-01
1.00012718e+00
1.00028674e+00
1.00044668e+00
1.00060689e+00
1.00076727e+00
1.00092770e+00
1.00108804e+00
1.00124816e+00
1.00140788e+00
1.00156705e+00
1.00172547e+00
1.00188299e+00
1.00203942e+00
1.00219460e+00
1.00234839e+00
1.00250066e+00
1.00265131e+00
1.00280028e+00
1.00294754e+00
1.00309307e+00
1.00323690e+00
1.00337911e+00
1.00351975e+00
1.00365894e+00
1.00379679e+00
1.00393340e+00
1.00406889e+00
1.00420335e+00
1.00433685e+00
1.00446942e+00
1.00460107e+00
1.00473175e+00
1.00486137e+00
1.00498980e+00
1.00511686e+00
1.00524230e+00
1.00536586e+00
1.00548726e+00
1.00560616e+00
1.00572221e+00
1.00583508e+00
1.00594445e+00
1.00604997e+00
1.00615134e+00
1.00624833e+00
1.00634069e+00
1.00642821e+00
1.00651079e+00
1.00658836e+00
1.00666082e+00
1.00672818e+00
1.00679057e+00
1.00684804e+00
1.00690066e+00
1.00694866e+00
1.00699225e+00
1.00703158e+00
1.00706687e+00
1.00709842e+00
1.00712644e+00
1.00715115e+00
1.00717283e+00
1.00719167e+00
1.00720794e+00
1.00722189e+00
1.00723360e+00
1.00724328e+00
1.00725121e+00
1.00725745e+00
1.00726219e+00
1.00726545e+00
1.00726748e+00
1.00726833e+00
9.95022120e-01
9.95029092e-01
9.95040977e-01
9.95057147e-01
9.95078657e-01
9.95105172e-01
9.95135671e-01
9.95170478e-01
9.95209767e-01
9.95252880e-01
9.95299185e-01
9.95348708e-01
9.95401423e-01
9.95456786e-01
9.95514395e-01
9.95574292e-01
9.95636356e-01
9.95700240e-01
9.95765857e-01
9.95833306e-01
9.95902528e-01
9.95973475e-01
9.96046295e-01
9.96121155e-01
9.96198159e-01
9.96277487e-01
9.96359391e-01
9.96444091e-01
9.96531793e-01
9.96622734e-01
9.96717141e-01
9.96815195e-01
9.96917052e-01
9.97022848e-01
9.97132667e-01
9.97246541e-01
9.97364463e-01
9.97486377e-01
9.97612178e-01
9.97741717e-01
9.97874810e-01
9.98011241e-01
9.98150767e-01
9.98293129e-01
9.98438063e-01
9.98585299e-01
9.98734578e-01
9.98885651e-01
9.99038286e-01
9.99192273e-01
9.99347424e-01
9.99503572e-01
9.99660570e-01
9.99818292e-01
9.99976623e-01
1.00013546e+00
1.00029470e+00
1.00045425e+00
1.00061400e+00
1.00077385e+00
1.00093367e+00
1.00109332e+00
1.00125268e+00
1.00141157e+00
1.00156985e+00
1.00172734e+00
1.00188388e+00
1.00203932e+00
1.00219349e+00
1.00234627e+00
1.00249755e+00
1.00264724e+00
1.00279528e+00
1.00294164e+00
1.00308633e+00
1.00322937e+00
1.00337083e+00
1.00351079e+00
1.00364934e+00
1.00378659e+00
1.00392264e+00
1.00405760e+00
1.00419155e+00
1.00432456e+00
1.00445665e+00
1.00458783e+00
1.00471804e+00
1.00484720e+00
1.00497516e+00
1.00510175e+00
1.00522674e+00
1.00534987e+00
1.00547085e+00
1.00558936e+00
1.00570508e+00
1.00581768e+00
1.00592682e+00
1.00603219e+00
1.00613351e+00
1.00623052e+00
1.00632298e+00
1.00641073e+00
1.00649363e+00
1.00657158e+00
1.00664454e+00
1.00671254e+00
1.00677559e+00
1.00683377e+00
1.00688723e+00
1.00693613e+00
1.00698061e+00
1.00702086e+00
1.00705716e+00
1.00708969e+00
1.00711866e+00
1.00714433e+00
1.00716696e+00
1.00718674e+00
1.00720389e+00
1.00721863e+00
1.00723111e+00
1.00724159e+00
1.00725023e+00
1.00725696e+00
1.00726216e+00
1.00726618e+00
1.00726863e+00
1.00726959e+00
9.95046953e-01
9.95053926e-01
9.95065982e-01
9.95081875e-01
9.95102659e-01
9.95129300e-01
9.95160256e-01
9.95194707e-01
9.95233694e-01
9.95276948e-01
9.95323071e-01
9.95372269e-01
9.95424920e-01
9.95480116e-01
9.95537363e-01
9.95597034e-01
9.95658909e-01
9.95722453e-01
9.95787739e-01
9.95854938e-01
9.95923853e-01
9.95994448e-01
9.96066962e-01
9.96141524e-01
9.96218191e-01
9.96297188e-01
9.96378777e-01
9.96463146e-01
9.96550499e-01
9.96641093e-01
9.96735145e-01
9.96832822e-01
9.96934290e-01
9.97039686e-01
9.97149089e-01
9.97262534e-01
9.97380018e-01
9.97501490e-01
9.97626847e-01
9.97755946e-01
9.97888612e-01
9.98024631e-01
9.98163766e-01
9.98305766e-01
9.98450367e-01
9.98597304e-01
9.98746315e-01
9.98897149e-01
9.99049571e-01
9.99203362e-01
9.99358325e-01
9.99514283e-01
9.99671076e-01
9.99828566e-01
9.99986623e-01
1.00014513e+00
1.00030398e+00
1.00046306e+00
1.00062226e+00
1.00078147e+00
1.00094056e+00
1.00109940e+00
1.00125786e+00
1.00141577e+00
1.00157300e+00
1.00172939e+00
1.00188479e+00
1.00203904e+00
1.00219203e+00
1.00234362e+00
1.00249373e+00
1.00264228e+00
1.00278921e+00
1.00293452e+00
1.00307822e+00
1.00322033e+00
1.00336092e+00
1.00350007e+00
1.00363786e+00
1.00377441e+00
1.00390982e+00
1.00404417e+00
1.00417754e+00
1.00431000e+00
1.00444156e+00
1.00457221e+00
1.00470191e+00
1.00483057e+00
1.00495804e+00
1.00508414e+00
1.00520866e+00
1.00533134e+00
1.00545190e+00
1.00557003e+00
1.00568542e+00
1.00579774e+00
1.00590666e+00
1.00601191e+00
1.00611320e+00
1.00621026e+00
1.00630288e+00
1.00639091e+00
1.00647418e+00
1.00655259e+00
1.00662614e+00
1.00669483e+00
1.00675863e+00
1.00681766e+00
1.00687206e+00
1.00692193e+00
1.00696741e+00
1.00700875e+00
1.00704614e+00
1.00707974e+00
1.00710980e+00
1.00713658e+00
1.00716025e+00
1.00718104e+00
1.00719919e+00
1.00721483e+00
1.00722822e+00
1.00723951e+00
1.00724880e+00
1.00725632e+00
1.00726219e+00
1.00726649e+00
1.00726902e+00
1.00727040e+00
9.95075572e-01
9.95081828e-01
9.95092950e-01
9.95109719e-01
9.95131111e-01
9.95156656e-01
9.95187247e-01
9.95222511e-01
9.95261301e-01
9.95303653e-01
9.95349924e-01
9.95399432e-01
9.95451440e-01
9.95506125e-01
9.95563504e-01
9.95622949e-01
9.95684204e-01
9.95747471e-01
9.95812621e-01
9.95879375e-01
9.95947828e-01
9.96018161e-01
9.96090352e-01
9.96164471e-01
9.96240768e-01
9.96319445e-01
9.96400646e-01
9.96484607e-01
9.96571593e-01
9.96661805e-01
9.96755436e-01
9.96852692e-01
9.96953740e-01
9.97058691e-01
9.97167631e-01
9.97280610e-01
9.97397622e-01
9.97518611e-01
9.97643487e-01
9.97772116e-01
9.97904321e-01
9.98039896e-01
9.98178614e-01
9.98320224e-01
9.98464467e-01
9.98611077e-01
9.98759793e-01
9.98910362e-01
9.99062540e-01
9.99216104e-01
9.99370844e-01
9.99526571e-01
9.99683114e-01
9.99840318e-01
9.99998041e-01
1.00015615e+00
1.00031453e+00
1.00047305e+00
1.00063161e+00
1.00079006e+00
1.00094830e+00
1.00110620e+00
1.00126361e+00
1.00142039e+00
1.00157642e+00
1.00173154e+00
1.00188562e+00
1.00203853e+00
1.00219015e+00
1.00234039e+00
1.00248915e+00
1.00263639e+00
1.00278206e+00
1.00292617e+00
1.00306872e+00
1.00320976e+00
1.00334935e+00
1.00348757e+00
1.00362451e+00
1.00376026e+00
1.00389493e+00
1.00402859e+00
1.00416133e+00
1.00429318e+00
1.00442416e+00
1.00455426e+00
1.00468342e+00
1.00481155e+00
1.00493850e+00
1.00506411e+00
1.00518815e+00
1.00531038e+00
1.00543052e+00
1.00554827e+00
1.00566333e+00
1.00577539e+00
1.00588414e+00
1.00598928e+00
1.00609055e+00
1.00618771e+00
1.00628054e+00
1.00636886e+00
1.00645255e+00
1.00653152e+00
1.00660572e+00
1.00667511e+00
1.00673976e+00
1.00679975e+00
1.00685513e+00
1.00690603e+00
1.00695267e+00
1.00699517e+00
1.00703370e+00
1.00706848e+00
1.00709976e+00
1.00712771e+00
1.00715251e+00
1.00717441e+00
1.00719361e+00
1.00721029e+00
1.00722462e+00
1.00723676e+00
1.00724686e+00
1.00725512e+00
1.00726149e+00
1.00726628e+00
1.00726963e+00
1.00727123e+00
9.95107014e-01
9.95113616e-01
9.95124170e-01
9.95140529e-01
9.95162071e-01
9.95187675e-01
9.95217940e-01
9.95252983e-01
9.95291740e-01
9.95333953e-01
9.95379957e-01
9.95429147e-01
9.95480908e-01
9.95535391e-01
9.95592420e-01
9.95651435e-01
9.95712379e-01
9.95775336e-01
9.95840042e-01
9.95906367e-01
9.95974473e-01
9.96044410e-01
9.96116153e-01
9.96189871e-01
9.96265789e-01
9.96344044e-01
9.96424822e-01
9.96508384e-01
9.96594956e-01
9.96684733e-01
9.96777929e-01
9.96874745e-01
9.96975331e-01
9.97079806e-01
9.97188263e-01
9.97300748e-01
9.97417254e-01
9.97537735e-01
9.97662106e-01
9.97790234e-01
9.97921951e-01
9.98057057e-01
9.98195329e-01
9.98336521e-01
9.98480376e-01
9.98626631e-01
9.98775022e-01
9.98925292e-01
9.99077192e-01
9.99230489e-01
9.99384963e-01
9.99540412e-01
9.99696650e-01
9.99853507e-01
1.00001083e+00
1.00016847e+00
1.00032629e+00
1.00048416e+00
1.00064195e+00
1.00079955e+00
1.00095681e+00
1.00111362e+00
1.00126985e+00
1.00142536e+00
1.00158002e+00
1.00173371e+00
1.00188631e+00
1.00203770e+00
1.00218779e+00
1.00233650e+00
1.00248376e+00
1.00262953e+00
1.00277379e+00
1.00291654e+00
1.00305781e+00
1.00319765e+00
1.00333612e+00
1.00347330e+00
1.00360928e+00
1.00374416e+00
1.00387802e+00
1.00401093e+00
1.00414297e+00
1.00427417e+00
1.00440454e+00
1.00453405e+00
1.00466265e+00
1.00479023e+00
1.00491666e+00
1.00504177e+00
1.00516533e+00
1.00528710e+00
1.00540682e+00
1.00552421e+00
1.00563895e+00
1.00575076e+00
1.00585934e+00
1.00596440e+00
1.00606568e+00
1.00616295e+00
1.00625601e+00
1.00634467e+00
1.00642882e+00
1.00650836e+00
1.00658324e+00
1.00665343e+00
1.00671898e+00
1.00677994e+00
1.00683637e+00
1.00688843e+00
1.00693625e+00
1.00697994e+00
1.00701972e+00
1.00705581e+00
1.00708833e+00
1.00711748e+00
1.00714352e+00
1.00716662e+00
1.00718692e+00
1.00720466e+00
1.00722000e+00
1.00723306e+00
1.00724402e+00
1.00725303e+00
1.00726009e+00
1.00726534e+00
1.00726894e+00
1.00727102e+00
9.95140900e-01
9.95147510e-01
9.95159222e-01
9.95174937e-01
9.95195637e-01
9.95221870e-01
9.95252247e-01
9.95286363e-01
9.95324958e-01
9.95367513e-01
9.95412989e-01
9.95461513e-01
9.95513296e-01
9.95567589e-01
9.95623911e-01
9.95682525e-01
9.95743305e-01
9.95805752e-01
9.95869866e-01
9.95935855e-01
9.96003586e-01
9.96072974e-01
9.96144252e-01
9.96217598e-01
9.96293061e-01
9.96370831e-01
9.96451191e-01
9.96534335e-01
9.96620443e-01
9.96709763e-01
9.96802518e-01
9.96898867e-01
9.96998965e-01
9.97102953e-01
9.97210914e-01
9.97322883e-01
9.97438865e-01
9.97558826e-01
9.97682673e-01
9.97810281e-01
9.97941491e-01
9.98076109e-01
9.98213914e-01
9.98354664e-01
9.98498106e-01
9.98643978e-01
9.98792012e-01
9.98941948e-01
9.99093531e-01
9.99246516e-01
9.99400674e-01
9.99555788e-01
9.99711658e-01
9.99868098e-01
1.00002494e+00
1.00018202e+00
1.00033918e+00
1.00049630e+00
1.00065323e+00
1.00080984e+00
1.00096600e+00
1.00112159e+00
1.00127649e+00
1.00143057e+00
1.00158372e+00
1.00173582e+00
1.00188678e+00
1.00203650e+00
1.00218490e+00
1.00233192e+00
1.00247751e+00
1.00262166e+00
1.00276435e+00
1.00290561e+00
1.00304547e+00
1.00318399e+00
1.00332123e+00
1.00345727e+00
1.00359221e+00
1.00372613e+00
1.00385911e+00
1.00399122e+00
1.00412252e+00
1.00425303e+00
1.00438275e+00
1.00451166e+00
1.00463968e+00
1.00476672e+00
1.00489262e+00
1.00501722e+00
1.00514031e+00
1.00526164e+00
1.00538096e+00
1.00549798e+00
1.00561243e+00
1.00572401e+00
1.00583242e+00
1.00593742e+00
1.00603875e+00
1.00613615e+00
1.00622944e+00
1.00631849e+00
1.00640312e+00
1.00648325e+00
1.00655884e+00
1.00662988e+00
1.00669634e+00
1.00675829e+00
1.00681585e+00
1.00686909e+00
1.00691810e+00
1.00696306e+00
1.00700416e+00
1.00704153e+00
1.00707534e+00
1.00710580e+00
1.00713311e+00
1.00715741e+00
1.00717888e+00
1.00719773e+00
1.00721409e+00
1.00722815e+00
1.00723997e+00
1.00724964e+00
1.00725743e+00
1.00726339e+00
1.00726749e+00
1.00726986e+00
9.95179148e-01
9.95185447e-01
9.95196661e-01
9.95212487e-01
9.95233162e-01
9.95258902e-01
9.95289048e-01
9.95323227e-01
9.95361495e-01
9.95403495e-01
9.95448732e-01
9.95497097e-01
9.95548364e-01
9.95602081e-01
9.95658099e-01
9.95716350e-01
9.95776513e-01
9.95838429e-01
9.95902168e-01
9.95967660e-01
9.96034805e-01
9.96103726e-01
9.96174574e-01
9.96247405e-01
9.96322367e-01
9.96399704e-01
9.96479613e-01
9.96562274e-01
9.96647926e-01
9.96736802e-01
9.96829085e-01
9.96924953e-01
9.97024573e-01
9.97128068e-01
9.97235517e-01
9.97346967e-01
9.97462427e-01
9.97581855e-01
9.97705167e-01
9.97832248e-01
9.97962939e-01
9.98097052e-01
9.98234370e-01
9.98374657e-01
9.98517661e-01
9.98663118e-01
9.98810760e-01
9.98960323e-01
9.99111542e-01
9.99264165e-01
9.99417948e-01
9.99572663e-01
9.99728094e-01
9.99884039e-01
1.00004031e+00
1.00019674e+00
1.00035315e+00
1.00050940e+00
1.00066535e+00
1.00082085e+00
1.00097578e+00
1.00113002e+00
1.00128345e+00
1.00143595e+00
1.00158743e+00
1.00173780e+00
1.00188696e+00
1.00203484e+00
1.00218140e+00
1.00232658e+00
1.00247036e+00
1.00261274e+00
1.00275374e+00
1.00289337e+00
1.00303170e+00
1.00316878e+00
1.00330469e+00
1.00343951e+00
1.00357332e+00
1.00370621e+00
1.00383826e+00
1.00396951e+00
1.00410003e+00
1.00422982e+00
1.00435888e+00
1.00448717e+00
1.00461462e+00
1.00474110e+00
1.00486649e+00
1.00499060e+00
1.00511322e+00
1.00523413e+00
1.00535306e+00
1.00546974e+00
1.00558390e+00
1.00569526e+00
1.00580354e+00
1.00590847e+00
1.00600984e+00
1.00610739e+00
1.00620095e+00
1.00629036e+00
1.00637548e+00
1.00645623e+00
1.00653255e+00
1.00660441e+00
1.00667181e+00
1.00673481e+00
1.00679348e+00
1.00684787e+00
1.00689813e+00
1.00694441e+00
1.00698681e+00
1.00702547e+00
1.00706062e+00
1.00709243e+00
1.00712098e+00
1.00714649e+00
1.00716920e+00
1.00718919e+00
1.00720657e+00
1.00722157e+00
1.00723432e+00
1.00724484e+00
1.00725329e+00
1.00725972e+00
1.00726424e+00
1.00726719e+00
9.95220473e-01
9.95226488e-01
9.95236981e-01
9.95253104e-01
9.95274058e-01
9.95299006e-01
9.95328708e-01
9.95363096e-01
9.95400963e-01
9.95442219e-01
9.95487253e-01
9.95535383e-01
9.95585927e-01
9.95639095e-01
9.95694822e-01
9.95752485e-01
9.95811946e-01
9.95873413e-01
9.95936678e-01
9.96001510e-01
9.96068087e-01
9.96136558e-01
9.96206867e-01
9.96279130e-01
9.96353621e-01
9.96430501e-01
9.96509904e-01
9.96592086e-01
9.96677295e-01
9.96765707e-01
9.96857509e-01
9.96952908e-01
9.97052055e-01
9.97155053e-01
9.97261995e-01
9.97372936e-01
9.97487874e-01
9.97606769e-01
9.97729550e-01
9.97856101e-01
9.97986266e-01
9.98119863e-01
9.98256682e-01
9.98396488e-01
9.98539028e-01
9.98684040e-01
9.98831255e-01
9.98980401e-01
9.99131207e-01
9.99283410e-01
9.99436755e-01
9.99590999e-01
9.99745911e-01
9.99901274e-01
1.00005688e+00
1.00021255e+00
1.00036811e+00
1.00052338e+00
1.00067822e+00
1.00083249e+00
1.00098606e+00
1.00113880e+00
1.00129062e+00
1.00144141e+00
1.00159108e+00
1.00173955e+00
1.00188676e+00
1.00203267e+00
1.00217723e+00
1.00232043e+00
1.00246226e+00
1.00260275e+00
1.00274191e+00
1.00287981e+00
1.00301649e+00
1.00315203e+00
1.00328651e+00
1.00342002e+00
1.00355264e+00
1.00368444e+00
1.00381550e+00
1.00394586e+00
1.00407557e+00
1.00420463e+00
1.00433301e+00
1.00446068e+00
1.00458755e+00
1.00471350e+00
1.00483838e+00
1.00496202e+00
1.00508420e+00
1.00520469e+00
1.00532325e+00
1.00543962e+00
1.00555351e+00
1.00566466e+00
1.00577283e+00
1.00587772e+00
1.00597913e+00
1.00607684e+00
1.00617068e+00
1.00626045e+00
1.00634606e+00
1.00642743e+00
1.00650446e+00
1.00657713e+00
1.00664548e+00
1.00670952e+00
1.00676926e+00
1.00682483e+00
1.00687635e+00
1.00692388e+00
1.00696756e+00
1.00700757e+00
1.00704405e+00
1.00707712e+00
1.00710696e+00
1.00713375e+00
1.00715761e+00
1.00717870e+00
1.00719717e+00
1.00721314e+00
1.00722674e+00
1.00723807e+00
1.00724717e+00
1.00725420e+00
1.00725939e+00
1.00726273e+00
9.95264393e-01
9.95270647e-01
9.95281290e-01
9.95296804e-01
9.95317262e-01
9.95342354e-01
9.95371851e-01
9.95405460e-01
9.95442934e-01
9.95484076e-01
9.95528500e-01
9.95575855e-01
9.95626018e-01
9.95678763e-01
9.95733700e-01
9.95790678e-01
9.95849694e-01
9.95910543e-01
9.95973051e-01
9.96037311e-01
9.96103385e-01
9.96171220e-01
9.96240917e-01
9.96312694e-01
9.96386682e-01
9.96463014e-01
9.96541931e-01
9.96623668e-01
9.96708402e-01
9.96796337e-01
9.96887691e-01
9.96982635e-01
9.97081303e-01
9.97183822e-01
9.97290281e-01
9.97400721e-01
9.97515143e-01
9.97633520e-01
9.97755778e-01
9.97881799e-01
9.98011437e-01
9.98144515e-01
9.98280823e-01
9.98420128e-01
9.98562180e-01
9.98706718e-01
9.98853466e-01
9.99002147e-01
9.99152485e-01
9.99304205e-01
9.99457041e-01
9.99610735e-01
9.99765041e-01
9.99919728e-01
1.00007458e+00
1.00022938e+00
1.00038396e+00
1.00053813e+00
1.00069174e+00
1.00084465e+00
1.00099672e+00
1.00114784e+00
1.00129791e+00
1.00144683e+00
1.00159455e+00
1.00174099e+00
1.00188612e+00
1.00202991e+00
1.00217234e+00
1.00231342e+00
1.00245317e+00
1.00259164e+00
1.00272886e+00
1.00286490e+00
1.00299983e+00
1.00313374e+00
1.00326672e+00
1.00339884e+00
1.00353020e+00
1.00366086e+00
1.00379089e+00
1.00392033e+00
1.00404921e+00
1.00417752e+00
1.00430523e+00
1.00443228e+00
1.00455858e+00
1.00468400e+00
1.00480840e+00
1.00493158e+00
1.00505334e+00
1.00517345e+00
1.00529167e+00
1.00540773e+00
1.00552138e+00
1.00563235e+00
1.00574039e+00
1.00584525e+00
1.00594672e+00
1.00604458e+00
1.00613866e+00
1.00622881e+00
1.00631490e+00
1.00639684e+00
1.00647457e+00
1.00654806e+00
1.00661731e+00
1.00668231e+00
1.00674314e+00
1.00679988e+00
1.00685258e+00
1.00690133e+00
1.00694630e+00
1.00698762e+00
1.00702537e+00
1.00705969e+00
1.00709081e+00
1.00711882e+00
1.00714381e+00
1.00716599e+00
1.00718553e+00
1.00720245e+00
1.00721689e+00
1.00722900e+00
1.00723883e+00
1.00724640e+00
1.00725197e+00
1.00725578e+00
9.95311519e-01
9.95317572e-01
9.95328508e-01
9.95343646e-01
9.95363562e-01
9.95388587e-01
9.95417751e-01
9.95450653e-01
9.95487720e-01
9.95528489e-01
9.95572179e-01
9.95618862e-01
9.95668539e-01
9.95720581e-01
9.95774713e-01
9.95831082e-01
9.95889462e-01
9.95949514e-01
9.96011328e-01
9.96075006e-01
9.96140406e-01
9.96207558e-01
9.96276697e-01
9.96347933e-01
9.96421339e-01
9.96497144e-01
9.96575596e-01
9.96656854e-01
9.96741107e-01
9.96828599e-01
9.96919517e-01
9.97014005e-01
9.97112218e-01
9.97214285e-01
9.97320276e-01
9.97430229e-01
9.97544160e-01
9.97662036e-01
9.97783779e-01
9.97909280e-01
9.98038397e-01
9.98170953e-01
9.98306740e-01
9.98445529e-01
9.98587072e-01
9.98731101e-01
9.98877341e-01
9.99025509e-01
9.99175319e-01
9.99326489e-01
9.99478738e-01
9.99631797e-01
9.99785405e-01
9.99939314e-01
1.00009329e+00
1.00024712e+00
1.00040060e+00
1.00055355e+00
1.00070581e+00
1.00085722e+00
1.00100766e+00
1.00115701e+00
1.00130519e+00
1.00145213e+00
1.00159775e+00
1.00174203e+00
1.00188494e+00
1.00202647e+00
1.00216665e+00
1.00230549e+00
1.00244305e+00
1.00257937e+00
1.00271454e+00
1.00284863e+00
1.00298173e+00
1.00311393e+00
1.00324532e+00
1.00337600e+00
1.00350604e+00
1.00363552e+00
1.00376449e+00
1.00389299e+00
1.00402102e+00
1.00414857e+00
1.00427561e+00
1.00440205e+00
1.00452780e+00
1.00465273e+00
1.00477666e+00
1.00489942e+00
1.00502079e+00
1.00514055e+00
1.00525844e+00
1.00537423e+00
1.00548765e+00
1.00559845e+00
1.00570639e+00
1.00581122e+00
1.00591275e+00
1.00601076e+00
1.00610508e+00
1.00619558e+00
1.00628213e+00
1.00636462e+00
1.00644301e+00
1.00651727e+00
1.00658736e+00
1.00665330e+00
1.00671517e+00
1.00677299e+00
1.00682681e+00
1.00687678e+00
1.00692298e+00
1.00696549e+00
1.00700446e+00
1.00704006e+00
1.00707235e+00
1.00710148e+00
1.00712762e+00
1.00715088e+00
1.00717136e+00
1.00718919e+00
1.00720450e+00
1.00721732e+00
1.00722778e+00
1.00723595e+00
1.00724206e+00
1.00724625e+00
9.95362231e-01
9.95367967e-01
9.95378226e-01
9.95393393e-01
9.95413257e-01
9.95437498e-01
9.95466075e-01
9.95498841e-01
9.95535300e-01
9.95575117e-01
9.95618271e-01
9.95664467e-01
9.95713215e-01
9.95764377e-01
9.95817926e-01
9.95873543e-01
9.95930976e-01
9.95990289e-01
9.96051470e-01
9.96114353e-01
9.96178980e-01
9.96245535e-01
9.96314069e-01
9.96384644e-01
9.96457483e-01
9.96532803e-01
9.96610742e-01
9.96691497e-01
9.96775314e-01
9.96862379e-01
9.96952851e-01
9.97046909e-01
9.97144705e-01
9.97246336e-01
9.97351875e-01
9.97461375e-01
9.97574840e-01
9.97692230e-01
9.97813475e-01
9.97938472e-01
9.98067075e-01
9.98199107e-01
9.98334366e-01
9.98472626e-01
9.98613632e-01
9.98757120e-01
9.98902809e-01
9.99050410e-01
9.99199630e-01
9.99350176e-01
9.99501757e-01
9.99654090e-01
9.99806899e-01
9.99959924e-01
1.00011292e+00
1.00026565e+00
1.00041791e+00
1.00056951e+00
1.00072028e+00
1.00087007e+00
1.00101874e+00
1.00116620e+00
1.00131237e+00
1.00145717e+00
1.00160058e+00
1.00174256e+00
1.00188313e+00
1.00202229e+00
1.00216010e+00
1.00229659e+00
1.00243184e+00
1.00256593e+00
1.00269895e+00
1.00283100e+00
1.00296218e+00
1.00309260e+00
1.00322235e+00
1.00335153e+00
1.00348021e+00
1.00360847e+00
1.00373636e+00
1.00386389e+00
1.00399107e+00
1.00411788e+00
1.00424425e+00
1.00437010e+00
1.00449532e+00
1.00461976e+00
1.00474326e+00
1.00486562e+00
1.00498663e+00
1.00510606e+00
1.00522366e+00
1.00533920e+00
1.00545241e+00
1.00556305e+00
1.00567090e+00
1.00577570e+00
1.00587727e+00
1.00597541e+00
1.00606996e+00
1.00616076e+00
1.00624772e+00
1.00633073e+00
1.00640973e+00
1.00648468e+00
1.00655557e+00
1.00662241e+00
1.00668522e+00
1.00674403e+00
1.00679894e+00
1.00685003e+00
1.00689734e+00
1.00694100e+00
1.00698116e+00
1.00701790e+00
1.00705130e+00
1.00708152e+00
1.00710873e+00
1.00713297e+00
1.00715436e+00
1.00717306e+00
1.00718917e+00
1.00720270e+00
1.00721377e+00
1.00722243e+00
1.00722893e+00
1.00723358e+00
9.95415532e-01
9.95421149e-01
9.95431089e-01
9.95446003e-01
9.95465549e-01
9.95489230e-01
9.95517285e-01
9.95549520e-01
9.95585234e-01
9.95624319e-01
9.95666804e-01
9.95712146e-01
9.95759985e-01
9.95810375e-01
9.95863087e-01
9.95917739e-01
9.95974319e-01
9.96032867e-01
9.96093184e-01
9.96155219e-01
9.96219144e-01
9.96285009e-01
9.96352819e-01
9.96422763e-01
9.96495057e-01
9.96569822e-01
9.96647228e-01
9.96727526e-01
9.96810908e-01
9.96897532e-01
9.96987587e-01
9.97081251e-01
9.97178642e-01
9.97279856e-01
9.97384981e-01
9.97494056e-01
9.97607074e-01
9.97724002e-01
9.97844773e-01
9.97969278e-01
9.98097372e-01
9.98228884e-01
9.98363612e-01
9.98501324e-01
9.98641770e-01
9.98784682e-01
9.98929775e-01
9.99076753e-01
9.99225317e-01
9.99375163e-01
9.99525989e-01
9.99677500e-01
9.99829408e-01
9.99981438e-01
1.00013333e+00
1.00028485e+00
1.00043577e+00
1.00058589e+00
1.00073504e+00
1.00088306e+00
1.00102985e+00
1.00117528e+00
1.00131930e+00
1.00146186e+00
1.00160292e+00