# vtk DataFile Version 2.0
LBM Flow Field - Timestep 580
ASCII
DATASET STRUCTURED_POINTS
DIMENSIONS 128 128 1
ORIGIN 0.0 0.0 0.0
SPACING 1.0 1.0 1.0
POINT_DATA 16384
SCALARS density double 1
LOOKUP_TABLE default
9.94876295e-01
9.94874504e-01
9.94872349e-01
9.94874553e-01
9.94877808e-01
9.94881102e-01
9.94886113e-01
9.94893115e-01
9.94900898e-01
9.94909852e-01
9.94920839e-01
9.94933403e-01
9.94947122e-01
9.94962456e-01
9.94979426e-01
9.94997519e-01
9.95016635e-01
9.95036902e-01
9.95058145e-01
9.95080272e-01
9.95103453e-01
9.95127800e-01
9.95153240e-01
9.95179614e-01
9.95206622e-01
9.95233821e-01
9.95260774e-01
9.95287252e-01
9.95313311e-01
9.95339285e-01
9.95365674e-01
9.95392887e-01
9.95420909e-01
9.95449061e-01
9.95475950e-01
9.95499723e-01
9.95518609e-01
9.95531652e-01
9.95539480e-01
9.95544904e-01
9.95553129e-01
9.95571504e-01
9.95608790e-01
9.95674058e-01
9.95775458e-01
9.95919055e-01
9.96107923e-01
9.96341661e-01
9.96616372e-01
9.96925061e-01
9.97258357e-01
9.97605444e-01
9.97955065e-01
9.98296458e-01
9.98620154e-01
9.98918553e-01
9.99186264e-01
9.99420197e-01
9.99619458e-01
9.99785079e-01
9.99919663e-01
1.00002699e+00
1.00011165e+00
1.00017874e+00
1.00023363e+00
1.00028182e+00
1.00032889e+00
1.00038047e+00
1.00044216e+00
1.00051954e+00
1.00061796e+00
1.00074232e+00
1.00089670e+00
1.00108391e+00
1.00130494e+00
1.00155853e+00
1.00184082e+00
1.00214526e+00
1.00246298e+00
1.00278341e+00
1.00309538e+00
1.00338842e+00
1.00365403e+00
1.00388671e+00
1.00408458e+00
1.00424933e+00
1.00438557e+00
1.00449980e+00
1.00459910e+00
1.00468991e+00
1.00477713e+00
1.00486374e+00
1.00495084e+00
1.00503808e+00
1.00512435e+00
1.00520832e+00
1.00528897e+00
1.00536567e+00
1.00543820e+00
1.00550652e+00
1.00557051e+00
1.00562982e+00
1.00568391e+00
1.00573208e+00
1.00577357e+00
1.00580780e+00
1.00583462e+00
1.00585408e+00
1.00586647e+00
1.00587248e+00
1.00587311e+00
1.00586906e+00
1.00586125e+00
1.00585085e+00
1.00583873e+00
1.00582567e+00
1.00581261e+00
1.00579981e+00
1.00578789e+00
1.00577799e+00
1.00576925e+00
1.00576123e+00
1.00575515e+00
1.00575083e+00
1.00574640e+00
1.00574410e+00
1.00573645e+00
1.00573011e+00
9.94875125e-01
9.94875185e-01
9.94874462e-01
9.94876572e-01
9.94879703e-01
9.94883469e-01
9.94888495e-01
9.94895298e-01
9.94903279e-01
9.94912431e-01
9.94923260e-01
9.94935751e-01
9.94949560e-01
9.94964789e-01
9.94981508e-01
9.94999485e-01
9.95018534e-01
9.95038680e-01
9.95059873e-01
9.95082047e-01
9.95105214e-01
9.95129405e-01
9.95154547e-01
9.95180490e-01
9.95206999e-01
9.95233796e-01
9.95260605e-01
9.95287271e-01
9.95313804e-01
9.95340366e-01
9.95367183e-01
9.95394379e-01
9.95421769e-01
9.95448738e-01
9.95474222e-01
9.95496916e-01
9.95515692e-01
9.95530161e-01
9.95541264e-01
9.95551736e-01
9.95566298e-01
9.95591481e-01
9.95635049e-01
9.95705101e-01
9.95809004e-01
9.95952362e-01
9.96138172e-01
9.96366313e-01
9.96633457e-01
9.96933355e-01
9.97257459e-01
9.97595739e-01
9.97937602e-01
9.98272779e-01
9.98592088e-01
9.98888015e-01
9.99155072e-01
9.99389939e-01
9.99591400e-01
9.99760140e-01
9.99898426e-01
1.00000976e+00
1.00009852e+00
1.00016968e+00
1.00022856e+00
1.00028070e+00
1.00033172e+00
1.00038730e+00
1.00045308e+00
1.00053462e+00
1.00063715e+00
1.00076535e+00
1.00092301e+00
1.00111250e+00
1.00133440e+00
1.00158704e+00
1.00186628e+00
1.00216557e+00
1.00247628e+00
1.00278847e+00
1.00309186e+00
1.00337702e+00
1.00363646e+00
1.00386546e+00
1.00406249e+00
1.00422908e+00
1.00436921e+00
1.00448844e+00
1.00459281e+00
1.00468787e+00
1.00477794e+00
1.00486586e+00
1.00495293e+00
1.00503928e+00
1.00512431e+00
1.00520716e+00
1.00528702e+00
1.00536328e+00
1.00543554e+00
1.00550353e+00
1.00556693e+00
1.00562534e+00
1.00567827e+00
1.00572515e+00
1.00576542e+00
1.00579871e+00
1.00582490e+00
1.00584404e+00
1.00585649e+00
1.00586288e+00
1.00586406e+00
1.00586072e+00
1.00585385e+00
1.00584447e+00
1.00583346e+00
1.00582144e+00
1.00580929e+00
1.00579748e+00
1.00578663e+00
1.00577720e+00
1.00576861e+00
1.00576140e+00
1.00575591e+00
1.00575166e+00
1.00574684e+00
1.00574482e+00
1.00573860e+00
1.00573630e+00
9.94873839e-01
9.94875174e-01
9.94877871e-01
9.94878992e-01
9.94881169e-01
9.94886031e-01
9.94891621e-01
9.94897664e-01
9.94905648e-01
9.94915470e-01
9.94926197e-01
9.94938295e-01
9.94952278e-01
9.94967598e-01
9.94983968e-01
9.95001720e-01
9.95020775e-01
9.95040799e-01
9.95061821e-01
9.95083931e-01
9.95106991e-01
9.95130892e-01
9.95155612e-01
9.95181044e-01
9.95207018e-01
9.95233393e-01
9.95260053e-01
9.95286891e-01
9.95313843e-01
9.95340908e-01
9.95368067e-01
9.95395203e-01
9.95422019e-01
9.95447988e-01
9.95472380e-01
9.95494414e-01
9.95513538e-01
9.95529842e-01
9.95544497e-01
9.95560117e-01
9.95580936e-01
9.95612695e-01
9.95662212e-01
9.95736673e-01
9.95842734e-01
9.95985577e-01
9.96168139e-01
9.96390594e-01
9.96650177e-01
9.96941372e-01
9.97256429e-01
9.97586082e-01
9.97920378e-01
9.98249514e-01
9.98564576e-01
9.98858123e-01
9.99124565e-01
9.99360350e-01
9.99563955e-01
9.99735722e-01
9.99877597e-01
9.99992805e-01
1.00008553e+00
1.00016063e+00
1.00022338e+00
1.00027933e+00
1.00033414e+00
1.00039356e+00
1.00046327e+00
1.00054877e+00
1.00065521e+00
1.00078708e+00
1.00094784e+00
1.00113953e+00
1.00136230e+00
1.00161412e+00
1.00189063e+00
1.00218523e+00
1.00248956e+00
1.00279422e+00
1.00308973e+00
1.00336762e+00
1.00362131e+00
1.00384679e+00
1.00404288e+00
1.00421098e+00
1.00435458e+00
1.00447840e+00
1.00458755e+00
1.00468672e+00
1.00477972e+00
1.00486914e+00
1.00495643e+00
1.00504210e+00
1.00512601e+00
1.00520770e+00
1.00528657e+00
1.00536207e+00
1.00543367e+00
1.00550089e+00
1.00556325e+00
1.00562034e+00
1.00567165e+00
1.00571674e+00
1.00575534e+00
1.00578725e+00
1.00581234e+00
1.00583081e+00
1.00584318e+00
1.00584987e+00
1.00585149e+00
1.00584907e+00
1.00584353e+00
1.00583546e+00
1.00582579e+00
1.00581535e+00
1.00580460e+00
1.00579437e+00
1.00578487e+00
1.00577582e+00
1.00576824e+00
1.00576267e+00
1.00575729e+00
1.00575285e+00
1.00574891e+00
1.00574569e+00
1.00574534e+00
1.00574448e+00
9.94875857e-01
9.94876558e-01
9.94878715e-01
9.94880944e-01
9.94884099e-01
9.94888343e-01
9.94893852e-01
9.94900598e-01
9.94908654e-01
9.94918149e-01
9.94929081e-01
9.94941414e-01
9.94955171e-01
9.94970292e-01
9.94986691e-01
9.95004292e-01
9.95023031e-01
9.95042854e-01
9.95063717e-01
9.95085545e-01
9.95108260e-01
9.95131783e-01
9.95156017e-01
9.95180857e-01
9.95206240e-01
9.95232117e-01
9.95258455e-01
9.95285221e-01
9.95312345e-01
9.95339691e-01
9.95367033e-01
9.95394046e-01
9.95420321e-01
9.95445382e-01
9.95468770e-01
9.95490189e-01
9.95509693e-01
9.95527941e-01
9.95546462e-01
9.95567879e-01
9.95596023e-01
9.95635859e-01
9.95693172e-01
9.95774044e-01
9.95884160e-01
9.96028045e-01
9.96208378e-01
9.96425488e-01
9.96677133e-01
9.96958592e-01
9.97263032e-01
9.97582116e-01
9.97906720e-01
9.98227693e-01
9.98536552e-01
9.98826054e-01
9.99090594e-01
9.99326432e-01
9.99531732e-01
9.99706466e-01
9.99852200e-01
9.99971824e-01
1.00006926e+00
1.00014917e+00
1.00021675e+00
1.00027751e+00
1.00033713e+00
1.00040137e+00
1.00047590e+00
1.00056614e+00
1.00067706e+00
1.00081288e+00
1.00097667e+00
1.00117002e+00
1.00139267e+00
1.00164224e+00
1.00191424e+00
1.00220223e+00
1.00249832e+00
1.00279391e+00
1.00308058e+00
1.00335091e+00
1.00359928e+00
1.00382227e+00
1.00401883e+00
1.00419001e+00
1.00433855e+00
1.00446816e+00
1.00458295e+00
1.00468682e+00
1.00478307e+00
1.00487419e+00
1.00496184e+00
1.00504693e+00
1.00512977e+00
1.00521025e+00
1.00528794e+00
1.00536229e+00
1.00543267e+00
1.00549847e+00
1.00555914e+00
1.00561420e+00
1.00566330e+00
1.00570619e+00
1.00574270e+00
1.00577281e+00
1.00579662e+00
1.00581436e+00
1.00582645e+00
1.00583343e+00
1.00583597e+00
1.00583489e+00
1.00583088e+00
1.00582467e+00
1.00581706e+00
1.00580874e+00
1.00579994e+00
1.00579132e+00
1.00578332e+00
1.00577603e+00
1.00576972e+00
1.00576444e+00
1.00575940e+00
1.00575603e+00
1.00575391e+00
1.00575055e+00
1.00574937e+00
1.00574847e+00
9.94878111e-01
9.94878894e-01
9.94879760e-01
9.94882862e-01
9.94886932e-01
9.94890733e-01
9.94896152e-01
9.94903556e-01
9.94911747e-01
9.94920947e-01
9.94932055e-01
9.94944640e-01
9.94958178e-01
9.94973058e-01
9.94989413e-01
9.95006803e-01
9.95025190e-01
9.95044776e-01
9.95065426e-01
9.95086922e-01
9.95109228e-01
9.95132245e-01
9.95155798e-01
9.95179836e-01
9.95204434e-01
9.95229687e-01
9.95255683e-01
9.95282457e-01
9.95309887e-01
9.95337636e-01
9.95365202e-01
9.95392003e-01
9.95417499e-01
9.95441335e-01
9.95463461e-01
9.95484219e-01
9.95504412e-01
9.95525365e-01
9.95548983e-01
9.95577837e-01
9.95615206e-01
9.95665071e-01
9.95731969e-01
9.95820678e-01
9.95935746e-01
9.96080939e-01
9.96258645e-01
9.96469393e-01
9.96711570e-01
9.96981394e-01
9.97273129e-01
9.97579541e-01
9.97892496e-01
9.98203620e-01
9.98504944e-01
9.98789463e-01
9.99051557e-01
9.99287263e-01
9.99494383e-01
9.99672452e-01
9.99822593e-01
9.99947299e-01
1.00005018e+00
1.00013568e+00
1.00020888e+00
1.00027524e+00
1.00034047e+00
1.00041033e+00
1.00049045e+00
1.00058618e+00
1.00070226e+00
1.00084258e+00
1.00100979e+00
1.00120497e+00
1.00142734e+00
1.00167416e+00
1.00194076e+00
1.00222089e+00
1.00250720e+00
1.00279203e+00
1.00306813e+00
1.00332939e+00
1.00357128e+00
1.00379117e+00
1.00398822e+00
1.00416315e+00
1.00431779e+00
1.00445471e+00
1.00457675e+00
1.00468675e+00
1.00478735e+00
1.00488083e+00
1.00496907e+00
1.00505347e+00
1.00513491e+00
1.00521374e+00
1.00528984e+00
1.00536269e+00
1.00543156e+00
1.00549566e+00
1.00555429e+00
1.00560693e+00
1.00565333e+00
1.00569348e+00
1.00572740e+00
1.00575529e+00
1.00577753e+00
1.00579441e+00
1.00580624e+00
1.00581367e+00
1.00581741e+00
1.00581792e+00
1.00581584e+00
1.00581206e+00
1.00580699e+00
1.00580106e+00
1.00579483e+00
1.00578846e+00
1.00578227e+00
1.00577697e+00
1.00577197e+00
1.00576731e+00
1.00576382e+00
1.00576094e+00
1.00575846e+00
1.00575675e+00
1.00575615e+00
1.00575512e+00
9.94879415e-01
9.94880538e-01
9.94882508e-01
9.94885135e-01
9.94888676e-01
9.94893495e-01
9.94899351e-01
9.94906215e-01
9.94914569e-01
9.94924371e-01
9.94935351e-01
9.94947623e-01
9.94961320e-01
9.94976242e-01
9.94992224e-01
9.95009334e-01
9.95027587e-01
9.95046844e-01
9.95067022e-01
9.95088091e-01
9.95109902e-01
9.95132254e-01
9.95155065e-01
9.95178356e-01
9.95202226e-01
9.95226868e-01
9.95252490e-01
9.95279150e-01
9.95306661e-01
9.95334558e-01
9.95362158e-01
9.95388699e-01
9.95413564e-01
9.95436522e-01
9.95457883e-01
9.95478559e-01
9.95500026e-01
9.95524223e-01
9.95553431e-01
9.95590206e-01
9.95637343e-01
9.95697882e-01
9.95775108e-01
9.95872447e-01
9.95993232e-01
9.96140338e-01
9.96315744e-01
9.96520096e-01
9.96752377e-01
9.97009750e-01
9.97287639e-01
9.97580012e-01
9.97879835e-01
9.98179629e-01
9.98472048e-01
9.98750414e-01
9.99009155e-01
9.99244121e-01
9.99452759e-01
9.99634153e-01
9.99788951e-01
9.99919206e-01
1.00002816e+00
1.00012001e+00
1.00019966e+00
1.00027251e+00
1.00034423e+00
1.00042055e+00
1.00050706e+00
1.00060894e+00
1.00073067e+00
1.00087576e+00
1.00104635e+00
1.00124299e+00
1.00146441e+00
1.00170752e+00
1.00196759e+00
1.00223866e+00
1.00251410e+00
1.00278732e+00
1.00305236e+00
1.00330440e+00
1.00354001e+00
1.00375721e+00
1.00395525e+00
1.00413438e+00
1.00429550e+00
1.00443999e+00
1.00456948e+00
1.00468583e+00
1.00479107e+00
1.00488731e+00
1.00497657e+00
1.00506067e+00
1.00514096e+00
1.00521820e+00
1.00529250e+00
1.00536344e+00
1.00543025e+00
1.00549202e+00
1.00554802e+00
1.00559779e+00
1.00564116e+00
1.00567824e+00
1.00570939e+00
1.00573501e+00
1.00575550e+00
1.00577134e+00
1.00578305e+00
1.00579111e+00
1.00579604e+00
1.00579842e+00
1.00579886e+00
1.00579784e+00
1.00579559e+00
1.00579250e+00
1.00578914e+00
1.00578557e+00
1.00578170e+00
1.00577800e+00
1.00577460e+00
1.00577159e+00
1.00576926e+00
1.00576662e+00
1.00576444e+00
1.00576375e+00
1.00576292e+00
1.00576197e+00
9.94881830e-01
9.94882873e-01
9.94885185e-01
9.94887648e-01
9.94891095e-01
9.94896391e-01
9.94902499e-01
9.94909313e-01
9.94917810e-01
9.94927838e-01
9.94938790e-01
9.94950984e-01
9.94964688e-01
9.94979474e-01
9.94995188e-01
9.95012076e-01
9.95030057e-01
9.95048906e-01
9.95068639e-01
9.95089205e-01
9.95110355e-01
9.95131923e-01
9.95153901e-01
9.95176344e-01
9.95199430e-01
9.95223470e-01
9.95248739e-01
9.95275290e-01
9.95302860e-01
9.95330832e-01
9.95358319e-01
9.95384411e-01
9.95408486e-01
9.95430502e-01
9.95451186e-01
9.95472068e-01
9.95495323e-01
9.95523504e-01
9.95559239e-01
9.95605004e-01
9.95663041e-01
9.95735387e-01
9.95823991e-01
9.95930839e-01
9.96057961e-01
9.96207275e-01
9.96380299e-01
9.96577781e-01
9.96799311e-01
9.97043065e-01
9.97305714e-01
9.97582538e-01
9.97867716e-01
9.98154771e-01
9.98437062e-01
9.98708299e-01
9.98962991e-01
9.99196811e-01
9.99406836e-01
9.99591671e-01
9.99751450e-01
9.99887745e-01
1.00000339e+00
1.00010230e+00
1.00018917e+00
1.00026930e+00
1.00034830e+00
1.00043187e+00
1.00052549e+00
1.00063416e+00
1.00076206e+00
1.00091226e+00
1.00108637e+00
1.00128437e+00
1.00150446e+00
1.00174322e+00
1.00199591e+00
1.00225691e+00
1.00252040e+00
1.00278095e+00
1.00303397e+00
1.00327602e+00
1.00350482e+00
1.00371909e+00
1.00391819e+00
1.00410188e+00
1.00427009e+00
1.00442293e+00
1.00456075e+00
1.00468434e+00
1.00479500e+00
1.00489458e+00
1.00498522e+00
1.00506911e+00
1.00514812e+00
1.00522344e+00
1.00529551e+00
1.00536404e+00
1.00542830e+00
1.00548733e+00
1.00554033e+00
1.00558689e+00
1.00562694e+00
1.00566075e+00
1.00568890e+00
1.00571205e+00
1.00573073e+00
1.00574556e+00
1.00575717e+00
1.00576598e+00
1.00577239e+00
1.00577700e+00
1.00578016e+00
1.00578204e+00
1.00578307e+00
1.00578344e+00
1.00578303e+00
1.00578218e+00
1.00578113e+00
1.00577958e+00
1.00577791e+00
1.00577635e+00
1.00577460e+00
1.00577291e+00
1.00577203e+00
1.00577132e+00
1.00577008e+00
1.00576974e+00
9.94884964e-01
9.94885590e-01
9.94887306e-01
9.94890486e-01
9.94894565e-01
9.94899282e-01
9.94905342e-01
9.94912938e-01
9.94921501e-01
9.94931139e-01
9.94942298e-01
9.94954742e-01
9.94968135e-01
9.94982634e-01
9.94998332e-01
9.95014980e-01
9.95032472e-01
9.95050902e-01
9.95070179e-01
9.95090055e-01
9.95110402e-01
9.95131164e-01
9.95152281e-01
9.95173855e-01
9.95196202e-01
9.95219686e-01
9.95244574e-01
9.95270907e-01
9.95298358e-01
9.95326185e-01
9.95353378e-01
9.95378960e-01
9.95402365e-01
9.95423769e-01
9.95444308e-01
9.95466068e-01
9.95491835e-01
9.95524688e-01
9.95567550e-01
9.95622814e-01
9.95692178e-01
9.95776715e-01
9.95877092e-01
9.95993865e-01
9.96127730e-01
9.96279595e-01
9.96450447e-01
9.96641048e-01
9.96851546e-01
9.97081112e-01
9.97327682e-01
9.97587900e-01
9.97857242e-01
9.98130320e-01
9.98401295e-01
9.98664343e-01
9.98914121e-01
9.99146168e-01
9.99357215e-01
9.99545389e-01
9.99710292e-01
9.99852985e-01
9.99975868e-01
1.00008250e+00
1.00017735e+00
1.00026558e+00
1.00035270e+00
1.00044431e+00
1.00054575e+00
1.00066179e+00
1.00079627e+00
1.00095174e+00
1.00112928e+00
1.00132826e+00
1.00154640e+00
1.00178001e+00
1.00202439e+00
1.00227444e+00
1.00252521e+00
1.00277252e+00
1.00301319e+00
1.00324516e+00
1.00346724e+00
1.00367875e+00
1.00387908e+00
1.00406747e+00
1.00424288e+00
1.00440417e+00
1.00455048e+00
1.00468155e+00
1.00479798e+00
1.00490131e+00
1.00499377e+00
1.00507782e+00
1.00515572e+00
1.00522909e+00
1.00529868e+00
1.00536439e+00
1.00542558e+00
1.00548136e+00
1.00553096e+00
1.00557397e+00
1.00561049e+00
1.00564099e+00
1.00566614e+00
1.00568678e+00
1.00570376e+00
1.00571776e+00
1.00572931e+00
1.00573896e+00
1.00574716e+00
1.00575417e+00
1.00576018e+00
1.00576534e+00
1.00576985e+00
1.00577370e+00
1.00577665e+00
1.00577880e+00
1.00578043e+00
1.00578133e+00
1.00578154e+00
1.00578124e+00
1.00578067e+00
1.00578011e+00
1.00577930e+00
1.00577843e+00
1.00577852e+00
1.00577870e+00
9.94887824e-01
9.94888729e-01
9.94890293e-01
9.94893434e-01
9.94897694e-01
9.94902598e-01
9.94908808e-01
9.94916468e-01
9.94925095e-01
9.94934840e-01
9.94946011e-01
9.94958318e-01
9.94971580e-01
9.94985981e-01
9.95001444e-01
9.95017734e-01
9.95034876e-01
9.95052871e-01
9.95071496e-01
9.95090589e-01
9.95110100e-01
9.95129944e-01
9.95150125e-01
9.95170878e-01
9.95192568e-01
9.95215558e-01
9.95240107e-01
9.95266204e-01
9.95293405e-01
9.95320864e-01
9.95347528e-01
9.95372445e-01
9.95395182e-01
9.95416205e-01
9.95437083e-01
9.95460425e-01
9.95489548e-01
9.95527955e-01
9.95578758e-01
9.95644202e-01
9.95725428e-01
9.95822541e-01
9.95934950e-01
9.96061828e-01
9.96202555e-01
9.96357014e-01
9.96525628e-01
9.96709137e-01
9.96908216e-01
9.97123006e-01
9.97352723e-01
9.97595411e-01
9.97847899e-01
9.98105958e-01
9.98364616e-01
9.98618586e-01
9.98862722e-01
9.99092466e-01
9.99304224e-01
9.99495646e-01
9.99665798e-01
9.99815205e-01
9.99945797e-01
1.00006076e+00
1.00016429e+00
1.00026136e+00
1.00035735e+00
1.00045772e+00
1.00056763e+00
1.00069158e+00
1.00083298e+00
1.00099391e+00
1.00117482e+00
1.00137451e+00
1.00159024e+00
1.00181809e+00
1.00205351e+00
1.00229193e+00
1.00252940e+00
1.00276298e+00
1.00299096e+00
1.00321258e+00
1.00342773e+00
1.00363629e+00
1.00383769e+00
1.00403064e+00
1.00421318e+00
1.00438300e+00
1.00453803e+00
1.00467699e+00
1.00479974e+00
1.00490742e+00
1.00500220e+00
1.00508675e+00
1.00516365e+00
1.00523491e+00
1.00530164e+00
1.00536404e+00
1.00542164e+00
1.00547371e+00
1.00551958e+00
1.00555892e+00
1.00559188e+00
1.00561907e+00
1.00564136e+00
1.00565968e+00
1.00567506e+00
1.00568831e+00
1.00570003e+00
1.00571075e+00
1.00572084e+00
1.00573035e+00
1.00573945e+00
1.00574818e+00
1.00575622e+00
1.00576343e+00
1.00576999e+00
1.00577551e+00
1.00577969e+00
1.00578289e+00
1.00578523e+00
1.00578642e+00
1.00578695e+00
1.00578722e+00
1.00578690e+00
1.00578646e+00
1.00578695e+00
1.00578709e+00
9.94890531e-01
9.94891562e-01
9.94893865e-01
9.94896759e-01
9.94900716e-01
9.94906198e-01
9.94912646e-01
9.94919939e-01
9.94928685e-01
9.94938773e-01
9.94949739e-01
9.94961766e-01
9.94975075e-01
9.94989352e-01
9.95004403e-01
9.95020374e-01
9.95037203e-01
9.95054606e-01
9.95072476e-01
9.95090792e-01
9.95109407e-01
9.95128258e-01
9.95147539e-01
9.95167554e-01
9.95188644e-01
9.95211181e-01
9.95235394e-01
9.95261162e-01
9.95287944e-01
9.95314847e-01
9.95340831e-01
9.95365052e-01
9.95387304e-01
9.95408385e-01
9.95430269e-01
9.95456006e-01
9.95489336e-01
9.95534067e-01
9.95593392e-01
9.95669350e-01
9.95762535e-01
9.95872164e-01
9.95996476e-01
9.96133340e-01
9.96280887e-01
9.96437987e-01
9.96604455e-01
9.96780950e-01
9.96968590e-01
9.97168424e-01
9.97380908e-01
9.97605484e-01
9.97840363e-01
9.98082525e-01
9.98327941e-01
9.98571931e-01
9.98809617e-01
9.99036404e-01
9.99248414e-01
9.99442850e-01
9.99618241e-01
9.99774569e-01
9.99913269e-01
1.00003711e+00
1.00014999e+00
1.00025664e+00
1.00036225e+00
1.00047208e+00
1.00059108e+00
1.00072340e+00
1.00087200e+00
1.00103842e+00
1.00122251e+00
1.00142250e+00
1.00163524e+00
1.00185668e+00
1.00208249e+00
1.00230877e+00
1.00253257e+00
1.00275229e+00
1.00296757e+00
1.00317895e+00
1.00338725e+00
1.00359287e+00
1.00379521e+00
1.00399249e+00
1.00418186e+00
1.00435995e+00
1.00452357e+00
1.00467045e+00
1.00479974e+00
1.00491215e+00
1.00500967e+00
1.00509504e+00
1.00517113e+00
1.00524026e+00
1.00530389e+00
1.00536260e+00
1.00541622e+00
1.00546420e+00
1.00550606e+00
1.00554161e+00
1.00557107e+00
1.00559510e+00
1.00561473e+00
1.00563107e+00
1.00564512e+00
1.00565784e+00
1.00567000e+00
1.00568201e+00
1.00569408e+00
1.00570630e+00
1.00571859e+00
1.00573074e+00
1.00574242e+00
1.00575329e+00
1.00576320e+00
1.00577183e+00
1.00577892e+00
1.00578447e+00
1.00578868e+00
1.00579155e+00
1.00579319e+00
1.00579391e+00
1.00579447e+00
1.00579484e+00
1.00579503e+00
1.00579523e+00
9.94894133e-01
9.94895043e-01
9.94897188e-01
9.94900276e-01
9.94904409e-01
9.94909812e-01
9.94916272e-01
9.94923788e-01
9.94932562e-01
9.94942456e-01
9.94953361e-01
9.94965392e-01
9.94978479e-01
9.94992431e-01
9.95007266e-01
9.95022953e-01
9.95039251e-01
9.95056008e-01
9.95073175e-01
9.95090606e-01
9.95108206e-01
9.95126111e-01
9.95144573e-01
9.95163903e-01
9.95184491e-01
9.95206685e-01
9.95230579e-01
9.95255917e-01
9.95282094e-01
9.95308216e-01
9.95333327e-01
9.95356804e-01
9.95378763e-01
9.95400375e-01
9.95424011e-01
9.95453086e-01
9.95491617e-01
9.95543557e-01
9.95612063e-01
9.95698882e-01
9.95804048e-01
9.95925951e-01
9.96061775e-01
9.96208204e-01
9.96362217e-01
9.96521726e-01
9.96685953e-01
9.96855420e-01
9.97031617e-01
9.97216429e-01
9.97411491e-01
9.97617609e-01
9.97834368e-01
9.98059994e-01
9.98291445e-01
9.98524708e-01
9.98755240e-01
9.98978468e-01
9.99190279e-01
9.99387459e-01
9.99568021e-01
9.99731404e-01
9.99878530e-01
1.00001173e+00
1.00013455e+00
1.00025143e+00
1.00036733e+00
1.00048727e+00
1.00061589e+00
1.00075696e+00
1.00091298e+00
1.00108489e+00
1.00127195e+00
1.00147186e+00
1.00168115e+00
1.00189568e+00
1.00211147e+00
1.00232532e+00
1.00253536e+00
1.00274124e+00
1.00294394e+00
1.00314518e+00
1.00334663e+00
1.00354911e+00
1.00375201e+00
1.00395308e+00
1.00414871e+00
1.00433457e+00
1.00450649e+00
1.00466128e+00
1.00479737e+00
1.00491493e+00
1.00501567e+00
1.00510230e+00
1.00517779e+00
1.00524477e+00
1.00530510e+00
1.00535974e+00
1.00540896e+00
1.00545255e+00
1.00549023e+00
1.00552196e+00
1.00554810e+00
1.00556932e+00
1.00558666e+00
1.00560134e+00
1.00561448e+00
1.00562705e+00
1.00563985e+00
1.00565328e+00
1.00566751e+00
1.00568253e+00
1.00569801e+00
1.00571349e+00
1.00572873e+00
1.00574327e+00
1.00575638e+00
1.00576789e+00
1.00577790e+00
1.00578587e+00
1.00579172e+00
1.00579606e+00
1.00579912e+00
1.00580069e+00
1.00580170e+00
1.00580235e+00
1.00580288e+00
1.00580366e+00
9.94897971e-01
9.94898799e-01
9.94900654e-01
9.94904020e-01
9.94908433e-01
9.94913557e-01
9.94919968e-01
9.94927768e-01
9.94936441e-01
9.94946069e-01
9.94956984e-01
9.94968932e-01
9.94981667e-01
9.94995358e-01
9.95009985e-01
9.95025225e-01
9.95040934e-01
9.95057086e-01
9.95073473e-01
9.95089928e-01
9.95106564e-01
9.95123601e-01
9.95141292e-01
9.95160028e-01
9.95180231e-01
9.95202122e-01
9.95225651e-01
9.95250464e-01
9.95275886e-01
9.95301057e-01
9.95325214e-01
9.95348043e-01
9.95370041e-01
9.95392775e-01
9.95418979e-01
9.95452339e-01
9.95497006e-01
9.95556917e-01
9.95635060e-01
9.95732835e-01
9.95849725e-01
9.95983370e-01
9.96130037e-01
9.96285389e-01
9.96445372e-01
9.96607023e-01
9.96768972e-01
9.96931559e-01
9.97096554e-01
9.97266572e-01
9.97444327e-01
9.97631923e-01
9.97830298e-01
9.98038929e-01
9.98255801e-01
9.98477635e-01
9.98700295e-01
9.98919301e-01
9.99130370e-01
9.99329922e-01
9.99515483e-01
9.99685957e-01
9.99841746e-01
9.99984716e-01
1.00011801e+00
1.00024574e+00
1.00037257e+00
1.00050320e+00
1.00064193e+00
1.00079208e+00
1.00095563e+00
1.00113293e+00
1.00132267e+00
1.00152208e+00
1.00172740e+00
1.00193457e+00
1.00214001e+00
1.00234130e+00
1.00253767e+00
1.00272999e+00
1.00292048e+00
1.00311189e+00
1.00330663e+00
1.00350587e+00
1.00370893e+00
1.00391317e+00
1.00411432e+00
1.00430724e+00
1.00448692e+00
1.00464935e+00
1.00479222e+00
1.00491514e+00
1.00501946e+00
1.00510768e+00
1.00518281e+00
1.00524770e+00
1.00530462e+00
1.00535500e+00
1.00539956e+00
1.00543855e+00
1.00547201e+00
1.00550004e+00
1.00552307e+00
1.00554188e+00
1.00555745e+00
1.00557094e+00
1.00558361e+00
1.00559647e+00
1.00561020e+00
1.00562527e+00
1.00564181e+00
1.00565955e+00
1.00567813e+00
1.00569701e+00
1.00571558e+00
1.00573328e+00
1.00574960e+00
1.00576407e+00
1.00577642e+00
1.00578653e+00
1.00579439e+00
1.00580012e+00
1.00580417e+00
1.00580677e+00
1.00580836e+00
1.00580931e+00
1.00581043e+00
1.00581146e+00
9.94901826e-01
9.94902845e-01
9.94904848e-01
9.94907988e-01
9.94912260e-01
9.94917597e-01
9.94924060e-01
9.94931591e-01
9.94940163e-01
9.94949844e-01
9.94960540e-01
9.94972135e-01
9.94984692e-01
9.94998177e-01
9.95012356e-01
9.95027091e-01
9.95042302e-01
9.95057747e-01
9.95073222e-01
9.95088765e-01
9.95104526e-01
9.95120722e-01
9.95137744e-01
9.95156058e-01
9.95175974e-01
9.95197576e-01
9.95220697e-01
9.95244865e-01
9.95269354e-01
9.95293420e-01
9.95316581e-01
9.95338914e-01
9.95361354e-01
9.95385899e-01
9.95415586e-01
9.95454250e-01
9.95506032e-01
9.95574696e-01
9.95662908e-01
9.95771642e-01
9.95899844e-01
9.96044494e-01
9.96201089e-01
9.96364443e-01
9.96529642e-01
9.96692951e-01
9.96852451e-01
9.97008267e-01
9.97162365e-01
9.97317964e-01
9.97478745e-01
9.97648013e-01
9.97828001e-01
9.98019417e-01
9.98221298e-01
9.98431151e-01
9.98645312e-01
9.98859470e-01
9.99069247e-01
9.99270754e-01
9.99461070e-01
9.99638587e-01
9.99803186e-01
9.99956245e-01
1.00010047e+00
1.00023959e+00
1.00037789e+00
1.00051973e+00
1.00066897e+00
1.00082843e+00
1.00099956e+00
1.00118211e+00
1.00137422e+00
1.00157272e+00
1.00177367e+00
1.00197316e+00
1.00216812e+00
1.00235696e+00
1.00253998e+00
1.00271923e+00
1.00289801e+00
1.00307997e+00
1.00326812e+00
1.00346388e+00
1.00366652e+00
1.00387307e+00
1.00407875e+00
1.00427780e+00
1.00446447e+00
1.00463407e+00
1.00478360e+00
1.00491206e+00
1.00502027e+00
1.00511046e+00
1.00518554e+00
1.00524853e+00
1.00530204e+00
1.00534805e+00
1.00538784e+00
1.00542213e+00
1.00545137e+00
1.00547591e+00
1.00549622e+00
1.00551306e+00
1.00552741e+00
1.00554038e+00
1.00555310e+00
1.00556662e+00
1.00558166e+00
1.00559860e+00
1.00561746e+00
1.00563789e+00
1.00565942e+00
1.00568144e+00
1.00570311e+00
1.00572370e+00
1.00574287e+00
1.00575999e+00
1.00577450e+00
1.00578651e+00
1.00579624e+00
1.00580336e+00
1.00580834e+00
1.00581188e+00
1.00581427e+00
1.00581562e+00
1.00581694e+00
1.00581814e+00
9.94906098e-01
9.94907036e-01
9.94909231e-01
9.94912262e-01
9.94916358e-01
9.94921770e-01
9.94928160e-01
9.94935446e-01
9.94943937e-01
9.94953499e-01
9.94963866e-01
9.94975194e-01
9.94987540e-01
9.95000632e-01
9.95014330e-01
9.95028609e-01
9.95043209e-01
9.95057837e-01
9.95072460e-01
9.95087164e-01
9.95102074e-01
9.95117547e-01
9.95134086e-01
9.95152085e-01
9.95171752e-01
9.95193079e-01
9.95215740e-01
9.95239127e-01
9.95262549e-01
9.95285460e-01
9.95307711e-01
9.95329830e-01
9.95353241e-01
9.95380351e-01
9.95414445e-01
9.95459391e-01
9.95519162e-01
9.95597200e-01
9.95695733e-01
9.95815237e-01
9.95954135e-01
9.96108853e-01
9.96274278e-01
9.96444560e-01
9.96614102e-01
9.96778526e-01
9.96935416e-01
9.97084655e-01
9.97228309e-01
9.97370073e-01
9.97514451e-01
9.97665830e-01
9.97827649e-01
9.98001819e-01
9.98188437e-01
9.98385838e-01
9.98590904e-01
9.98799578e-01
9.99007463e-01
9.99210434e-01
9.99405178e-01
9.99589603e-01
9.99763075e-01
9.99926465e-01
1.00008201e+00
1.00023299e+00
1.00038327e+00
1.00053675e+00
1.00069682e+00
1.00086577e+00
1.00104444e+00
1.00123202e+00
1.00142615e+00
1.00162331e+00
1.00181951e+00
1.00201109e+00
1.00219556e+00
1.00237223e+00
1.00254242e+00
1.00270925e+00
1.00287697e+00
1.00304998e+00
1.00323173e+00
1.00342381e+00
1.00362543e+00
1.00383337e+00
1.00404247e+00
1.00424650e+00
1.00443922e+00
1.00461531e+00
1.00477114e+00
1.00490507e+00
1.00501736e+00
1.00510980e+00
1.00518514e+00
1.00524647e+00
1.00529674e+00
1.00533846e+00
1.00537353e+00
1.00540322e+00
1.00542841e+00
1.00544974e+00
1.00546779e+00
1.00548323e+00
1.00549696e+00
1.00551002e+00
1.00552342e+00
1.00553810e+00
1.00555479e+00
1.00557376e+00
1.00559495e+00
1.00561803e+00
1.00564233e+00
1.00566705e+00
1.00569146e+00
1.00571477e+00
1.00573625e+00
1.00575545e+00
1.00577210e+00
1.00578590e+00
1.00579691e+00
1.00580535e+00
1.00581159e+00
1.00581591e+00
1.00581885e+00
1.00582082e+00
1.00582256e+00
1.00582390e+00
9.94910970e-01
9.94911754e-01
9.94913641e-01
9.94916742e-01
9.94920873e-01
9.94925984e-01
9.94932164e-01
9.94939454e-01
9.94947720e-01
9.94956875e-01
9.94967016e-01
9.94978135e-01
9.94990042e-01
9.95002665e-01
9.95015966e-01
9.95029678e-01
9.95043509e-01
9.95057365e-01
9.95071211e-01
9.95085073e-01
9.95099241e-01
9.95114205e-01
9.95130408e-01
9.95148175e-01
9.95167658e-01
9.95188692e-01
9.95210774e-01
9.95233245e-01
9.95255514e-01
9.95277276e-01
9.95298787e-01
9.95321095e-01
9.95346122e-01
9.95376638e-01
9.95416099e-01
9.95468301e-01
9.95536896e-01
9.95624843e-01
9.95733828e-01
9.95863779e-01
9.96012607e-01
9.96176282e-01
9.96349247e-01
9.96525191e-01
9.96698023e-01
9.96862871e-01
9.97016896e-01
9.97159732e-01
9.97293456e-01
9.97422104e-01
9.97550845e-01
9.97685001e-01
9.97829113e-01
9.97986232e-01
9.98157505e-01
9.98342130e-01
9.98537601e-01
9.98740196e-01
9.98945587e-01
9.99149494e-01
9.99348272e-01
9.99539388e-01
9.99721704e-01
9.99895577e-01
1.00006273e+00
1.00022595e+00
1.00038861e+00
1.00055409e+00
1.00072524e+00
1.00090375e+00
1.00108987e+00
1.00128222e+00
1.00147800e+00
1.00167344e+00
1.00186460e+00
1.00204819e+00
1.00222237e+00
1.00238733e+00
1.00254539e+00
1.00270062e+00
1.00285807e+00
1.00302268e+00
1.00319821e+00
1.00338634e+00
1.00358621e+00
1.00379445e+00
1.00400566e+00
1.00421336e+00
1.00441094e+00
1.00459263e+00
1.00475422e+00
1.00489342e+00
1.00500989e+00
1.00510487e+00
1.00518083e+00
1.00524087e+00
1.00528825e+00
1.00532597e+00
1.00535654e+00
1.00538189e+00
1.00540335e+00
1.00542184e+00
1.00543810e+00
1.00545277e+00
1.00546656e+00
1.00548034e+00
1.00549503e+00
1.00551141e+00
1.00553004e+00
1.00555119e+00
1.00557474e+00
1.00560026e+00
1.00562702e+00
1.00565413e+00
1.00568083e+00
1.00570630e+00
1.00572975e+00
1.00575068e+00
1.00576897e+00
1.00578424e+00
1.00579649e+00
1.00580613e+00
1.00581345e+00
1.00581857e+00
1.00582225e+00
1.00582480e+00
1.00582670e+00
1.00582827e+00
9.94915934e-01
9.94916659e-01
9.94918413e-01
9.94921436e-01
9.94925441e-01
9.94930327e-01
9.94936319e-01
9.94943398e-01
9.94951320e-01
9.94960161e-01
9.94970024e-01
9.94980725e-01
9.94992168e-01
9.95004376e-01
9.95017140e-01
9.95030146e-01
9.95043251e-01
9.95056365e-01
9.95069403e-01
9.95082532e-01
9.95096176e-01
9.95110783e-01
9.95126756e-01
9.95144408e-01
9.95163747e-01
9.95184404e-01
9.95205787e-01
9.95227258e-01
9.95248354e-01
9.95269081e-01
9.95290173e-01
9.95313203e-01
9.95340573e-01
9.95375376e-01
9.95421138e-01
9.95481458e-01
9.95559549e-01
9.95657769e-01
9.95777158e-01
9.95917058e-01
9.96074905e-01
9.96246304e-01
9.96425418e-01
9.96605670e-01
9.96780668e-01
9.96945202e-01
9.97096097e-01
9.97232735e-01
9.97357128e-01
9.97473511e-01
9.97587552e-01
9.97705347e-01
9.97832413e-01
9.97972856e-01
9.98128852e-01
9.98300486e-01
9.98485927e-01
9.98681871e-01
9.98884154e-01
9.99088424e-01
9.99290780e-01
9.99488292e-01
9.99679344e-01
9.99863766e-01
1.00004274e+00