# vtk DataFile Version 2.0
LBM Flow Field - Timestep 3870
ASCII
DATASET STRUCTURED_POINTS
DIMENSIONS 128 128 1
ORIGIN 0.0 0.0 0.0
SPACING 1.0 1.0 1.0
POINT_DATA 16384
SCALARS density double 1
LOOKUP_TABLE default
1.00306619e+00
1.00307528e+00
1.00308751e+00
1.00307994e+00
1.00307399e+00
1.00307401e+00
1.00306989e+00
1.00306150e+00
1.00305492e+00
1.00304797e+00
1.00303790e+00
1.00302636e+00
1.00301444e+00
1.00300051e+00
1.00298434e+00
1.00296669e+00
1.00294739e+00
1.00292589e+00
1.00290240e+00
1.00287716e+00
1.00285000e+00
1.00282090e+00
1.00279014e+00
1.00275782e+00
1.00272404e+00
1.00268901e+00
1.00265300e+00
1.00261625e+00
1.00257899e+00
1.00254155e+00
1.00250423e+00
1.00246733e+00
1.00243117e+00
1.00239606e+00
1.00236231e+00
1.00233018e+00
1.00229996e+00
1.00227188e+00
1.00224615e+00
1.00222296e+00
1.00220244e+00
1.00218469e+00
1.00216979e+00
1.00215775e+00
1.00214857e+00
1.00214217e+00
1.00213848e+00
1.00213736e+00
1.00213864e+00
1.00214213e+00
1.00214759e+00
1.00215479e+00
1.00216345e+00
1.00217328e+00
1.00218397e+00
1.00219520e+00
1.00220666e+00
1.00221802e+00
1.00222894e+00
1.00223912e+00
1.00224822e+00
1.00225596e+00
1.00226204e+00
1.00226619e+00
1.00226817e+00
1.00226773e+00
1.00226469e+00
1.00225887e+00
1.00225014e+00
1.00223837e+00
1.00222349e+00
1.00220545e+00
1.00218424e+00
1.00215988e+00
1.00213241e+00
1.00210191e+00
1.00206847e+00
1.00203223e+00
1.00199333e+00
1.00195194e+00
1.00190823e+00
1.00186240e+00
1.00181464e+00
1.00176517e+00
1.00171418e+00
1.00166190e+00
1.00160851e+00
1.00155424e+00
1.00149926e+00
1.00144377e+00
1.00138795e+00
1.00133197e+00
1.00127598e+00
1.00122014e+00
1.00116460e+00
1.00110948e+00
1.00105489e+00
1.00100097e+00
1.00094783e+00
1.00089555e+00
1.00084422e+00
1.00079398e+00
1.00074488e+00
1.00069696e+00
1.00065037e+00
1.00060520e+00
1.00056142e+00
1.00051911e+00
1.00047852e+00
1.00043958e+00
1.00040219e+00
1.00036661e+00
1.00033319e+00
1.00030139e+00
1.00027125e+00
1.00024360e+00
1.00021840e+00
1.00019417e+00
1.00017222e+00
1.00015411e+00
1.00013754e+00
1.00012053e+00
1.00010899e+00
1.00010243e+00
1.00009228e+00
1.00008234e+00
1.00009207e+00
1.00009970e+00
1.00307509e+00
1.00307473e+00
1.00308353e+00
1.00308015e+00
1.00307524e+00
1.00307254e+00
1.00306910e+00
1.00306212e+00
1.00305495e+00
1.00304726e+00
1.00303785e+00
1.00302650e+00
1.00301416e+00
1.00300018e+00
1.00298430e+00
1.00296659e+00
1.00294719e+00
1.00292581e+00
1.00290247e+00
1.00287725e+00
1.00285019e+00
1.00282129e+00
1.00279068e+00
1.00275851e+00
1.00272494e+00
1.00269014e+00
1.00265436e+00
1.00261783e+00
1.00258082e+00
1.00254362e+00
1.00250653e+00
1.00246985e+00
1.00243390e+00
1.00239898e+00
1.00236538e+00
1.00233340e+00
1.00230329e+00
1.00227529e+00
1.00224961e+00
1.00222643e+00
1.00220588e+00
1.00218808e+00
1.00217309e+00
1.00216093e+00
1.00215160e+00
1.00214503e+00
1.00214113e+00
1.00213978e+00
1.00214081e+00
1.00214404e+00
1.00214923e+00
1.00215615e+00
1.00216451e+00
1.00217404e+00
1.00218443e+00
1.00219537e+00
1.00220653e+00
1.00221759e+00
1.00222824e+00
1.00223814e+00
1.00224699e+00
1.00225448e+00
1.00226033e+00
1.00226426e+00
1.00226603e+00
1.00226542e+00
1.00226222e+00
1.00225625e+00
1.00224739e+00
1.00223552e+00
1.00222056e+00
1.00220246e+00
1.00218121e+00
1.00215682e+00
1.00212934e+00
1.00209885e+00
1.00206544e+00
1.00202924e+00
1.00199039e+00
1.00194906e+00
1.00190543e+00
1.00185968e+00
1.00181201e+00
1.00176263e+00
1.00171175e+00
1.00165956e+00
1.00160628e+00
1.00155211e+00
1.00149724e+00
1.00144186e+00
1.00138615e+00
1.00133027e+00
1.00127440e+00
1.00121867e+00
1.00116323e+00
1.00110821e+00
1.00105373e+00
1.00099992e+00
1.00094688e+00
1.00089469e+00
1.00084348e+00
1.00079333e+00
1.00074432e+00
1.00069651e+00
1.00065004e+00
1.00060493e+00
1.00056125e+00
1.00051908e+00
1.00047857e+00
1.00043965e+00
1.00040242e+00
1.00036701e+00
1.00033355e+00
1.00030176e+00
1.00027199e+00
1.00024438e+00
1.00021891e+00
1.00019493e+00
1.00017370e+00
1.00015495e+00
1.00013799e+00
1.00012221e+00
1.00011126e+00
1.00010224e+00
1.00009331e+00
1.00008656e+00
1.00009264e+00
1.00009191e+00
1.00308655e+00
1.00308256e+00
1.00307311e+00
1.00307661e+00
1.00307834e+00
1.00307067e+00
1.00306482e+00
1.00306156e+00
1.00305462e+00
1.00304500e+00
1.00303602e+00
1.00302583e+00
1.00301294e+00
1.00299862e+00
1.00298325e+00
1.00296576e+00
1.00294615e+00
1.00292491e+00
1.00290187e+00
1.00287673e+00
1.00284975e+00
1.00282110e+00
1.00279071e+00
1.00275870e+00
1.00272534e+00
1.00269080e+00
1.00265522e+00
1.00261890e+00
1.00258212e+00
1.00254513e+00
1.00250823e+00
1.00247173e+00
1.00243594e+00
1.00240115e+00
1.00236766e+00
1.00233576e+00
1.00230569e+00
1.00227771e+00
1.00225201e+00
1.00222879e+00
1.00220817e+00
1.00219026e+00
1.00217513e+00
1.00216282e+00
1.00215330e+00
1.00214652e+00
1.00214241e+00
1.00214082e+00
1.00214161e+00
1.00214458e+00
1.00214952e+00
1.00215618e+00
1.00216429e+00
1.00217357e+00
1.00218372e+00
1.00219443e+00
1.00220538e+00
1.00221624e+00
1.00222670e+00
1.00223643e+00
1.00224513e+00
1.00225248e+00
1.00225822e+00
1.00226206e+00
1.00226376e+00
1.00226309e+00
1.00225985e+00
1.00225387e+00
1.00224501e+00
1.00223316e+00
1.00221823e+00
1.00220018e+00
1.00217899e+00
1.00215469e+00
1.00212730e+00
1.00209690e+00
1.00206360e+00
1.00202752e+00
1.00198879e+00
1.00194758e+00
1.00190407e+00
1.00185845e+00
1.00181091e+00
1.00176165e+00
1.00171089e+00
1.00165882e+00
1.00160566e+00
1.00155160e+00
1.00149683e+00
1.00144155e+00
1.00138593e+00
1.00133015e+00
1.00127436e+00
1.00121871e+00
1.00116334e+00
1.00110839e+00
1.00105399e+00
1.00100024e+00
1.00094724e+00
1.00089513e+00
1.00084398e+00
1.00079386e+00
1.00074489e+00
1.00069717e+00
1.00065072e+00
1.00060560e+00
1.00056200e+00
1.00051995e+00
1.00047936e+00
1.00044041e+00
1.00040340e+00
1.00036805e+00
1.00033427e+00
1.00030267e+00
1.00027336e+00
1.00024539e+00
1.00021932e+00
1.00019647e+00
1.00017560e+00
1.00015505e+00
1.00013817e+00
1.00012589e+00
1.00011264e+00
1.00009915e+00
1.00009570e+00
1.00009539e+00
1.00008536e+00
1.00008154e+00
1.00307834e+00
1.00307823e+00
1.00307528e+00
1.00307461e+00
1.00307178e+00
1.00306783e+00
1.00306337e+00
1.00305783e+00
1.00305081e+00
1.00304280e+00
1.00303350e+00
1.00302269e+00
1.00301036e+00
1.00299650e+00
1.00298087e+00
1.00296346e+00
1.00294425e+00
1.00292315e+00
1.00290014e+00
1.00287526e+00
1.00284854e+00
1.00282004e+00
1.00278985e+00
1.00275812e+00
1.00272498e+00
1.00269064e+00
1.00265530e+00
1.00261922e+00
1.00258263e+00
1.00254584e+00
1.00250912e+00
1.00247278e+00
1.00243712e+00
1.00240245e+00
1.00236904e+00
1.00233718e+00
1.00230714e+00
1.00227914e+00
1.00225339e+00
1.00223008e+00
1.00220935e+00
1.00219130e+00
1.00217601e+00
1.00216350e+00
1.00215376e+00
1.00214676e+00
1.00214240e+00
1.00214056e+00
1.00214109e+00
1.00214380e+00
1.00214848e+00
1.00215489e+00
1.00216276e+00
1.00217181e+00
1.00218175e+00
1.00219227e+00
1.00220304e+00
1.00221375e+00
1.00222409e+00
1.00223372e+00
1.00224234e+00
1.00224966e+00
1.00225537e+00
1.00225923e+00
1.00226096e+00
1.00226036e+00
1.00225721e+00
1.00225135e+00
1.00224262e+00
1.00223093e+00
1.00221618e+00
1.00219833e+00
1.00217735e+00
1.00215326e+00
1.00212611e+00
1.00209595e+00
1.00206289e+00
1.00202704e+00
1.00198856e+00
1.00194759e+00
1.00190431e+00
1.00185891e+00
1.00181158e+00
1.00176252e+00
1.00171195e+00
1.00166005e+00
1.00160704e+00
1.00155312e+00
1.00149848e+00
1.00144331e+00
1.00138778e+00
1.00133207e+00
1.00127634e+00
1.00122074e+00
1.00116541e+00
1.00111049e+00
1.00105610e+00
1.00100235e+00
1.00094936e+00
1.00089723e+00
1.00084606e+00
1.00079593e+00
1.00074693e+00
1.00069915e+00
1.00065267e+00
1.00060756e+00
1.00056388e+00
1.00052173e+00
1.00048116e+00
1.00044224e+00
1.00040503e+00
1.00036961e+00
1.00033603e+00
1.00030433e+00
1.00027458e+00
1.00024690e+00
1.00022120e+00
1.00019763e+00
1.00017629e+00
1.00015716e+00
1.00014004e+00
1.00012554e+00
1.00011336e+00
1.00010328e+00
1.00009564e+00
1.00009146e+00
1.00008660e+00
1.00008663e+00
1.00307131e+00
1.00307175e+00
1.00307514e+00
1.00306987e+00
1.00306424e+00
1.00306401e+00
1.00306014e+00
1.00305228e+00
1.00304571e+00
1.00303913e+00
1.00302940e+00
1.00301813e+00
1.00300646e+00
1.00299295e+00
1.00297715e+00
1.00295991e+00
1.00294110e+00
1.00292016e+00
1.00289726e+00
1.00287268e+00
1.00284625e+00
1.00281794e+00
1.00278800e+00
1.00275656e+00
1.00272369e+00
1.00268958e+00
1.00265451e+00
1.00261868e+00
1.00258233e+00
1.00254574e+00
1.00250923e+00
1.00247306e+00
1.00243753e+00
1.00240296e+00
1.00236963e+00
1.00233781e+00
1.00230776e+00
1.00227973e+00
1.00225391e+00
1.00223049e+00
1.00220962e+00
1.00219139e+00
1.00217590e+00
1.00216316e+00
1.00215318e+00
1.00214592e+00
1.00214128e+00
1.00213916e+00
1.00213941e+00
1.00214185e+00
1.00214626e+00
1.00215240e+00
1.00216003e+00
1.00216886e+00
1.00217860e+00
1.00218894e+00
1.00219958e+00
1.00221018e+00
1.00222043e+00
1.00223003e+00
1.00223864e+00
1.00224599e+00
1.00225177e+00
1.00225572e+00
1.00225759e+00
1.00225716e+00
1.00225421e+00
1.00224858e+00
1.00224012e+00
1.00222871e+00
1.00221426e+00
1.00219673e+00
1.00217609e+00
1.00215235e+00
1.00212555e+00
1.00209576e+00
1.00206306e+00
1.00202758e+00
1.00198945e+00
1.00194882e+00
1.00190587e+00
1.00186078e+00
1.00181374e+00
1.00176496e+00
1.00171464e+00
1.00166297e+00
1.00161016e+00
1.00155642e+00
1.00150193e+00
1.00144688e+00
1.00139146e+00
1.00133583e+00
1.00128016e+00
1.00122459e+00
1.00116928e+00
1.00111435e+00
1.00105993e+00
1.00100616e+00
1.00095313e+00
1.00090093e+00
1.00084967e+00
1.00079948e+00
1.00075041e+00
1.00070250e+00
1.00065592e+00
1.00061075e+00
1.00056695e+00
1.00052462e+00
1.00048400e+00
1.00044504e+00
1.00040758e+00
1.00037200e+00
1.00033853e+00
1.00030669e+00
1.00027648e+00
1.00024890e+00
1.00022360e+00
1.00019934e+00
1.00017737e+00
1.00015935e+00
1.00014246e+00
1.00012567e+00
1.00011389e+00
1.00010690e+00
1.00009657e+00
1.00008833e+00
1.00008957e+00
1.00008984e+00
1.00306923e+00
1.00306665e+00
1.00306513e+00
1.00306341e+00
1.00306140e+00
1.00305717e+00
1.00305188e+00
1.00304706e+00
1.00304082e+00
1.00303247e+00
1.00302333e+00
1.00301325e+00
1.00300123e+00
1.00298747e+00
1.00297235e+00
1.00295547e+00
1.00293657e+00
1.00291590e+00
1.00289345e+00
1.00286907e+00
1.00284283e+00
1.00281488e+00
1.00278526e+00
1.00275406e+00
1.00272148e+00
1.00268770e+00
1.00265289e+00
1.00261731e+00
1.00258121e+00
1.00254486e+00
1.00250853e+00
1.00247253e+00
1.00243715e+00
1.00240267e+00
1.00236940e+00
1.00233761e+00
1.00230754e+00
1.00227945e+00
1.00225354e+00
1.00222998e+00
1.00220894e+00
1.00219051e+00
1.00217479e+00
1.00216180e+00
1.00215155e+00
1.00214399e+00
1.00213906e+00
1.00213664e+00
1.00213659e+00
1.00213874e+00
1.00214287e+00
1.00214875e+00
1.00215614e+00
1.00216476e+00
1.00217432e+00
1.00218452e+00
1.00219504e+00
1.00220558e+00
1.00221581e+00
1.00222541e+00
1.00223409e+00
1.00224154e+00
1.00224746e+00
1.00225160e+00
1.00225371e+00
1.00225354e+00
1.00225090e+00
1.00224560e+00
1.00223751e+00
1.00222650e+00
1.00221248e+00
1.00219539e+00
1.00217520e+00
1.00215193e+00
1.00212561e+00
1.00209629e+00
1.00206406e+00
1.00202904e+00
1.00199136e+00
1.00195117e+00
1.00190864e+00
1.00186394e+00
1.00181728e+00
1.00176883e+00
1.00171881e+00
1.00166742e+00
1.00161486e+00
1.00156133e+00
1.00150702e+00
1.00145212e+00
1.00139680e+00
1.00134125e+00
1.00128563e+00
1.00123009e+00
1.00117477e+00
1.00111982e+00
1.00106536e+00
1.00101151e+00
1.00095838e+00
1.00090610e+00
1.00085474e+00
1.00080439e+00
1.00075517e+00
1.00070717e+00
1.00066042e+00
1.00061502e+00
1.00057110e+00
1.00052868e+00
1.00048779e+00
1.00044857e+00
1.00041115e+00
1.00037541e+00
1.00034144e+00
1.00030956e+00
1.00027967e+00
1.00025147e+00
1.00022547e+00
1.00020201e+00
1.00018033e+00
1.00016038e+00
1.00014348e+00
1.00012923e+00
1.00011601e+00
1.00010522e+00
1.00009803e+00
1.00009271e+00
1.00008943e+00
1.00008717e+00
1.00306251e+00
1.00306063e+00
1.00305644e+00
1.00305591e+00
1.00305451e+00
1.00304882e+00
1.00304419e+00
1.00304030e+00
1.00303342e+00
1.00302494e+00
1.00301661e+00
1.00300673e+00
1.00299453e+00
1.00298112e+00
1.00296645e+00
1.00294969e+00
1.00293099e+00
1.00291070e+00
1.00288856e+00
1.00286441e+00
1.00283849e+00
1.00281089e+00
1.00278158e+00
1.00275068e+00
1.00271842e+00
1.00268495e+00
1.00265043e+00
1.00261512e+00
1.00257928e+00
1.00254316e+00
1.00250703e+00
1.00247120e+00
1.00243596e+00
1.00240158e+00
1.00236836e+00
1.00233657e+00
1.00230648e+00
1.00227831e+00
1.00225228e+00
1.00222857e+00
1.00220733e+00
1.00218868e+00
1.00217270e+00
1.00215943e+00
1.00214888e+00
1.00214102e+00
1.00213577e+00
1.00213303e+00
1.00213267e+00
1.00213451e+00
1.00213836e+00
1.00214399e+00
1.00215114e+00
1.00215956e+00
1.00216896e+00
1.00217904e+00
1.00218949e+00
1.00219999e+00
1.00221024e+00
1.00221992e+00
1.00222871e+00
1.00223633e+00
1.00224248e+00
1.00224689e+00
1.00224931e+00
1.00224950e+00
1.00224726e+00
1.00224241e+00
1.00223480e+00
1.00222429e+00
1.00221080e+00
1.00219426e+00
1.00217464e+00
1.00215195e+00
1.00212620e+00
1.00209746e+00
1.00206581e+00
1.00203135e+00
1.00199422e+00
1.00195455e+00
1.00191251e+00
1.00186829e+00
1.00182205e+00
1.00177401e+00
1.00172435e+00
1.00167328e+00
1.00162100e+00
1.00156771e+00
1.00151359e+00
1.00145885e+00
1.00140365e+00
1.00134818e+00
1.00129260e+00
1.00123707e+00
1.00118172e+00
1.00112672e+00
1.00107218e+00
1.00101823e+00
1.00096497e+00
1.00091254e+00
1.00086103e+00
1.00081050e+00
1.00076108e+00
1.00071289e+00
1.00066594e+00
1.00062031e+00
1.00057616e+00
1.00053355e+00
1.00049243e+00
1.00045292e+00
1.00041530e+00
1.00037943e+00
1.00034514e+00
1.00031292e+00
1.00028301e+00
1.00025469e+00
1.00022812e+00
1.00020448e+00
1.00018315e+00
1.00016270e+00
1.00014497e+00
1.00013128e+00
1.00011832e+00
1.00010598e+00
1.00009924e+00
1.00009496e+00
1.00008932e+00
1.00008762e+00
1.00305128e+00
1.00305069e+00
1.00305006e+00
1.00304722e+00
1.00304342e+00
1.00304071e+00
1.00303698e+00
1.00303073e+00
1.00302421e+00
1.00301756e+00
1.00300881e+00
1.00299826e+00
1.00298695e+00
1.00297417e+00
1.00295925e+00
1.00294269e+00
1.00292463e+00
1.00290459e+00
1.00288257e+00
1.00285884e+00
1.00283334e+00
1.00280599e+00
1.00277698e+00
1.00274647e+00
1.00271454e+00
1.00268135e+00
1.00264715e+00
1.00261214e+00
1.00257656e+00
1.00254066e+00
1.00250475e+00
1.00246908e+00
1.00243396e+00
1.00239966e+00
1.00236649e+00
1.00233470e+00
1.00230456e+00
1.00227630e+00
1.00225013e+00
1.00222624e+00
1.00220479e+00
1.00218589e+00
1.00216964e+00
1.00215607e+00
1.00214520e+00
1.00213701e+00
1.00213142e+00
1.00212836e+00
1.00212767e+00
1.00212921e+00
1.00213277e+00
1.00213814e+00
1.00214507e+00
1.00215331e+00
1.00216257e+00
1.00217255e+00
1.00218295e+00
1.00219347e+00
1.00220378e+00
1.00221358e+00
1.00222256e+00
1.00223041e+00
1.00223685e+00
1.00224161e+00
1.00224443e+00
1.00224507e+00
1.00224333e+00
1.00223901e+00
1.00223197e+00
1.00222207e+00
1.00220921e+00
1.00219332e+00
1.00217438e+00
1.00215236e+00
1.00212730e+00
1.00209923e+00
1.00206825e+00
1.00203444e+00
1.00199794e+00
1.00195887e+00
1.00191741e+00
1.00187372e+00
1.00182798e+00
1.00178039e+00
1.00173114e+00
1.00168043e+00
1.00162847e+00
1.00157544e+00
1.00152154e+00
1.00146696e+00
1.00141188e+00
1.00135649e+00
1.00130094e+00
1.00124540e+00
1.00119002e+00
1.00113494e+00
1.00108028e+00
1.00102620e+00
1.00097279e+00
1.00092016e+00
1.00086843e+00
1.00081771e+00
1.00076806e+00
1.00071957e+00
1.00067237e+00
1.00062654e+00
1.00058207e+00
1.00053909e+00
1.00049779e+00
1.00045810e+00
1.00041998e+00
1.00038377e+00
1.00034956e+00
1.00031698e+00
1.00028627e+00
1.00025805e+00
1.00023187e+00
1.00020712e+00
1.00018494e+00
1.00016581e+00
1.00014805e+00
1.00013184e+00
1.00011942e+00
1.00010957e+00
1.00010047e+00
1.00009392e+00
1.00009122e+00
1.00009075e+00
1.00304197e+00
1.00304066e+00
1.00304013e+00
1.00303712e+00
1.00303366e+00
1.00303123e+00
1.00302685e+00
1.00302093e+00
1.00301524e+00
1.00300837e+00
1.00299942e+00
1.00298953e+00
1.00297864e+00
1.00296578e+00
1.00295113e+00
1.00293509e+00
1.00291727e+00
1.00289742e+00
1.00287581e+00
1.00285246e+00
1.00282724e+00
1.00280023e+00
1.00277160e+00
1.00274144e+00
1.00270982e+00
1.00267697e+00
1.00264308e+00
1.00260836e+00
1.00257303e+00
1.00253738e+00
1.00250167e+00
1.00246616e+00
1.00243116e+00
1.00239695e+00
1.00236381e+00
1.00233200e+00
1.00230180e+00
1.00227343e+00
1.00224711e+00
1.00222303e+00
1.00220135e+00
1.00218219e+00
1.00216564e+00
1.00215175e+00
1.00214055e+00
1.00213201e+00
1.00212608e+00
1.00212268e+00
1.00212166e+00
1.00212289e+00
1.00212616e+00
1.00213128e+00
1.00213800e+00
1.00214606e+00
1.00215520e+00
1.00216511e+00
1.00217550e+00
1.00218607e+00
1.00219649e+00
1.00220646e+00
1.00221566e+00
1.00222381e+00
1.00223061e+00
1.00223579e+00
1.00223908e+00
1.00224025e+00
1.00223908e+00
1.00223539e+00
1.00222900e+00
1.00221980e+00
1.00220766e+00
1.00219253e+00
1.00217434e+00
1.00215309e+00
1.00212880e+00
1.00210150e+00
1.00207127e+00
1.00203819e+00
1.00200239e+00
1.00196400e+00
1.00192318e+00
1.00188008e+00
1.00183489e+00
1.00178780e+00
1.00173900e+00
1.00168869e+00
1.00163706e+00
1.00158431e+00
1.00153064e+00
1.00147624e+00
1.00142129e+00
1.00136597e+00
1.00131044e+00
1.00125488e+00
1.00119944e+00
1.00114425e+00
1.00108946e+00
1.00103520e+00
1.00098159e+00
1.00092874e+00
1.00087676e+00
1.00082576e+00
1.00077584e+00
1.00072706e+00
1.00067952e+00
1.00063337e+00
1.00058861e+00
1.00054530e+00
1.00050360e+00
1.00046362e+00
1.00042523e+00
1.00038858e+00
1.00035398e+00
1.00032128e+00
1.00029025e+00
1.00026142e+00
1.00023505e+00
1.00021041e+00
1.00018761e+00
1.00016784e+00
1.00015038e+00
1.00013410e+00
1.00012083e+00
1.00011093e+00
1.00010184e+00
1.00009505e+00
1.00009252e+00
1.00009124e+00
1.00303248e+00
1.00303039e+00
1.00302790e+00
1.00302637e+00
1.00302426e+00
1.00302001e+00
1.00301543e+00
1.00301129e+00
1.00300536e+00
1.00299760e+00
1.00298954e+00
1.00298043e+00
1.00296914e+00
1.00295638e+00
1.00294250e+00
1.00292672e+00
1.00290890e+00
1.00288950e+00
1.00286837e+00
1.00284525e+00
1.00282031e+00
1.00279374e+00
1.00276547e+00
1.00273559e+00
1.00270433e+00
1.00267183e+00
1.00263824e+00
1.00260379e+00
1.00256874e+00
1.00253332e+00
1.00249780e+00
1.00246245e+00
1.00242757e+00
1.00239343e+00
1.00236031e+00
1.00232848e+00
1.00229821e+00
1.00226972e+00
1.00224323e+00
1.00221895e+00
1.00219702e+00
1.00217758e+00
1.00216072e+00
1.00214651e+00
1.00213496e+00
1.00212607e+00
1.00211979e+00
1.00211603e+00
1.00211469e+00
1.00211560e+00
1.00211860e+00
1.00212347e+00
1.00212998e+00
1.00213789e+00
1.00214692e+00
1.00215679e+00
1.00216720e+00
1.00217784e+00
1.00218841e+00
1.00219859e+00
1.00220808e+00
1.00221658e+00
1.00222380e+00
1.00222945e+00
1.00223328e+00
1.00223505e+00
1.00223453e+00
1.00223154e+00
1.00222590e+00
1.00221747e+00
1.00220614e+00
1.00219183e+00
1.00217448e+00
1.00215408e+00
1.00213064e+00
1.00210418e+00
1.00207477e+00
1.00204250e+00
1.00200747e+00
1.00196982e+00
1.00192969e+00
1.00188724e+00
1.00184266e+00
1.00179611e+00
1.00174779e+00
1.00169790e+00
1.00164664e+00
1.00159420e+00
1.00154077e+00
1.00148655e+00
1.00143172e+00
1.00137647e+00
1.00132096e+00
1.00126537e+00
1.00120983e+00
1.00115452e+00
1.00109957e+00
1.00104511e+00
1.00099126e+00
1.00093815e+00
1.00088590e+00
1.00083457e+00
1.00078430e+00
1.00073522e+00
1.00068734e+00
1.00064075e+00
1.00059564e+00
1.00055204e+00
1.00050989e+00
1.00046940e+00
1.00043080e+00
1.00039388e+00
1.00035859e+00
1.00032549e+00
1.00029457e+00
1.00026521e+00
1.00023788e+00
1.00021343e+00
1.00019095e+00
1.00016985e+00
1.00015173e+00
1.00013672e+00
1.00012288e+00
1.00011103e+00
1.00010297e+00
1.00009730e+00
1.00009273e+00
1.00009073e+00
1.00302059e+00
1.00301920e+00
1.00301696e+00
1.00301498e+00
1.00301240e+00
1.00300865e+00
1.00300478e+00
1.00300017e+00
1.00299399e+00
1.00298709e+00
1.00297936e+00
1.00296990e+00
1.00295894e+00
1.00294684e+00
1.00293305e+00
1.00291734e+00
1.00290002e+00
1.00288102e+00
1.00286007e+00
1.00283727e+00
1.00281277e+00
1.00278652e+00
1.00275855e+00
1.00272903e+00
1.00269813e+00
1.00266593e+00
1.00263263e+00
1.00259849e+00
1.00256369e+00
1.00252849e+00
1.00249316e+00
1.00245797e+00
1.00242320e+00
1.00238912e+00
1.00235601e+00
1.00232416e+00
1.00229380e+00
1.00226518e+00
1.00223853e+00
1.00221403e+00
1.00219184e+00
1.00217211e+00
1.00215494e+00
1.00214039e+00
1.00212849e+00
1.00211924e+00
1.00211260e+00
1.00210850e+00
1.00210682e+00
1.00210742e+00
1.00211014e+00
1.00211478e+00
1.00212110e+00
1.00212887e+00
1.00213782e+00
1.00214766e+00
1.00215811e+00
1.00216887e+00
1.00217962e+00
1.00219006e+00
1.00219987e+00
1.00220877e+00
1.00221645e+00
1.00222263e+00
1.00222706e+00
1.00222949e+00
1.00222968e+00
1.00222745e+00
1.00222262e+00
1.00221503e+00
1.00220457e+00
1.00219116e+00
1.00217472e+00
1.00215524e+00
1.00213271e+00
1.00210716e+00
1.00207864e+00
1.00204723e+00
1.00201303e+00
1.00197617e+00
1.00193678e+00
1.00189503e+00
1.00185107e+00
1.00180510e+00
1.00175730e+00
1.00170786e+00
1.00165698e+00
1.00160486e+00
1.00155168e+00
1.00149764e+00
1.00144294e+00
1.00138775e+00
1.00133224e+00
1.00127660e+00
1.00122097e+00
1.00116550e+00
1.00111036e+00
1.00105567e+00
1.00100156e+00
1.00094814e+00
1.00089556e+00
1.00084391e+00
1.00079327e+00
1.00074377e+00
1.00069552e+00
1.00064855e+00
1.00060296e+00
1.00055892e+00
1.00051644e+00
1.00047551e+00
1.00043633e+00
1.00039906e+00
1.00036355e+00
1.00032983e+00
1.00029833e+00
1.00026894e+00
1.00024134e+00
1.00021599e+00
1.00019324e+00
1.00017243e+00
1.00015367e+00
1.00013781e+00
1.00012421e+00
1.00011251e+00
1.00010378e+00
1.00009754e+00
1.00009312e+00
1.00009164e+00
1.00300819e+00
1.00300693e+00
1.00300577e+00
1.00300312e+00
1.00299996e+00
1.00299727e+00
1.00299352e+00
1.00298814e+00
1.00298255e+00
1.00297635e+00
1.00296825e+00
1.00295881e+00
1.00294858e+00
1.00293667e+00
1.00292281e+00
1.00290752e+00
1.00289067e+00
1.00287181e+00
1.00285110e+00
1.00282875e+00
1.00280459e+00
1.00277858e+00
1.00275096e+00
1.00272183e+00
1.00269122e+00
1.00265931e+00
1.00262633e+00
1.00259247e+00
1.00255791e+00
1.00252292e+00
1.00248778e+00
1.00245274e+00
1.00241806e+00
1.00238404e+00
1.00235095e+00
1.00231905e+00
1.00228860e+00
1.00225985e+00
1.00223302e+00
1.00220829e+00
1.00218585e+00
1.00216583e+00
1.00214833e+00
1.00213344e+00
1.00212119e+00
1.00211159e+00
1.00210459e+00
1.00210014e+00
1.00209813e+00
1.00209843e+00
1.00210089e+00
1.00210529e+00
1.00211144e+00
1.00211908e+00
1.00212796e+00
1.00213781e+00
1.00214833e+00
1.00215922e+00
1.00217019e+00
1.00218091e+00
1.00219109e+00
1.00220042e+00
1.00220861e+00
1.00221538e+00
1.00222045e+00
1.00222358e+00
1.00222454e+00
1.00222313e+00
1.00221915e+00
1.00221247e+00
1.00220294e+00
1.00219048e+00
1.00217501e+00
1.00215650e+00
1.00213494e+00
1.00211035e+00
1.00208277e+00
1.00205227e+00
1.00201894e+00
1.00198291e+00
1.00194431e+00
1.00190329e+00
1.00186000e+00
1.00181464e+00
1.00176738e+00
1.00171841e+00
1.00166793e+00
1.00161613e+00
1.00156321e+00
1.00150937e+00
1.00145479e+00
1.00139965e+00
1.00134414e+00
1.00128843e+00
1.00123269e+00
1.00117706e+00
1.00112169e+00
1.00106675e+00
1.00101235e+00
1.00095861e+00
1.00090566e+00
1.00085363e+00
1.00080261e+00
1.00075266e+00
1.00070395e+00
1.00065659e+00
1.00061056e+00
1.00056596e+00
1.00052303e+00
1.00048176e+00
1.00044203e+00
1.00040415e+00
1.00036836e+00
1.00033433e+00
1.00030205e+00
1.00027221e+00
1.00024466e+00
1.00021872e+00
1.00019507e+00
1.00017443e+00
1.00015570e+00
1.00013868e+00
1.00012485e+00
1.00011383e+00
1.00010427e+00
1.00009717e+00
1.00009359e+00
1.00009217e+00
1.00299671e+00
1.00299503e+00
1.00299323e+00
1.00299101e+00
1.00298837e+00
1.00298523e+00
1.00298119e+00
1.00297655e+00
1.00297125e+00
1.00296457e+00
1.00295671e+00
1.00294796e+00
1.00293770e+00
1.00292571e+00
1.00291235e+00
1.00289745e+00
1.00288063e+00
1.00286203e+00
1.00284177e+00
1.00281968e+00
1.00279573e+00
1.00277009e+00
1.00274283e+00
1.00271396e+00
1.00268364e+00
1.00265206e+00
1.00261937e+00
1.00258574e+00
1.00255142e+00
1.00251666e+00
1.00248169e+00
1.00244677e+00
1.00241219e+00
1.00237822e+00
1.00234513e+00
1.00231319e+00
1.00228266e+00
1.00225377e+00
1.00222675e+00
1.00220180e+00
1.00217910e+00
1.00215879e+00
1.00214097e+00
1.00212575e+00
1.00211314e+00
1.00210318e+00
1.00209583e+00
1.00209104e+00
1.00208871e+00
1.00208873e+00
1.00209092e+00
1.00209511e+00
1.00210109e+00
1.00210863e+00
1.00211746e+00
1.00212733e+00
1.00213794e+00
1.00214899e+00
1.00216019e+00
1.00217123e+00
1.00218180e+00
1.00219160e+00
1.00220033e+00
1.00220771e+00
1.00221347e+00
1.00221735e+00
1.00221911e+00
1.00221856e+00
1.00221549e+00
1.00220974e+00
1.00220119e+00
1.00218972e+00
1.00217526e+00
1.00215777e+00
1.00213722e+00
1.00211362e+00
1.00208701e+00
1.00205746e+00
1.00202505e+00
1.00198988e+00
1.00195209e+00
1.00191182e+00
1.00186923e+00
1.00182449e+00
1.00177779e+00
1.00172930e+00
1.00167923e+00
1.00162777e+00
1.00157511e+00
1.00152146e+00
1.00146699e+00
1.00141191e+00
1.00135638e+00
1.00130060e+00
1.00124471e+00
1.00118890e+00
1.00113331e+00
1.00107807e+00
1.00102335e+00
1.00096927e+00
1.00091593e+00
1.00086347e+00
1.00081201e+00
1.00076165e+00
1.00071244e+00
1.00066454e+00
1.00061807e+00
1.00057303e+00
1.00052949e+00
1.00048768e+00
1.00044762e+00
1.00040922e+00
1.00037271e+00
1.00033832e+00
1.00030585e+00
1.00027527e+00
1.00024704e+00
1.00022115e+00
1.00019720e+00
1.00017558e+00
1.00015663e+00
1.00013989e+00
1.00012543e+00
1.00011364e+00
1.00010428e+00
1.00009742e+00
1.00009315e+00
1.00009120e+00
1.00298481e+00
1.00298308e+00
1.00298085e+00
1.00297894e+00
1.00297654e+00
1.00297299e+00
1.00296911e+00
1.00296495e+00
1.00295942e+00
1.00295270e+00
1.00294537e+00
1.00293673e+00
1.00292634e+00
1.00291469e+00
1.00290171e+00
1.00288684e+00
1.00287019e+00
1.00285199e+00
1.00283199e+00
1.00281006e+00
1.00278642e+00
1.00276113e+00
1.00273412e+00
1.00270551e+00
1.00267551e+00
1.00264422e+00
1.00261176e+00
1.00257838e+00
1.00254431e+00
1.00250973e+00
1.00247491e+00
1.00244013e+00
1.00240564e+00
1.00237171e+00
1.00233862e+00
1.00230663e+00
1.00227600e+00
1.00224698e+00
1.00221978e+00
1.00219461e+00
1.00217165e+00
1.00215105e+00
1.00213293e+00
1.00211737e+00
1.00210442e+00
1.00209411e+00
1.00208642e+00
1.00208130e+00
1.00207866e+00
1.00207839e+00
1.00208034e+00
1.00208433e+00
1.00209016e+00
1.00209760e+00
1.00210641e+00
1.00211631e+00
1.00212703e+00
1.00213827e+00
1.00214973e+00
1.00216110e+00
1.00217209e+00
1.00218237e+00
1.00219167e+00
1.00219969e+00
1.00220616e+00
1.00221081e+00
1.00221340e+00
1.00221373e+00
1.00221159e+00
1.00220682e+00
1.00219927e+00
1.00218882e+00
1.00217540e+00
1.00215895e+00
1.00213944e+00
1.00211687e+00
1.00209127e+00
1.00206269e+00
1.00203121e+00
1.00199693e+00
1.00195997e+00
1.00192048e+00
1.00187860e+00
1.00183450e+00
1.00178836e+00
1.00174037e+00
1.00169072e+00
1.00163960e+00
1.00158721e+00
1.00153374e+00
1.00147940e+00
1.00142435e+00
1.00136881e+00
1.00131294e+00
1.00125691e+00
1.00120089e+00
1.00114505e+00
1.00108953e+00
1.00103445e+00
1.00097999e+00
1.00092626e+00
1.00087336e+00
1.00082141e+00
1.00077057e+00
1.00072091e+00
1.00067246e+00
1.00062542e+00
1.00057991e+00
1.00053588e+00
1.00049342e+00
1.00045283e+00
1.00041405e+00
1.00037695e+00
1.00034189e+00
1.00030908e+00
1.00027816e+00
1.00024919e+00
1.00022283e+00
1.00019881e+00
1.00017662e+00
1.00015700e+00
1.00014030e+00
1.00012559e+00
1.00011309e+00
1.00010374e+00
1.00009696e+00
1.00009206e+00
1.00009000e+00
1.00297263e+00
1.00297118e+00
1.00296929e+00
1.00296697e+00
1.00296426e+00
1.00296119e+00
1.00295756e+00
1.00295295e+00
1.00294748e+00
1.00294132e+00
1.00293393e+00
1.00292506e+00
1.00291507e+00
1.00290375e+00
1.00289066e+00
1.00287593e+00
1.00285969e+00
1.00284166e+00
1.00282173e+00
1.00280012e+00
1.00277680e+00
1.00275169e+00
1.00272490e+00
1.00269661e+00
1.00266688e+00
1.00263580e+00
1.00260359e+00
1.00257046e+00
1.00253658e+00
1.00250218e+00
1.00246752e+00
1.00243286e+00
1.00239844e+00
1.00236455e+00
1.00233146e+00
1.00229943e+00
1.00226871e+00
1.00223955e+00
1.00221218e+00
1.00218679e+00
1.00216358e+00
1.00214270e+00
1.00212428e+00
1.00210840e+00
1.00209512e+00
1.00208448e+00
1.00207646e+00
1.00207102e+00
1.00206808e+00
1.00206755e+00
1.00206926e+00
1.00207307e+00
1.00207876e+00
1.00208612e+00
1.00209491e+00
1.00210486e+00
1.00211570e+00
1.00212713e+00
1.00213887e+00
1.00215059e+00
1.00216200e+00
1.00217280e+00
1.00218267e+00
1.00219134e+00
1.00219853e+00
1.00220397e+00
1.00220741e+00
1.00220864e+00
1.00220744e+00
1.00220365e+00
1.00219712e+00
1.00218771e+00
1.00217534e+00
1.00215995e+00
1.00214149e+00
1.00211995e+00
1.00209536e+00
1.00206777e+00
1.00203723e+00
1.00200385e+00
1.00196774e+00
1.00192903e+00
1.00188787e+00
1.00184442e+00
1.00179886e+00
1.00175136e+00
1.00170213e+00
1.00165135e+00
1.00159922e+00
1.00154594e+00
1.00149171e+00
1.00143671e+00
1.00138113e+00
1.00132517e+00
1.00126899e+00
1.00121276e+00
1.00115664e+00
1.00110080e+00
1.00104538e+00
1.00099051e+00
1.00093633e+00
1.00088299e+00
1.00083057e+00
1.00077918e+00
1.00072899e+00
1.00068007e+00
1.00063245e+00
1.00058630e+00
1.00054179e+00
1.00049885e+00
1.00045756e+00
1.00041819e+00
1.00038076e+00
1.00034513e+00
1.00031154e+00
1.00028028e+00
1.00025110e+00
1.00022396e+00
1.00019933e+00
1.00017719e+00
1.00015720e+00
1.00013964e+00
1.00012481e+00
1.00011248e+00
1.00010257e+00
1.00009521e+00
1.00009056e+00
1.00008868e+00
1.00296111e+00
1.00295953e+00
1.00295775e+00
1.00295537e+00
1.00295261e+00
1.00294967e+00
1.00294594e+00
1.00294127e+00
1.00293605e+00
1.00292991e+00
1.00292236e+00
1.00291372e+00
1.00290395e+00
1.00289255e+00
1.00287954e+00
1.00286510e+00
1.00284899e+00
1.00283100e+00
1.00281132e+00
1.00278996e+00
1.00276678e+00
1.00274186e+00
1.00271536e+00
1.00268730e+00
1.00265775e+00
1.00262691e+00
1.00259495e+00
1.00256201e+00
1.00252831e+00
1.00249409e+00
1.00245957e+00
1.00242501e+00
1.00239067e+00
1.00235682e+00
1.00232373e+00
1.00229164e+00
1.00226084e+00
1.00223155e+00
1.00220401e+00
1.00217842e+00
1.00215498e+00
1.00213383e+00
1.00211512e+00
1.00209893e+00
1.00208534e+00
1.00207437e+00
1.00206604e+00
1.00206030e+00
1.00205709e+00
1.00205629e+00
1.00205780e+00
1.00206143e+00
1.00206700e+00
1.00207429e+00
1.00208307e+00
1.00209309e+00
1.00210405e+00
1.00211569e+00
1.00212770e+00
1.00213978e+00
1.00215163e+00
1.00216293e+00
1.00217339e+00
1.00218271e+00
1.00219062e+00