# vtk DataFile Version 2.0
LBM Flow Field - Timestep 790
ASCII
DATASET STRUCTURED_POINTS
DIMENSIONS 128 128 1
ORIGIN 0.0 0.0 0.0
SPACING 1.0 1.0 1.0
POINT_DATA 16384
SCALARS density double 1
LOOKUP_TABLE default
1.00872718e+00
1.00870135e+00
1.00866573e+00
1.00863208e+00
1.00858492e+00
1.00852809e+00
1.00846177e+00
1.00838664e+00
1.00830046e+00
1.00820406e+00
1.00809537e+00
1.00797495e+00
1.00784300e+00
1.00769933e+00
1.00754441e+00
1.00738098e+00
1.00721113e+00
1.00703751e+00
1.00686377e+00
1.00669391e+00
1.00653155e+00
1.00638029e+00
1.00624312e+00
1.00612232e+00
1.00601928e+00
1.00593423e+00
1.00586620e+00
1.00581319e+00
1.00577214e+00
1.00573913e+00
1.00570974e+00
1.00567934e+00
1.00564346e+00
1.00559814e+00
1.00554004e+00
1.00546656e+00
1.00537577e+00
1.00526627e+00
1.00513693e+00
1.00498679e+00
1.00481503e+00
1.00462106e+00
1.00440475e+00
1.00416673e+00
1.00390872e+00
1.00363369e+00
1.00334587e+00
1.00305065e+00
1.00275410e+00
1.00246258e+00
1.00218217e+00
1.00191816e+00
1.00167468e+00
1.00145445e+00
1.00125871e+00
1.00108731e+00
1.00093880e+00
1.00081078e+00
1.00070006e+00
1.00060296e+00
1.00051551e+00
1.00043364e+00
1.00035327e+00
1.00027048e+00
1.00018157e+00
1.00008311e+00
9.99972126e-01
9.99846108e-01
9.99703199e-01
9.99542297e-01
9.99363180e-01
9.99166608e-01
9.98954369e-01
9.98729276e-01
9.98495073e-01
9.98256268e-01
9.98017866e-01
9.97785043e-01
9.97562762e-01
9.97355380e-01
9.97166274e-01
9.96997540e-01
9.96849809e-01
9.96722209e-01
9.96612479e-01
9.96517243e-01
9.96432425e-01
9.96353706e-01
9.96276985e-01
9.96198786e-01
9.96116517e-01
9.96028573e-01
9.95934267e-01
9.95833656e-01
9.95727260e-01
9.95615780e-01
9.95499872e-01
9.95380034e-01
9.95256498e-01
9.95129259e-01
9.94998233e-01
9.94863366e-01
9.94724579e-01
9.94581941e-01
9.94435780e-01
9.94286555e-01
9.94134682e-01
9.93980862e-01
9.93825932e-01
9.93670676e-01
9.93515757e-01
9.93362393e-01
9.93211589e-01
9.93064147e-01
9.92920810e-01
9.92783270e-01
9.92651873e-01
9.92527286e-01
9.92410154e-01
9.92302224e-01
9.92202281e-01
9.92112472e-01
9.92031383e-01
9.91960972e-01
9.91900908e-01
9.91858275e-01
9.91808981e-01
9.91771984e-01
1.00869519e+00
1.00867420e+00
1.00863873e+00
1.00860381e+00
1.00855503e+00
1.00849913e+00
1.00843191e+00
1.00835655e+00
1.00826983e+00
1.00817376e+00
1.00806575e+00
1.00794668e+00
1.00781630e+00
1.00767551e+00
1.00752434e+00
1.00736518e+00
1.00720008e+00
1.00703192e+00
1.00686376e+00
1.00669929e+00
1.00654195e+00
1.00639514e+00
1.00626157e+00
1.00614339e+00
1.00604183e+00
1.00595713e+00
1.00588838e+00
1.00583367e+00
1.00579012e+00
1.00575414e+00
1.00572159e+00
1.00568812e+00
1.00564951e+00
1.00560191e+00
1.00554201e+00
1.00546714e+00
1.00537523e+00
1.00526474e+00
1.00513448e+00
1.00498353e+00
1.00481119e+00
1.00461707e+00
1.00440125e+00
1.00416452e+00
1.00390866e+00
1.00363654e+00
1.00335219e+00
1.00306065e+00
1.00276766e+00
1.00247923e+00
1.00220115e+00
1.00193856e+00
1.00169552e+00
1.00147481e+00
1.00127779e+00
1.00110445e+00
1.00095355e+00
1.00082284e+00
1.00070926e+00
1.00060925e+00
1.00051889e+00
1.00043416e+00
1.00035102e+00
1.00026554e+00
1.00017406e+00
1.00007320e+00
9.99960031e-01
9.99832135e-01
9.99687754e-01
9.99525896e-01
9.99346446e-01
9.99150252e-01
9.98939154e-01
9.98715968e-01
9.98484382e-01
9.98248776e-01
9.98013964e-01
9.97784874e-01
9.97566185e-01
9.97361952e-01
9.97175272e-01
9.97008010e-01
9.96860654e-01
9.96732291e-01
9.96620740e-01
9.96522821e-01
9.96434736e-01
9.96352490e-01
9.96272302e-01
9.96190959e-01
9.96106035e-01
9.96015980e-01
9.95920059e-01
9.95818204e-01
9.95710776e-01
9.95598350e-01
9.95481504e-01
9.95360715e-01
9.95236264e-01
9.95108290e-01
9.94976833e-01
9.94841928e-01
9.94703585e-01
9.94561976e-01
9.94417376e-01
9.94270192e-01
9.94120828e-01
9.93969985e-01
9.93818290e-01
9.93666536e-01
9.93515376e-01
9.93365952e-01
9.93218919e-01
9.93075332e-01
9.92935771e-01
9.92801821e-01
9.92673391e-01
9.92551942e-01
9.92437379e-01
9.92331945e-01
9.92233566e-01
9.92145794e-01
9.92065565e-01
9.91997997e-01
9.91937011e-01
9.91893941e-01
9.91846173e-01
9.91818254e-01
1.00864346e+00
1.00862082e+00
1.00859456e+00
1.00855411e+00
1.00850463e+00
1.00844853e+00
1.00838178e+00
1.00830573e+00
1.00821984e+00
1.00812377e+00
1.00801780e+00
1.00790173e+00
1.00777456e+00
1.00763782e+00
1.00749281e+00
1.00734029e+00
1.00718228e+00
1.00702192e+00
1.00686192e+00
1.00670537e+00
1.00655553e+00
1.00641541e+00
1.00628756e+00
1.00617395e+00
1.00607557e+00
1.00599259e+00
1.00592424e+00
1.00586870e+00
1.00582329e+00
1.00578470e+00
1.00574910e+00
1.00571245e+00
1.00567079e+00
1.00562038e+00
1.00555799e+00
1.00548092e+00
1.00538705e+00
1.00527474e+00
1.00514278e+00
1.00499032e+00
1.00481674e+00
1.00462181e+00
1.00440577e+00
1.00416954e+00
1.00391486e+00
1.00364454e+00
1.00336242e+00
1.00307325e+00
1.00278250e+00
1.00249593e+00
1.00221912e+00
1.00195710e+00
1.00171391e+00
1.00149238e+00
1.00129395e+00
1.00111876e+00
1.00096570e+00
1.00083263e+00
1.00071660e+00
1.00061411e+00
1.00052128e+00
1.00043412e+00
1.00034858e+00
1.00026078e+00
1.00016704e+00
1.00006404e+00
9.99948889e-01
9.99819257e-01
9.99673469e-01
9.99510635e-01
9.99330737e-01
9.99134704e-01
9.98924431e-01
9.98702744e-01
9.98473289e-01
9.98240344e-01
9.98008562e-01
9.97782660e-01
9.97567064e-01
9.97365560e-01
9.97180984e-01
9.97014986e-01
9.96867898e-01
9.96738737e-01
9.96625361e-01
9.96524730e-01
9.96433253e-01
9.96347195e-01
9.96263051e-01
9.96177841e-01
9.96089305e-01
9.95995975e-01
9.95897126e-01
9.95792628e-01
9.95682762e-01
9.95568044e-01
9.95449037e-01
9.95326229e-01
9.95200014e-01
9.95070711e-01
9.94938492e-01
9.94803474e-01
9.94665874e-01
9.94525947e-01
9.94383878e-01
9.94240017e-01
9.94094909e-01
9.93949034e-01
9.93802806e-01
9.93656998e-01
9.93512423e-01
9.93369605e-01
9.93229148e-01
9.93092259e-01
9.92959596e-01
9.92831459e-01
9.92708736e-01
9.92592834e-01
9.92483494e-01
9.92381343e-01
9.92287303e-01
9.92202152e-01
9.92125463e-01
9.92059929e-01
9.92000681e-01
9.91951637e-01
9.91920522e-01
9.91891995e-01
1.00857837e+00
1.00855309e+00
1.00852324e+00
1.00848216e+00
1.00843448e+00
1.00837710e+00
1.00831002e+00
1.00823411e+00
1.00814966e+00
1.00805531e+00
1.00795167e+00
1.00783907e+00
1.00771748e+00
1.00758730e+00
1.00744980e+00
1.00730625e+00
1.00715858e+00
1.00700902e+00
1.00686008e+00
1.00671456e+00
1.00657533e+00
1.00644484e+00
1.00632531e+00
1.00621838e+00
1.00612494e+00
1.00604505e+00
1.00597789e+00
1.00592181e+00
1.00587443e+00
1.00583270e+00
1.00579318e+00
1.00575220e+00
1.00570610e+00
1.00565142e+00
1.00558507e+00
1.00550438e+00
1.00540722e+00
1.00529190e+00
1.00515718e+00
1.00500219e+00
1.00482642e+00
1.00462976e+00
1.00441260e+00
1.00417596e+00
1.00392169e+00
1.00365251e+00
1.00337213e+00
1.00308509e+00
1.00279655e+00
1.00251197e+00
1.00223672e+00
1.00197562e+00
1.00173264e+00
1.00151057e+00
1.00131096e+00
1.00113402e+00
1.00097878e+00
1.00084324e+00
1.00072455e+00
1.00061930e+00
1.00052370e+00
1.00043377e+00
1.00034553e+00
1.00025511e+00
1.00015888e+00
1.00005359e+00
9.99936406e-01
9.99805087e-01
9.99658062e-01
9.99494539e-01
9.99314590e-01
9.99119207e-01
9.98910310e-01
9.98690697e-01
9.98463921e-01
9.98234108e-01
9.98005698e-01
9.97783141e-01
9.97570573e-01
9.97371486e-01
9.97188453e-01
9.97022916e-01
9.96875090e-01
9.96743985e-01
9.96627558e-01
9.96522964e-01
9.96426881e-01
9.96335874e-01
9.96246714e-01
9.96156644e-01
9.96063550e-01
9.95966020e-01
9.95863305e-01
9.95755221e-01
9.95641986e-01
9.95524066e-01
9.95402047e-01
9.95276521e-01
9.95148022e-01
9.95017005e-01
9.94883856e-01
9.94748902e-01
9.94612446e-01
9.94474764e-01
9.94336162e-01
9.94196976e-01
9.94057577e-01
9.93918344e-01
9.93779759e-01
9.93642286e-01
9.93506459e-01
9.93372797e-01
9.93241913e-01
9.93114324e-01
9.92990665e-01
9.92871413e-01
9.92757320e-01
9.92648808e-01
9.92546409e-01
9.92450621e-01
9.92362564e-01
9.92281786e-01
9.92208791e-01
9.92145567e-01
9.92092592e-01
9.92044761e-01
9.92009701e-01
9.91979405e-01
1.00848860e+00
1.00846290e+00
1.00843092e+00
1.00839149e+00
1.00834317e+00
1.00828481e+00
1.00821866e+00
1.00814364e+00
1.00806020e+00
1.00796887e+00
1.00786906e+00
1.00776111e+00
1.00764639e+00
1.00752485e+00
1.00739706e+00
1.00726494e+00
1.00713009e+00
1.00699394e+00
1.00685882e+00
1.00672707e+00
1.00660083e+00
1.00648221e+00
1.00637297e+00
1.00627432e+00
1.00618698e+00
1.00611088e+00
1.00604522e+00
1.00598853e+00
1.00593874e+00
1.00589320e+00
1.00584894e+00
1.00580275e+00
1.00575134e+00
1.00569157e+00
1.00562048e+00
1.00553545e+00
1.00543429e+00
1.00531526e+00
1.00517706e+00
1.00501886e+00
1.00484025e+00
1.00464132e+00
1.00442262e+00
1.00418535e+00
1.00393139e+00
1.00366341e+00
1.00338492e+00
1.00310017e+00
1.00281399e+00
1.00253150e+00
1.00225779e+00
1.00199749e+00
1.00175448e+00
1.00153156e+00
1.00133037e+00
1.00115125e+00
1.00099338e+00
1.00085490e+00
1.00073311e+00
1.00062469e+00
1.00052591e+00
1.00043287e+00
1.00034161e+00
1.00024829e+00
1.00014935e+00
1.00004156e+00
9.99922200e-01
9.99789104e-01
9.99640813e-01
9.99476646e-01
9.99296771e-01
9.99102246e-01
9.98895011e-01
9.98677824e-01
9.98454130e-01
9.98227870e-01
9.98003230e-01
9.97784354e-01
9.97575035e-01
9.97378425e-01
9.97196790e-01
9.97031332e-01
9.96882135e-01
9.96748207e-01
9.96627625e-01
9.96517783e-01
9.96415699e-01
9.96318304e-01
9.96222724e-01
9.96126495e-01
9.96027705e-01
9.95925025e-01
9.95817692e-01
9.95705444e-01
9.95588412e-01
9.95466991e-01
9.95341753e-01
9.95213382e-01
9.95082563e-01
9.94949919e-01
9.94816069e-01
9.94681574e-01
9.94546832e-01
9.94412182e-01
9.94278038e-01
9.94144699e-01
9.94012338e-01
9.93881278e-01
9.93751978e-01
9.93624635e-01
9.93499457e-01
9.93376998e-01
9.93257736e-01
9.93141635e-01
9.93029136e-01
9.92921066e-01
9.92817583e-01
9.92718579e-01
9.92625185e-01
9.92537935e-01
9.92456679e-01
9.92382331e-01
9.92315530e-01
9.92255353e-01
9.92204988e-01
9.92163245e-01
9.92128243e-01
9.92098647e-01
1.00837656e+00
1.00835176e+00
1.00831994e+00
1.00828020e+00
1.00823102e+00
1.00817368e+00
1.00810889e+00
1.00803572e+00
1.00795445e+00
1.00786652e+00
1.00777207e+00
1.00767102e+00
1.00756415e+00
1.00745244e+00
1.00733676e+00
1.00721810e+00
1.00709760e+00
1.00697688e+00
1.00685770e+00
1.00674158e+00
1.00663010e+00
1.00652494e+00
1.00642737e+00
1.00633819e+00
1.00625782e+00
1.00618609e+00
1.00612229e+00
1.00606514e+00
1.00601287e+00
1.00596327e+00
1.00591388e+00
1.00586198e+00
1.00580471e+00
1.00573925e+00
1.00566284e+00
1.00557297e+00
1.00546743e+00
1.00534440e+00
1.00520256e+00
1.00504107e+00
1.00485959e+00
1.00465832e+00
1.00443799e+00
1.00419991e+00
1.00394603e+00
1.00367897e+00
1.00340208e+00
1.00311934e+00
1.00283526e+00
1.00255463e+00
1.00228226e+00
1.00202256e+00
1.00177931e+00
1.00155530e+00
1.00135222e+00
1.00117056e+00
1.00100967e+00
1.00086783e+00
1.00074249e+00
1.00063045e+00
1.00052808e+00
1.00043153e+00
1.00033691e+00
1.00024042e+00
1.00013855e+00
1.00002815e+00
9.99906560e-01
9.99771730e-01
9.99622299e-01
9.99457682e-01
9.99278130e-01
9.99084747e-01
9.98879466e-01
9.98664975e-01
9.98444573e-01
9.98221984e-01
9.98001108e-01
9.97785753e-01
9.97579355e-01
9.97384714e-01
9.97203793e-01
9.97037583e-01
9.96886068e-01
9.96748287e-01
9.96622491e-01
9.96506371e-01
9.96397305e-01
9.96292620e-01
9.96189818e-01
9.96086737e-01
9.95981653e-01
9.95873328e-01
9.95760999e-01
9.95644333e-01
9.95523373e-01
9.95398478e-01
9.95270221e-01
9.95139328e-01
9.95006629e-01
9.94872968e-01
9.94739118e-01
9.94605760e-01
9.94473495e-01
9.94342793e-01
9.94213972e-01
9.94087292e-01
9.93963018e-01
9.93841319e-01
9.93722306e-01
9.93606203e-01
9.93493217e-01
9.93383392e-01
9.93276857e-01
9.93173901e-01
9.93074630e-01
9.92979092e-01
9.92887534e-01
9.92800405e-01
9.92717969e-01
9.92640401e-01
9.92567788e-01
9.92501346e-01
9.92441764e-01
9.92387989e-01
9.92340658e-01
9.92302152e-01
9.92269626e-01
9.92243088e-01
1.00824438e+00
1.00821932e+00
1.00818840e+00
1.00814895e+00
1.00810114e+00
1.00804557e+00
1.00798178e+00
1.00791141e+00
1.00783455e+00
1.00775119e+00
1.00766272e+00
1.00756992e+00
1.00747282e+00
1.00737261e+00
1.00727037e+00
1.00716657e+00
1.00706228e+00
1.00695877e+00
1.00685689e+00
1.00675770e+00
1.00666242e+00
1.00657192e+00
1.00648689e+00
1.00640787e+00
1.00633497e+00
1.00626790e+00
1.00620603e+00
1.00614829e+00
1.00609329e+00
1.00603936e+00
1.00598454e+00
1.00592663e+00
1.00586327e+00
1.00579196e+00
1.00571016e+00
1.00561543e+00
1.00550551e+00
1.00537853e+00
1.00523309e+00
1.00506836e+00
1.00488406e+00
1.00468051e+00
1.00445862e+00
1.00421983e+00
1.00396613e+00
1.00370009e+00
1.00342488e+00
1.00314419e+00
1.00286218e+00
1.00258331e+00
1.00231207e+00
1.00205267e+00
1.00180877e+00
1.00158317e+00
1.00137765e+00
1.00119286e+00
1.00102831e+00
1.00088249e+00
1.00075300e+00
1.00063679e+00
1.00053033e+00
1.00042984e+00
1.00033148e+00
1.00023153e+00
1.00012652e+00
1.00001335e+00
9.99889454e-01
9.99752874e-01
9.99602345e-01
9.99437378e-01
9.99258293e-01
9.99066225e-01
9.98863086e-01
9.98651470e-01
9.98434507e-01
9.98215671e-01
9.97998547e-01
9.97786577e-01
9.97582809e-01
9.97389677e-01
9.97208831e-01
9.97041052e-01
9.96886243e-01
9.96743509e-01
9.96611323e-01
9.96487721e-01
9.96370510e-01
9.96257477e-01
9.96146557e-01
9.96035933e-01
9.95924112e-01
9.95809960e-01
9.95692710e-01
9.95571948e-01
9.95447600e-01
9.95319926e-01
9.95189472e-01
9.95056991e-01
9.94923393e-01
9.94789683e-01
9.94656803e-01
9.94525573e-01
9.94396725e-01
9.94270821e-01
9.94148165e-01
9.94028988e-01
9.93913529e-01
9.93801857e-01
9.93693901e-01
9.93589772e-01
9.93489598e-01
9.93393193e-01
9.93300399e-01
9.93211457e-01
9.93126293e-01
9.93044546e-01
9.92966420e-01
9.92892376e-01
9.92821989e-01
9.92755569e-01
9.92693868e-01
9.92636785e-01
9.92584325e-01
9.92538048e-01
9.92497143e-01
9.92462700e-01
9.92433853e-01
9.92409241e-01
1.00809301e+00
1.00806860e+00
1.00803824e+00
1.00799987e+00
1.00795401e+00
1.00790111e+00
1.00784048e+00
1.00777380e+00
1.00770204e+00
1.00762534e+00
1.00754445e+00
1.00746073e+00
1.00737499e+00
1.00728786e+00
1.00719999e+00
1.00711225e+00
1.00702543e+00
1.00693992e+00
1.00685613e+00
1.00677474e+00
1.00669622e+00
1.00662080e+00
1.00654872e+00
1.00648010e+00
1.00641481e+00
1.00635247e+00
1.00629252e+00
1.00623415e+00
1.00617639e+00
1.00611808e+00
1.00605779e+00
1.00599390e+00
1.00592450e+00
1.00584746e+00
1.00576045e+00
1.00566109e+00
1.00554713e+00
1.00541661e+00
1.00526804e+00
1.00510055e+00
1.00491390e+00
1.00470853e+00
1.00448544e+00
1.00424620e+00
1.00399285e+00
1.00372791e+00
1.00345435e+00
1.00317562e+00
1.00289554e+00
1.00261822e+00
1.00234784e+00
1.00208841e+00
1.00184346e+00
1.00161580e+00
1.00140731e+00
1.00121880e+00
1.00104997e+00
1.00089953e+00
1.00076527e+00
1.00064428e+00
1.00053317e+00
1.00042825e+00
1.00032575e+00
1.00022199e+00
1.00011357e+00
9.99997462e-01
9.99871171e-01
9.99732820e-01
9.99581234e-01
9.99416000e-01
9.99237490e-01
9.99046849e-01
9.98845938e-01
9.98637229e-01
9.98423655e-01
9.98208412e-01
9.97994747e-01
9.97785717e-01
9.97583977e-01
9.97391597e-01
9.97209936e-01
9.97039590e-01
9.96880422e-01
9.96731663e-01
9.96592055e-01
9.96460025e-01
9.96333862e-01
9.96211853e-01
9.96092380e-01
9.95973989e-01
9.95855435e-01
9.95735686e-01
9.95613958e-01
9.95489752e-01
9.95362879e-01
9.95233463e-01
9.95101973e-01
9.94969178e-01
9.94836032e-01
9.94703590e-01
9.94572942e-01
9.94445072e-01
9.94320732e-01
9.94200488e-01
9.94084779e-01
9.93973826e-01
9.93867636e-01
9.93766260e-01
9.93669757e-01
9.93577949e-01
9.93490622e-01
9.93407798e-01
9.93329303e-01
9.93254700e-01
9.93183803e-01
9.93116679e-01
9.93053009e-01
9.92992524e-01
9.92935261e-01
9.92881581e-01
9.92831460e-01
9.92784820e-01
9.92741757e-01
9.92703671e-01
9.92669687e-01
9.92640271e-01
9.92615112e-01
9.92593699e-01
1.00792310e+00
1.00789972e+00
1.00787100e+00
1.00783531e+00
1.00779189e+00
1.00774225e+00
1.00768678e+00
1.00762556e+00
1.00755971e+00
1.00749089e+00
1.00741945e+00
1.00734633e+00
1.00727288e+00
1.00719971e+00
1.00712741e+00
1.00705672e+00
1.00698775e+00
1.00692054e+00
1.00685534e+00
1.00679199e+00
1.00673016e+00
1.00666974e+00
1.00661053e+00
1.00655215e+00
1.00649423e+00
1.00643638e+00
1.00637814e+00
1.00631903e+00
1.00625849e+00
1.00619583e+00
1.00613025e+00
1.00606066e+00
1.00598560e+00
1.00590328e+00
1.00581159e+00
1.00570821e+00
1.00559083e+00
1.00545742e+00
1.00530639e+00
1.00513682e+00
1.00494850e+00
1.00474194e+00
1.00451826e+00
1.00427910e+00
1.00402655e+00
1.00376304e+00
1.00349139e+00
1.00321475e+00
1.00293661e+00
1.00266072e+00
1.00239098e+00
1.00213116e+00
1.00188470e+00
1.00165444e+00
1.00144235e+00
1.00124943e+00
1.00107562e+00
1.00091984e+00
1.00078010e+00
1.00065367e+00
1.00053729e+00
1.00042739e+00
1.00032025e+00
1.00021228e+00
1.00010012e+00
9.99980804e-01
9.99851906e-01
9.99711624e-01
9.99558859e-01
9.99393261e-01
9.99215240e-01
9.99025931e-01
9.98827129e-01
9.98621166e-01
9.98410754e-01
9.98198800e-01
9.97988192e-01
9.97781597e-01
9.97581272e-01
9.97388928e-01
9.97205643e-01
9.97031858e-01
9.96867429e-01
9.96711747e-01
9.96563866e-01
9.96422659e-01
9.96286935e-01
9.96155512e-01
9.96027260e-01
9.95901118e-01
9.95776095e-01
9.95651274e-01
9.95525857e-01
9.95399236e-01
9.95271070e-01
9.95141338e-01
9.95010368e-01
9.94878851e-01
9.94747751e-01
9.94618159e-01
9.94491203e-01
9.94367945e-01
9.94249220e-01
9.94135617e-01
9.94027557e-01
9.93925258e-01
9.93828714e-01
9.93737878e-01
9.93652722e-01
9.93573063e-01
9.93498594e-01
9.93429149e-01
9.93364516e-01
9.93304205e-01
9.93247815e-01
9.93195238e-01
9.93146002e-01
9.93099696e-01
9.93056384e-01
9.93015989e-01
9.92977916e-01
9.92942740e-01
9.92910548e-01
9.92881274e-01
9.92854653e-01
9.92831799e-01
9.92811391e-01
9.92793418e-01
1.00773748e+00
1.00771593e+00
1.00768859e+00
1.00765627e+00
1.00761733e+00
1.00757229e+00
1.00752243e+00
1.00746848e+00
1.00741073e+00
1.00735077e+00
1.00728985e+00
1.00722886e+00
1.00716866e+00
1.00711021e+00
1.00705417e+00
1.00700068e+00
1.00694960e+00
1.00690082e+00
1.00685389e+00
1.00680798e+00
1.00676242e+00
1.00671655e+00
1.00666962e+00
1.00662092e+00
1.00656996e+00
1.00651629e+00
1.00645958e+00
1.00639966e+00
1.00633640e+00
1.00626966e+00
1.00619918e+00
1.00612437e+00
1.00604425e+00
1.00595733e+00
1.00586169e+00
1.00575507e+00
1.00563512e+00
1.00549968e+00
1.00534710e+00
1.00517637e+00
1.00498727e+00
1.00478036e+00
1.00455684e+00
1.00431844e+00
1.00406723e+00
1.00380559e+00
1.00353615e+00
1.00326179e+00
1.00298566e+00
1.00271118e+00
1.00244194e+00
1.00218150e+00
1.00193321e+00
1.00169990e+00
1.00148369e+00
1.00128576e+00
1.00110631e+00
1.00094450e+00
1.00079857e+00
1.00066600e+00
1.00054368e+00
1.00042816e+00
1.00031582e+00
1.00020311e+00
1.00008675e+00
9.99963821e-01
9.99831965e-01
9.99689446e-01
9.99535229e-01
9.99369012e-01
9.99191226e-01
9.99002983e-01
9.98805989e-01
9.98602419e-01
9.98394754e-01
9.98185594e-01
9.97977465e-01
9.97772643e-01
9.97572998e-01
9.97379897e-01
9.97194168e-01
9.97016131e-01
9.96845679e-01
9.96682399e-01
9.96525707e-01
9.96374953e-01
9.96229486e-01
9.96088674e-01
9.95951892e-01
9.95818469e-01
9.95687656e-01
9.95558647e-01
9.95430635e-01
9.95302880e-01
9.95174852e-01
9.95046355e-01
9.94917567e-01
9.94789030e-01
9.94661636e-01
9.94536496e-01
9.94414735e-01
9.94297389e-01
9.94185367e-01
9.94079324e-01
9.93979576e-01
9.93886292e-01
9.93799594e-01
9.93719364e-01
9.93645326e-01
9.93577390e-01
9.93515419e-01
9.93458921e-01
9.93407465e-01
9.93360910e-01
9.93318747e-01
9.93280261e-01
9.93245110e-01
9.93213169e-01
9.93183784e-01
9.93156548e-01
9.93131326e-01
9.93108341e-01
9.93086886e-01
9.93067029e-01
9.93049075e-01
9.93033182e-01
9.93016989e-01
9.93003216e-01
1.00753754e+00
1.00751847e+00
1.00749425e+00
1.00746567e+00
1.00743201e+00
1.00739356e+00
1.00735059e+00
1.00730476e+00
1.00725667e+00
1.00720727e+00
1.00715792e+00
1.00710984e+00
1.00706382e+00
1.00702080e+00
1.00698109e+00
1.00694463e+00
1.00691131e+00
1.00688048e+00
1.00685092e+00
1.00682162e+00
1.00679151e+00
1.00675923e+00
1.00672363e+00
1.00668387e+00
1.00663923e+00
1.00658926e+00
1.00653384e+00
1.00647307e+00
1.00640727e+00
1.00633685e+00
1.00626201e+00
1.00618267e+00
1.00609826e+00
1.00600760e+00
1.00590890e+00
1.00579994e+00
1.00567833e+00
1.00554184e+00
1.00538867e+00
1.00521777e+00
1.00502890e+00
1.00482263e+00
1.00460023e+00
1.00436345e+00
1.00411437e+00
1.00385527e+00
1.00358858e+00
1.00331689e+00
1.00304305e+00
1.00277013e+00
1.00250140e+00
1.00224024e+00
1.00198988e+00
1.00175318e+00
1.00153239e+00
1.00132892e+00
1.00114319e+00
1.00097467e+00
1.00082184e+00
1.00068239e+00
1.00055341e+00
1.00043155e+00
1.00031332e+00
1.00019522e+00
1.00007403e+00
9.99946908e-01
9.99811539e-01
9.99666250e-01
9.99510065e-01
9.99342725e-01
9.99164669e-01
9.98976977e-01
9.98781262e-01
9.98579534e-01
9.98374036e-01
9.98167063e-01
9.97960783e-01
9.97757087e-01
9.97557470e-01
9.97362980e-01
9.97174219e-01
9.96991412e-01
9.96814516e-01
9.96643351e-01
9.96477709e-01
9.96317432e-01
9.96162424e-01
9.96012613e-01
9.95867863e-01
9.95727890e-01
9.95592201e-01
9.95460091e-01
9.95330716e-01
9.95203215e-01
9.95076863e-01
9.94951231e-01
9.94826298e-01
9.94702457e-01
9.94580456e-01
9.94461314e-01
9.94346156e-01
9.94236011e-01
9.94131737e-01
9.94033987e-01
9.93943137e-01
9.93859315e-01
9.93782531e-01
9.93712713e-01
9.93649648e-01
9.93593095e-01
9.93542837e-01
9.93498560e-01
9.93459794e-01
9.93426147e-01
9.93397143e-01
9.93372191e-01
9.93350720e-01
9.93332325e-01
9.93316277e-01
9.93302216e-01
9.93289767e-01
9.93278544e-01
9.93267930e-01
9.93258117e-01
9.93248729e-01
9.93239662e-01
9.93229051e-01
9.93219792e-01
1.00732680e+00
1.00731068e+00
1.00729058e+00
1.00726668e+00
1.00723872e+00
1.00720797e+00
1.00717376e+00
1.00713718e+00
1.00709961e+00
1.00706207e+00
1.00702537e+00
1.00699088e+00
1.00695958e+00
1.00693206e+00
1.00690849e+00
1.00688887e+00
1.00687258e+00
1.00685850e+00
1.00684531e+00
1.00683159e+00
1.00681558e+00
1.00679561e+00
1.00677036e+00
1.00673865e+00
1.00669962e+00
1.00665289e+00
1.00659854e+00
1.00653700e+00
1.00646899e+00
1.00639535e+00
1.00631682e+00
1.00623376e+00
1.00614593e+00
1.00605241e+00
1.00595157e+00
1.00584121e+00
1.00571890e+00
1.00558233e+00
1.00542959e+00
1.00525956e+00
1.00507197e+00
1.00486740e+00
1.00464714e+00
1.00441295e+00
1.00416689e+00
1.00391112e+00
1.00364785e+00
1.00337944e+00
1.00310835e+00
1.00283733e+00
1.00256937e+00
1.00230759e+00
1.00205515e+00
1.00181493e+00
1.00158930e+00
1.00137988e+00
1.00118738e+00
1.00101153e+00
1.00085111e+00
1.00070405e+00
1.00056760e+00
1.00043860e+00
1.00031363e+00
1.00018933e+00
1.00006250e+00
9.99930381e-01
9.99790719e-01
9.99641905e-01
9.99483016e-01
9.99313831e-01
9.99134800e-01
9.98946963e-01
9.98751838e-01
9.98551271e-01
9.98347265e-01
9.98141814e-01
9.97936738e-01
9.97733556e-01
9.97533409e-01
9.97337048e-01
9.97144876e-01
9.96957052e-01
9.96773623e-01
9.96594658e-01
9.96420340e-01
9.96251001e-01
9.96087095e-01
9.95929088e-01
9.95777315e-01
9.95631860e-01
9.95492470e-01
9.95358530e-01
9.95229145e-01
9.95103317e-01
9.94980130e-01
9.94858906e-01
9.94739378e-01
9.94621753e-01
9.94506634e-01
9.94394892e-01
9.94287570e-01
9.94185702e-01
9.94090101e-01
9.94001348e-01
9.93919863e-01
9.93845807e-01
9.93779061e-01
9.93719522e-01
9.93667121e-01
9.93621551e-01
9.93582404e-01
9.93549536e-01
9.93522628e-01
9.93501002e-01
9.93484116e-01
9.93471695e-01
9.93462943e-01
9.93457031e-01
9.93453479e-01
9.93451935e-01
9.93451356e-01
9.93451154e-01
9.93451204e-01
9.93451153e-01
9.93449832e-01
9.93447284e-01
9.93442330e-01
9.93437749e-01
1.00710909e+00
1.00709600e+00
1.00707971e+00
1.00706191e+00
1.00704115e+00
1.00701828e+00
1.00699357e+00
1.00696779e+00
1.00694170e+00
1.00691652e+00
1.00689320e+00
1.00687294e+00
1.00685646e+00
1.00684422e+00
1.00683648e+00
1.00683298e+00
1.00683260e+00
1.00683412e+00
1.00683606e+00
1.00683637e+00
1.00683298e+00
1.00682409e+00
1.00680801e+00
1.00678331e+00
1.00674916e+00
1.00670527e+00
1.00665185e+00
1.00658966e+00
1.00651982e+00
1.00644357e+00
1.00636210e+00
1.00627615e+00
1.00618579e+00
1.00609030e+00
1.00598818e+00
1.00587730e+00
1.00575517e+00
1.00561939e+00
1.00546803e+00
1.00529987e+00
1.00511462e+00
1.00491285e+00
1.00469585e+00
1.00446537e+00
1.00422338e+00
1.00397192e+00
1.00371299e+00
1.00344864e+00
1.00318100e+00
1.00291247e+00
1.00264572e+00
1.00238367e+00
1.00212935e+00
1.00188565e+00
1.00165506e+00
1.00143944e+00
1.00123976e+00
1.00105605e+00
1.00088738e+00
1.00073192e+00
1.00058717e+00
1.00045010e+00
1.00031745e+00
1.00018594e+00
1.00005247e+00
9.99914351e-01
9.99769398e-01
9.99616074e-01
9.99453519e-01
9.99281559e-01
9.99100655e-01
9.98911816e-01
9.98716467e-01
9.98516297e-01
9.98313081e-01
9.98108522e-01
9.97904102e-01
9.97700987e-01
9.97499984e-01
9.97301565e-01
9.97105953e-01
9.96913261e-01
9.96723638e-01
9.96537400e-01
9.96355113e-01
9.96177586e-01
9.96005789e-01
9.95840692e-01
9.95683081e-01
9.95533382e-01
9.95391547e-01
9.95257049e-01
9.95128962e-01
9.95006137e-01
9.94887440e-01
9.94771973e-01
9.94659218e-01
9.94549127e-01
9.94442128e-01
9.94338972e-01
9.94240560e-01
9.94147836e-01
9.94061631e-01
9.93982513e-01
9.93910802e-01
9.93846658e-01
9.93790065e-01
9.93740838e-01
9.93698756e-01
9.93663649e-01
9.93635224e-01
9.93613109e-01
9.93596948e-01
9.93586366e-01
9.93580749e-01
9.93579501e-01
9.93581967e-01
9.93587501e-01
9.93595274e-01
9.93604574e-01
9.93614624e-01
9.93624787e-01
9.93634302e-01
9.93642525e-01
9.93648990e-01
9.93652967e-01
9.93652848e-01
9.93652362e-01
1.00688731e+00
1.00687805e+00
1.00686584e+00
1.00685428e+00
1.00684147e+00
1.00682731e+00
1.00681262e+00
1.00679821e+00
1.00678423e+00
1.00677195e+00
1.00676237e+00
1.00675631e+00
1.00675439e+00
1.00675719e+00
1.00676459e+00
1.00677598e+00
1.00679034e+00
1.00680625e+00
1.00682168e+00
1.00683440e+00
1.00684227e+00
1.00684313e+00
1.00683497e+00
1.00681637e+00
1.00678650e+00
1.00674510e+00
1.00669257e+00
1.00662995e+00
1.00655873e+00
1.00648054e+00
1.00639688e+00
1.00630884e+00
1.00621675e+00
1.00612010e+00
1.00601748e+00
1.00590679e+00
1.00578557e+00
1.00565138e+00
1.00550221e+00
1.00533684e+00
1.00515494e+00
1.00495704e+00
1.00474443e+00
1.00451880e+00
1.00428203e+00
1.00403599e+00
1.00378246e+00
1.00352315e+00
1.00325987e+00
1.00299464e+00
1.00272981e+00
1.00246806e+00
1.00221229e+00
1.00196538e+00
1.00172994e+00
1.00150802e+00
1.00130088e+00
1.00110885e+00
1.00093129e+00
1.00076667e+00
1.00061270e+00
1.00046656e+00
1.00032514e+00
1.00018528e+00
1.00004400e+00
9.99898686e-01
9.99747266e-01
9.99588283e-01
9.99420956e-01
9.99245167e-01
9.99061403e-01
9.98870652e-01
9.98674257e-01
9.98473756e-01
9.98270708e-01
9.98066535e-01
9.97862395e-01
9.97659116e-01
9.97457186e-01
9.97256813e-01
9.97058059e-01
9.96860997e-01
9.96665877e-01
9.96473256e-01
9.96284061e-01
9.96099545e-01
9.95921153e-01
9.95750317e-01
9.95588231e-01
9.95435631e-01
9.95292658e-01
9.95158855e-01
9.95033267e-01
9.94914611e-01
9.94801541e-01
9.94692923e-01
9.94588007e-01
9.94486496e-01
9.94388587e-01
9.94294883e-01
9.94206184e-01
9.94123314e-01
9.94047040e-01
9.93977963e-01
9.93916372e-01
9.93862354e-01
9.93815925e-01
9.93776936e-01
9.93745047e-01
9.93720053e-01
9.93701776e-01
9.93689793e-01
9.93683619e-01
9.93683017e-01
9.93687451e-01
9.93696119e-01
9.93708373e-01
9.93723727e-01
9.93741154e-01
9.93759670e-01
9.93778705e-01
9.93797529e-01
9.93814964e-01
9.93830195e-01
9.93843290e-01
9.93852639e-01
9.93856565e-01
9.93859929e-01
1.00666478e+00
1.00665963e+00
1.00665273e+00
1.00664722e+00
1.00664207e+00
1.00663740e+00
1.00663320e+00
1.00662998e+00
1.00662831e+00
1.00662917e+00
1.00663314e+00
1.00664094e+00
1.00665321e+00
1.00667030e+00
1.00669177e+00
1.00671696e+00
1.00674480e+00
1.00677350e+00
1.00680081e+00
1.00682453e+00
1.00684221e+00
1.00685139e+00
1.00685008e+00
1.00683683e+00
1.00681068e+00
1.00677148e+00
1.00671990e+00
1.00665718e+00
1.00658509e+00
1.00650559e+00
1.00642048e+00
1.00633110e+00
1.00623801e+00
1.00614085e+00
1.00603832e+00
1.00592839e+00
1.00580863e+00
1.00567662e+00
1.00553034e+00
1.00536856e+00
1.00519091e+00
1.00499794e+00
1.00479086e+00
1.00457128e+00
1.00434097e+00
1.00410159e+00
1.00385465e+00
1.00360153e+00
1.00334368e+00
1.00308274e+00
1.00282071e+00
1.00256003e+00
1.00230341e+00
1.00205373e+00
1.00181368e+00
1.00158550e+00
1.00137072e+00
1.00116998e+00
1.00098294e+00
1.00080837e+00
1.00064425e+00
1.00048797e+00
1.00033661e+00
1.00018716e+00
1.00003679e+00
9.99883000e-01
9.99723839e-01
9.99557965e-01
9.99384695e-01
9.99203989e-01
9.99016377e-01
9.98822838e-01
9.98624648e-01
9.98423206e-01
9.98219862e-01
9.98015769e-01
9.97811775e-01
9.97608379e-01
9.97405758e-01
9.97203874e-01
9.97002625e-01
9.96802044e-01
9.96602470e-01
9.96404683e-01
9.96209930e-01
9.96019860e-01
9.95836349e-01
9.95661244e-01
9.95496089e-01
9.95341896e-01
9.95198995e-01
9.95066995e-01
9.94944897e-01
9.94831319e-01
9.94724750e-01
9.94623808e-01
9.94527492e-01
9.94435302e-01
9.94347206e-01
9.94263589e-01
9.94185139e-01
9.94112621e-01
9.94046701e-01
9.93987920e-01
9.93936638e-01
9.93892939e-01
9.93856703e-01
9.93827792e-01
9.93805984e-01
9.93790918e-01
9.93782235e-01
9.93779705e-01
9.93782915e-01
9.93791316e-01
9.93804399e-01
9.93821687e-01
9.93842359e-01
9.93865582e-01
9.93890636e-01
9.93916712e-01
9.93942770e-01
9.93967861e-01
9.93991429e-01
9.94012334e-01
9.94030136e-01
9.94043287e-01
9.94050990e-01
9.94057479e-01
1.00644616e+00
1.00644483e+00
1.00644289e+00
1.00644362e+00
1.00644623e+00
1.00645072e+00
1.00645668e+00
1.00646459e+00
1.00647508e+00
1.00648854e+00
1.00650544e+00
1.00652662e+00
1.00655234e+00
1.00658254e+00
1.00661692e+00
1.00665477e+00
1.00669458e+00
1.00673445e+00
1.00677227e+00
1.00680555e+00
1.00683158e+00
1.00684795e+00
1.00685262e+00
1.00684398e+00
1.00682113e+00
1.00678406e+00
1.00673357e+00
1.00667112e+00
1.00659870e+00
1.00651851e+00
1.00643262e+00
1.00634256e+00
1.00624904e+00
1.00615185e+00
1.00604984e+00
1.00594105e+00
1.00582312e+00
1.00569369e+00
1.00555083e+00
1.00539328e+00
1.00522072e+00
1.00503362e+00
1.00483315e+00
1.00462081e+00
1.00439819e+00
1.00416673e+00
1.00392764e+00
1.00368196e+00
1.00343073e+00
1.00317519e+00
1.00291700e+00
1.00265828e+00
1.00240159e+00
1.00214971e+00
1.00190542e+00
1.00167112e+00
1.00144861e+00
1.00123883e+00
1.00104176e+00
1.00085650e+00
1.00068129e+00
1.00051379e+00
1.00035130e+00
1.00019101e+00
1.00003025e+00