# vtk DataFile Version 2.0
LBM Flow Field - Timestep 1740
ASCII
DATASET STRUCTURED_POINTS
DIMENSIONS 128 128 1
ORIGIN 0.0 0.0 0.0
SPACING 1.0 1.0 1.0
POINT_DATA 16384
SCALARS density double 1
LOOKUP_TABLE default
1.00907221e+00
1.00905589e+00
1.00903342e+00
1.00901737e+00
1.00898949e+00
1.00895475e+00
1.00891424e+00
1.00886649e+00
1.00881109e+00
1.00874890e+00
1.00867647e+00
1.00859494e+00
1.00850519e+00
1.00840541e+00
1.00829455e+00
1.00817446e+00
1.00804495e+00
1.00790512e+00
1.00775583e+00
1.00759829e+00
1.00743247e+00
1.00725889e+00
1.00707878e+00
1.00689303e+00
1.00670225e+00
1.00650748e+00
1.00630981e+00
1.00611011e+00
1.00590926e+00
1.00570821e+00
1.00550786e+00
1.00530893e+00
1.00511214e+00
1.00491815e+00
1.00472745e+00
1.00454045e+00
1.00435746e+00
1.00417864e+00
1.00400406e+00
1.00383369e+00
1.00366738e+00
1.00350495e+00
1.00334613e+00
1.00319066e+00
1.00303825e+00
1.00288864e+00
1.00274163e+00
1.00259706e+00
1.00245484e+00
1.00231497e+00
1.00217750e+00
1.00204255e+00
1.00191030e+00
1.00178094e+00
1.00165467e+00
1.00153168e+00
1.00141212e+00
1.00129609e+00
1.00118361e+00
1.00107464e+00
1.00096905e+00
1.00086662e+00
1.00076707e+00
1.00067006e+00
1.00057520e+00
1.00048205e+00
1.00039018e+00
1.00029915e+00
1.00020854e+00
1.00011795e+00
1.00002700e+00
9.99935345e-01
9.99842682e-01
9.99748710e-01
9.99653137e-01
9.99555669e-01
9.99455994e-01
9.99353776e-01
9.99248651e-01
9.99140229e-01
9.99028109e-01
9.98911893e-01
9.98791215e-01
9.98665768e-01
9.98535336e-01
9.98399819e-01
9.98259259e-01
9.98113850e-01
9.97963935e-01
9.97809993e-01
9.97652620e-01
9.97492480e-01
9.97330261e-01
9.97166637e-01
9.97002220e-01
9.96837492e-01
9.96672799e-01
9.96508348e-01
9.96344171e-01
9.96180091e-01
9.96015855e-01
9.95851149e-01
9.95685488e-01
9.95518335e-01
9.95349409e-01
9.95178444e-01
9.95004952e-01
9.94828879e-01
9.94650774e-01
9.94470741e-01
9.94288696e-01
9.94106069e-01
9.93924324e-01
9.93743355e-01
9.93564060e-01
9.93389991e-01
9.93221754e-01
9.93058566e-01
9.92903688e-01
9.92761435e-01
9.92628595e-01
9.92506552e-01
9.92400248e-01
9.92310036e-01
9.92232160e-01
9.92176463e-01
9.92130977e-01
9.92101006e-01
1.00905346e+00
1.00904479e+00
1.00902119e+00
1.00900261e+00
1.00897521e+00
1.00894247e+00
1.00890160e+00
1.00885446e+00
1.00879913e+00
1.00873718e+00
1.00866541e+00
1.00858449e+00
1.00849449e+00
1.00839513e+00
1.00828502e+00
1.00816508e+00
1.00803552e+00
1.00789618e+00
1.00774724e+00
1.00758967e+00
1.00742398e+00
1.00725069e+00
1.00707070e+00
1.00688499e+00
1.00669439e+00
1.00649982e+00
1.00630230e+00
1.00610279e+00
1.00590219e+00
1.00570141e+00
1.00550131e+00
1.00530266e+00
1.00510616e+00
1.00491242e+00
1.00472196e+00
1.00453518e+00
1.00435235e+00
1.00417366e+00
1.00399916e+00
1.00382884e+00
1.00366255e+00
1.00350012e+00
1.00334131e+00
1.00318585e+00
1.00303349e+00
1.00288397e+00
1.00273711e+00
1.00259275e+00
1.00245081e+00
1.00231128e+00
1.00217422e+00
1.00203974e+00
1.00190799e+00
1.00177916e+00
1.00165344e+00
1.00153099e+00
1.00141196e+00
1.00129643e+00
1.00118443e+00
1.00107591e+00
1.00097072e+00
1.00086866e+00
1.00076946e+00
1.00067275e+00
1.00057817e+00
1.00048528e+00
1.00039365e+00
1.00030284e+00
1.00021242e+00
1.00012199e+00
1.00003118e+00
9.99939643e-01
9.99847052e-01
9.99753108e-01
9.99657518e-01
9.99559984e-01
9.99460197e-01
9.99357825e-01
9.99252513e-01
9.99143885e-01
9.99031555e-01
9.98915145e-01
9.98794304e-01
9.98668743e-01
9.98538255e-01
9.98402746e-01
9.98262257e-01
9.98116968e-01
9.97967205e-01
9.97813423e-01
9.97656185e-01
9.97496124e-01
9.97333905e-01
9.97170173e-01
9.97005517e-01
9.96840416e-01
9.96675232e-01
9.96510166e-01
9.96345264e-01
9.96180414e-01
9.96015408e-01
9.95849907e-01
9.95683502e-01
9.95515788e-01
9.95346449e-01
9.95175130e-01
9.95001572e-01
9.94825842e-01
9.94648144e-01
9.94468603e-01
9.94287659e-01
9.94106486e-01
9.93925793e-01
9.93746228e-01
9.93569210e-01
9.93397075e-01
9.93229914e-01
9.93069047e-01
9.92916831e-01
9.92775909e-01
9.92644048e-01
9.92524878e-01
9.92419782e-01
9.92331052e-01
9.92254659e-01
9.92198948e-01
9.92151148e-01
9.92127518e-01
1.00902569e+00
1.00901624e+00
1.00900608e+00
1.00898371e+00
1.00895557e+00
1.00892333e+00
1.00888344e+00
1.00883775e+00
1.00878360e+00
1.00872033e+00
1.00864984e+00
1.00857083e+00
1.00848058e+00
1.00838076e+00
1.00827210e+00
1.00815275e+00
1.00802268e+00
1.00788351e+00
1.00773518e+00
1.00757742e+00
1.00741139e+00
1.00723818e+00
1.00705815e+00
1.00687212e+00
1.00668133e+00
1.00648669e+00
1.00628902e+00
1.00608935e+00
1.00588871e+00
1.00568792e+00
1.00548781e+00
1.00528921e+00
1.00509279e+00
1.00489915e+00
1.00470878e+00
1.00452210e+00
1.00433938e+00
1.00416079e+00
1.00398639e+00
1.00381616e+00
1.00364999e+00
1.00348768e+00
1.00332903e+00
1.00317378e+00
1.00302169e+00
1.00287252e+00
1.00272608e+00
1.00258224e+00
1.00244091e+00
1.00230209e+00
1.00216582e+00
1.00203220e+00
1.00190139e+00
1.00177354e+00
1.00164884e+00
1.00152743e+00
1.00140945e+00
1.00129498e+00
1.00118401e+00
1.00107649e+00
1.00097228e+00
1.00087116e+00
1.00077285e+00
1.00067701e+00
1.00058323e+00
1.00049109e+00
1.00040017e+00
1.00031000e+00
1.00022018e+00
1.00013028e+00
1.00003994e+00
9.99948795e-01
9.99856531e-01
9.99762839e-01
9.99667426e-01
9.99569996e-01
9.99470242e-01
9.99367837e-01
9.99262436e-01
9.99153673e-01
9.99041173e-01
9.98924572e-01
9.98803531e-01
9.98677770e-01
9.98547088e-01
9.98411396e-01
9.98270726e-01
9.98125252e-01
9.97975286e-01
9.97821267e-01
9.97663736e-01
9.97503308e-01
9.97340635e-01
9.97176348e-01
9.97011024e-01
9.96845159e-01
9.96679126e-01
9.96513124e-01
9.96347231e-01
9.96181413e-01
9.96015460e-01
9.95849026e-01
9.95681829e-01
9.95513575e-01
9.95343777e-01
9.95172123e-01
9.94998731e-01
9.94823512e-01
9.94646176e-01
9.94467388e-01
9.94288192e-01
9.94108509e-01
9.93928757e-01
9.93751468e-01
9.93577741e-01
9.93406775e-01
9.93240950e-01
9.93084328e-01
9.92935384e-01
9.92793607e-01
9.92664655e-01
9.92550528e-01
9.92446390e-01
9.92356270e-01
9.92283318e-01
9.92226811e-01
9.92188917e-01
9.92164316e-01
1.00900587e+00
1.00899480e+00
1.00897939e+00
1.00895680e+00
1.00893216e+00
1.00890062e+00
1.00886091e+00
1.00881483e+00
1.00876199e+00
1.00870023e+00
1.00862973e+00
1.00855046e+00
1.00846155e+00
1.00836250e+00
1.00825344e+00
1.00813428e+00
1.00800498e+00
1.00786579e+00
1.00771713e+00
1.00755954e+00
1.00739360e+00
1.00722008e+00
1.00703981e+00
1.00685373e+00
1.00666274e+00
1.00646783e+00
1.00627000e+00
1.00607022e+00
1.00586941e+00
1.00566850e+00
1.00546833e+00
1.00526967e+00
1.00507321e+00
1.00487954e+00
1.00468917e+00
1.00450249e+00
1.00431977e+00
1.00414119e+00
1.00396682e+00
1.00379665e+00
1.00363057e+00
1.00346841e+00
1.00330998e+00
1.00315504e+00
1.00300336e+00
1.00285472e+00
1.00270895e+00
1.00256591e+00
1.00242554e+00
1.00228780e+00
1.00215275e+00
1.00202047e+00
1.00189109e+00
1.00176477e+00
1.00164164e+00
1.00152185e+00
1.00140551e+00
1.00129266e+00
1.00118329e+00
1.00107733e+00
1.00097463e+00
1.00087495e+00
1.00077801e+00
1.00068345e+00
1.00059089e+00
1.00049988e+00
1.00041000e+00
1.00032080e+00
1.00023185e+00
1.00014275e+00
1.00005310e+00
9.99962573e-01
9.99870827e-01
9.99777558e-01
9.99682469e-01
9.99585262e-01
9.99485630e-01
9.99383248e-01
9.99277776e-01
9.99168854e-01
9.99056117e-01
9.98939211e-01
9.98817810e-01
9.98691644e-01
9.98560525e-01
9.98424369e-01
9.98283212e-01
9.98137229e-01
9.97986724e-01
9.97832128e-01
9.97673973e-01
9.97512862e-01
9.97349430e-01
9.97184306e-01
9.97018070e-01
9.96851210e-01
9.96684102e-01
9.96516994e-01
9.96349983e-01
9.96183030e-01
9.96015985e-01
9.95848615e-01
9.95680602e-01
9.95511629e-01
9.95341415e-01
9.95169735e-01
9.94996431e-01
9.94821522e-01
9.94645191e-01
9.94467760e-01
9.94289705e-01
9.94111739e-01
9.93934759e-01
9.93759761e-01
9.93587810e-01
9.93420139e-01
9.93258263e-01
9.93103399e-01
9.92956595e-01
9.92819445e-01
9.92693897e-01
9.92579818e-01
9.92478083e-01
9.92392254e-01
9.92322787e-01
9.92264426e-01
9.92223123e-01
9.92199367e-01
1.00897431e+00
1.00896251e+00
1.00894688e+00
1.00892796e+00
1.00890269e+00
1.00887055e+00
1.00883291e+00
1.00878715e+00
1.00873434e+00
1.00867444e+00
1.00860455e+00
1.00852490e+00
1.00843706e+00
1.00833907e+00
1.00822976e+00
1.00811070e+00
1.00798212e+00
1.00784296e+00
1.00769399e+00
1.00753648e+00
1.00737057e+00
1.00719670e+00
1.00701615e+00
1.00682991e+00
1.00663865e+00
1.00644341e+00
1.00624535e+00
1.00604537e+00
1.00584436e+00
1.00564327e+00
1.00544299e+00
1.00524422e+00
1.00504767e+00
1.00485395e+00
1.00466354e+00
1.00447682e+00
1.00429408e+00
1.00411550e+00
1.00394116e+00
1.00377105e+00
1.00360509e+00
1.00344314e+00
1.00328500e+00
1.00313047e+00
1.00297933e+00
1.00283141e+00
1.00268651e+00
1.00254453e+00
1.00240540e+00
1.00226908e+00
1.00213561e+00
1.00200507e+00
1.00187756e+00
1.00175320e+00
1.00163213e+00
1.00151444e+00
1.00140021e+00
1.00128947e+00
1.00118219e+00
1.00107826e+00
1.00097753e+00
1.00087974e+00
1.00078459e+00
1.00069174e+00
1.00060076e+00
1.00051125e+00
1.00042275e+00
1.00033482e+00
1.00024703e+00
1.00015898e+00
1.00007027e+00
9.99980552e-01
9.99889500e-01
9.99796800e-01
9.99702151e-01
9.99605252e-01
9.99505795e-01
9.99403459e-01
9.99297907e-01
9.99188787e-01
9.99075746e-01
9.98958443e-01
9.98836566e-01
9.98709860e-01
9.98578150e-01
9.98441359e-01
9.98299532e-01
9.98152841e-01
9.98001588e-01
9.97846193e-01
9.97687180e-01
9.97525139e-01
9.97360693e-01
9.97194466e-01
9.97027040e-01
9.96858908e-01
9.96690453e-01
9.96521962e-01
9.96353568e-01
9.96185244e-01
9.96016899e-01
9.95848397e-01
9.95679428e-01
9.95509665e-01
9.95338999e-01
9.95167294e-01
9.94994192e-01
9.94819794e-01
9.94644679e-01
9.94468879e-01
9.94292396e-01
9.94116652e-01
9.93942874e-01
9.93770678e-01
9.93601202e-01
9.93437592e-01
9.93280050e-01
9.93127547e-01
9.92983915e-01
9.92852145e-01
9.92729433e-01
9.92616686e-01
9.92519620e-01
9.92436654e-01
9.92366109e-01
9.92311407e-01
9.92274604e-01
9.92250058e-01
1.00893620e+00
1.00892623e+00
1.00891087e+00
1.00889210e+00
1.00886632e+00
1.00883481e+00
1.00879855e+00
1.00875455e+00
1.00870195e+00
1.00864172e+00
1.00857336e+00
1.00849537e+00
1.00840719e+00
1.00830917e+00
1.00820118e+00
1.00808262e+00
1.00795352e+00
1.00781457e+00
1.00766610e+00
1.00750832e+00
1.00734200e+00
1.00716814e+00
1.00698745e+00
1.00680076e+00
1.00660918e+00
1.00641375e+00
1.00621538e+00
1.00601507e+00
1.00581384e+00
1.00561257e+00
1.00541207e+00
1.00521314e+00
1.00501648e+00
1.00482265e+00
1.00463215e+00
1.00444537e+00
1.00426259e+00
1.00408401e+00
1.00390970e+00
1.00373968e+00
1.00357389e+00
1.00341219e+00
1.00325444e+00
1.00310043e+00
1.00294999e+00
1.00280295e+00
1.00265914e+00
1.00251845e+00
1.00238082e+00
1.00224621e+00
1.00211466e+00
1.00198621e+00
1.00186094e+00
1.00173896e+00
1.00162035e+00
1.00150518e+00
1.00139351e+00
1.00128533e+00
1.00118057e+00
1.00107912e+00
1.00098077e+00
1.00088528e+00
1.00079233e+00
1.00070155e+00
1.00061254e+00
1.00052485e+00
1.00043804e+00
1.00035167e+00
1.00026531e+00
1.00017855e+00
1.00009100e+00
1.00000231e+00
9.99912133e-01
9.99820164e-01
9.99726097e-01
9.99629628e-01
9.99530447e-01
9.99428233e-01
9.99322652e-01
9.99213360e-01
9.99100012e-01
9.98982278e-01
9.98859860e-01
9.98732517e-01
9.98600086e-01
9.98462500e-01
9.98319812e-01
9.98172197e-01
9.98019957e-01
9.97863510e-01
9.97703368e-01
9.97540118e-01
9.97374383e-01
9.97206780e-01
9.97037890e-01
9.96868229e-01
9.96698207e-01
9.96528108e-01
9.96358111e-01
9.96188284e-01
9.96018547e-01
9.95848746e-01
9.95678742e-01
9.95508328e-01
9.95337229e-01
9.95165347e-01
9.94992749e-01
9.94819385e-01
9.94645319e-01
9.94471121e-01
9.94297390e-01
9.94124398e-01
9.93952929e-01
9.93784431e-01
9.93619740e-01
9.93459304e-01
9.93304715e-01
9.93157899e-01
9.93019357e-01
9.92889432e-01
9.92770053e-01
9.92663446e-01
9.92569542e-01
9.92487193e-01
9.92419383e-01
9.92368025e-01
9.92329515e-01
9.92305908e-01
1.00889232e+00
1.00888200e+00
1.00886754e+00
1.00884895e+00
1.00882529e+00
1.00879502e+00
1.00875780e+00
1.00871491e+00
1.00866429e+00
1.00860433e+00
1.00853641e+00
1.00845965e+00
1.00837204e+00
1.00827434e+00
1.00816705e+00
1.00804886e+00
1.00791983e+00
1.00778114e+00
1.00763280e+00
1.00747485e+00
1.00730840e+00
1.00713444e+00
1.00695346e+00
1.00676645e+00
1.00657461e+00
1.00637889e+00
1.00618019e+00
1.00597960e+00
1.00577813e+00
1.00557662e+00
1.00537592e+00
1.00517683e+00
1.00498002e+00
1.00478607e+00
1.00459547e+00
1.00440862e+00
1.00422581e+00
1.00404721e+00
1.00387295e+00
1.00370305e+00
1.00353746e+00
1.00337607e+00
1.00321877e+00
1.00306539e+00
1.00291577e+00
1.00276975e+00
1.00262720e+00
1.00248801e+00
1.00235212e+00
1.00221950e+00
1.00209015e+00
1.00196411e+00
1.00184143e+00
1.00172218e+00
1.00160641e+00
1.00149416e+00
1.00138544e+00
1.00128021e+00
1.00117837e+00
1.00107978e+00
1.00098421e+00
1.00089139e+00
1.00080099e+00
1.00071262e+00
1.00062589e+00
1.00054033e+00
1.00045552e+00
1.00037099e+00
1.00028633e+00
1.00020111e+00
1.00011495e+00
1.00002748e+00
9.99938380e-01
9.99847317e-01
9.99753985e-01
9.99658075e-01
9.99559275e-01
9.99457263e-01
9.99351708e-01
9.99242270e-01
9.99128616e-01
9.99010426e-01
9.98887417e-01
9.98759362e-01
9.98626110e-01
9.98487611e-01
9.98343923e-01
9.98195225e-01
9.98041821e-01
9.97884128e-01
9.97722654e-01
9.97557979e-01
9.97390726e-01
9.97221516e-01
9.97050933e-01
9.96879507e-01
9.96707686e-01
9.96535781e-01
9.96363999e-01
9.96192473e-01
9.96021204e-01
9.95850056e-01
9.95678938e-01
9.95507782e-01
9.95336352e-01
9.95164484e-01
9.94992384e-01
9.94820159e-01
9.94647664e-01
9.94475412e-01
9.94304362e-01
9.94134618e-01
9.93966470e-01
9.93801786e-01
9.93641653e-01
9.93485583e-01
9.93335244e-01
9.93193494e-01
9.93059663e-01
9.92933546e-01
9.92819069e-01
9.92717089e-01
9.92625084e-01
9.92545674e-01
9.92482585e-01
9.92433365e-01
9.92395179e-01
9.92372213e-01
1.00884285e+00
1.00883337e+00
1.00881969e+00
1.00880064e+00
1.00877727e+00
1.00874874e+00
1.00871262e+00
1.00866958e+00
1.00861996e+00
1.00856197e+00
1.00849434e+00
1.00841745e+00
1.00833135e+00
1.00823477e+00
1.00812714e+00
1.00800923e+00
1.00788120e+00
1.00774259e+00
1.00759390e+00
1.00743618e+00
1.00726992e+00
1.00709558e+00
1.00691432e+00
1.00672725e+00
1.00653516e+00
1.00633905e+00
1.00614011e+00
1.00593932e+00
1.00573757e+00
1.00553582e+00
1.00533495e+00
1.00513570e+00
1.00493873e+00
1.00474467e+00
1.00455399e+00
1.00436707e+00
1.00418422e+00
1.00400565e+00
1.00383146e+00
1.00366171e+00
1.00349636e+00
1.00333536e+00
1.00317859e+00
1.00302593e+00
1.00287724e+00
1.00273238e+00
1.00259125e+00
1.00245374e+00
1.00231980e+00
1.00218939e+00
1.00206249e+00
1.00193913e+00
1.00181933e+00
1.00170311e+00
1.00159050e+00
1.00148149e+00
1.00137605e+00
1.00127410e+00
1.00117552e+00
1.00108012e+00
1.00098765e+00
1.00089782e+00
1.00081028e+00
1.00072464e+00
1.00064047e+00
1.00055733e+00
1.00047477e+00
1.00039235e+00
1.00030961e+00
1.00022616e+00
1.00014161e+00
1.00005558e+00
9.99967737e-01
9.99877755e-01
9.99785318e-01
9.99690112e-01
9.99591821e-01
9.99490120e-01
9.99384679e-01
9.99275163e-01
9.99161245e-01
9.99042617e-01
9.98919007e-01
9.98790205e-01
9.98656071e-01
9.98516567e-01
9.98371761e-01
9.98221842e-01
9.98067112e-01
9.97907990e-01
9.97744987e-01
9.97578682e-01
9.97409694e-01
9.97238656e-01
9.97066176e-01
9.96892788e-01
9.96718960e-01
9.96545081e-01
9.96371400e-01
9.96198045e-01
9.96025116e-01
9.95852632e-01
9.95680452e-01
9.95508480e-01
9.95336779e-01
9.95165270e-01
9.94993788e-01
9.94822613e-01
9.94652206e-01
9.94482570e-01
9.94313961e-01
9.94147559e-01
9.93984117e-01
9.93823569e-01
9.93667033e-01
9.93516535e-01
9.93372339e-01
9.93234319e-01
9.93104657e-01
9.92985364e-01
9.92875719e-01
9.92775711e-01
9.92688264e-01
9.92614659e-01
9.92552560e-01
9.92503160e-01
9.92468922e-01
9.92448164e-01
1.00878731e+00
1.00877755e+00
1.00876528e+00
1.00874767e+00
1.00872408e+00
1.00869574e+00
1.00866160e+00
1.00861954e+00
1.00856992e+00
1.00851296e+00
1.00844665e+00
1.00837046e+00
1.00828489e+00
1.00818895e+00
1.00808199e+00
1.00796466e+00
1.00783691e+00
1.00769847e+00
1.00755010e+00
1.00739256e+00
1.00722618e+00
1.00705176e+00
1.00687050e+00
1.00668325e+00
1.00649089e+00
1.00629461e+00
1.00609550e+00
1.00589447e+00
1.00569251e+00
1.00549061e+00
1.00528960e+00
1.00509020e+00
1.00489314e+00
1.00469900e+00
1.00450826e+00
1.00432132e+00
1.00413848e+00
1.00395995e+00
1.00378588e+00
1.00361632e+00
1.00345128e+00
1.00329072e+00
1.00313456e+00
1.00298270e+00
1.00283504e+00
1.00269146e+00
1.00255188e+00
1.00241621e+00
1.00228438e+00
1.00215636e+00
1.00203213e+00
1.00191166e+00
1.00179496e+00
1.00168202e+00
1.00157282e+00
1.00146731e+00
1.00136542e+00
1.00126703e+00
1.00117197e+00
1.00108003e+00
1.00099093e+00
1.00090435e+00
1.00081993e+00
1.00073726e+00
1.00065591e+00
1.00057543e+00
1.00049536e+00
1.00041525e+00
1.00033467e+00
1.00025321e+00
1.00017046e+00
1.00008607e+00
9.99999673e-01
9.99910948e-01
9.99819570e-01
9.99725217e-01
9.99627567e-01
9.99526295e-01
9.99421067e-01
9.99311553e-01
9.99197432e-01
9.99078407e-01
9.98954219e-01
9.98824667e-01
9.98689630e-01
9.98549079e-01
9.98403091e-01
9.98251862e-01
9.98095702e-01
9.97935027e-01
9.97770350e-01
9.97602258e-01
9.97431372e-01
9.97258332e-01
9.97083767e-01
9.96908251e-01
9.96732271e-01
9.96556253e-01
9.96380530e-01
9.96205295e-01
9.96030658e-01
9.95856733e-01
9.95683528e-01
9.95510935e-01
9.95338983e-01
9.95167815e-01
9.94997364e-01
9.94827659e-01
9.94659208e-01
9.94492387e-01
9.94327212e-01
9.94164420e-01
9.94005135e-01
9.93849559e-01
9.93698122e-01
9.93552593e-01
9.93413745e-01
9.93281373e-01
9.93157208e-01
9.93042972e-01
9.92937805e-01
9.92842500e-01
9.92759829e-01
9.92689358e-01
9.92629458e-01
9.92583122e-01
9.92551602e-01
9.92530671e-01
1.00872769e+00
1.00871833e+00
1.00870448e+00
1.00868808e+00
1.00866634e+00
1.00863774e+00
1.00860379e+00
1.00856366e+00
1.00851507e+00
1.00845797e+00
1.00839280e+00
1.00831815e+00
1.00823276e+00
1.00813716e+00
1.00803149e+00
1.00791476e+00
1.00778695e+00
1.00764908e+00
1.00750135e+00
1.00734379e+00
1.00717739e+00
1.00700328e+00
1.00682206e+00
1.00663461e+00
1.00644221e+00
1.00624592e+00
1.00604664e+00
1.00584546e+00
1.00564344e+00
1.00544145e+00
1.00524032e+00
1.00504087e+00
1.00484377e+00
1.00464960e+00
1.00445885e+00
1.00427193e+00
1.00408915e+00
1.00391072e+00
1.00373682e+00
1.00356751e+00
1.00340284e+00
1.00324279e+00
1.00308731e+00
1.00293635e+00
1.00278981e+00
1.00264762e+00
1.00250970e+00
1.00237599e+00
1.00224641e+00
1.00212093e+00
1.00199951e+00
1.00188211e+00
1.00176869e+00
1.00165921e+00
1.00155361e+00
1.00145180e+00
1.00135365e+00
1.00125902e+00
1.00116769e+00
1.00107941e+00
1.00099388e+00
1.00091075e+00
1.00082965e+00
1.00075015e+00
1.00067182e+00
1.00059418e+00
1.00051680e+00
1.00043921e+00
1.00036098e+00
1.00028169e+00
1.00020094e+00
1.00011836e+00
1.00003359e+00
9.99946303e-01
9.99856152e-01
9.99762814e-01
9.99665959e-01
9.99565255e-01
9.99460367e-01
9.99350968e-01
9.99236740e-01
9.99117394e-01
9.98992682e-01
9.98862416e-01
9.98726486e-01
9.98584875e-01
9.98437670e-01
9.98285074e-01
9.98127402e-01
9.97965078e-01
9.97798613e-01
9.97628601e-01
9.97455684e-01
9.97280510e-01
9.97103722e-01
9.96925939e-01
9.96747710e-01
9.96569473e-01
9.96391613e-01
9.96214457e-01
9.96038168e-01
9.95862825e-01
9.95688591e-01
9.95515560e-01
9.95343616e-01
9.95172833e-01
9.95003566e-01
9.94835859e-01
9.94669632e-01
9.94505549e-01
9.94344346e-01
9.94185904e-01
9.94030603e-01
9.93880048e-01
9.93734805e-01
9.93594437e-01
9.93460358e-01
9.93334628e-01
9.93216726e-01
9.93106376e-01
9.93006218e-01
9.92917556e-01
9.92838333e-01
9.92769464e-01
9.92714529e-01
9.92672118e-01
9.92639043e-01
9.92618712e-01
1.00866092e+00
1.00865222e+00
1.00863950e+00
1.00862307e+00
1.00860199e+00
1.00857478e+00
1.00854118e+00
1.00850134e+00
1.00845405e+00
1.00839807e+00
1.00833333e+00
1.00825931e+00
1.00817504e+00
1.00808037e+00
1.00797513e+00
1.00785891e+00
1.00773199e+00
1.00759472e+00
1.00744719e+00
1.00729000e+00
1.00712411e+00
1.00695018e+00
1.00676899e+00
1.00658172e+00
1.00638947e+00
1.00619315e+00
1.00599385e+00
1.00579273e+00
1.00559072e+00
1.00538870e+00
1.00518760e+00
1.00498819e+00
1.00479112e+00
1.00459699e+00
1.00440632e+00
1.00421950e+00
1.00403684e+00
1.00385858e+00
1.00368492e+00
1.00351594e+00
1.00335170e+00
1.00319224e+00
1.00303752e+00
1.00288752e+00
1.00274219e+00
1.00260148e+00
1.00246532e+00
1.00233365e+00
1.00220644e+00
1.00208361e+00
1.00196511e+00
1.00185089e+00
1.00174087e+00
1.00163498e+00
1.00153310e+00
1.00143512e+00
1.00134085e+00
1.00125011e+00
1.00116264e+00
1.00107816e+00
1.00099634e+00
1.00091681e+00
1.00083917e+00
1.00076299e+00
1.00068782e+00
1.00061319e+00
1.00053864e+00
1.00046373e+00
1.00038801e+00
1.00031106e+00
1.00023248e+00
1.00015189e+00
1.00006892e+00
9.99983230e-01
9.99894472e-01
9.99802309e-01
9.99706402e-01
9.99606412e-01
9.99502002e-01
9.99392843e-01
9.99278622e-01
9.99159055e-01
9.99033905e-01
9.98902995e-01
9.98766224e-01
9.98623587e-01
9.98475181e-01
9.98321213e-01
9.98162004e-01
9.97997985e-01
9.97829677e-01
9.97657676e-01
9.97482636e-01
9.97305240e-01
9.97126155e-01
9.96946022e-01
9.96765450e-01
9.96584964e-01
9.96404975e-01
9.96225853e-01
9.96047917e-01
9.95871327e-01
9.95696187e-01
9.95522706e-01
9.95351014e-01
9.95181069e-01
9.95013045e-01
9.94847335e-01
9.94684032e-01
9.94523234e-01
9.94365620e-01
9.94211768e-01
9.94061746e-01
9.93916201e-01
9.93776212e-01
9.93642097e-01
9.93514218e-01
9.93393815e-01
9.93281458e-01
9.93177312e-01
9.93082506e-01
9.92997860e-01
9.92922993e-01
9.92858743e-01
9.92806619e-01
9.92765868e-01
9.92735375e-01
9.92716815e-01
1.00858912e+00
1.00858105e+00
1.00856996e+00
1.00855323e+00
1.00853166e+00
1.00850598e+00
1.00847361e+00
1.00843360e+00
1.00838691e+00
1.00833245e+00
1.00826833e+00
1.00819463e+00
1.00811156e+00
1.00801791e+00
1.00791305e+00
1.00779767e+00
1.00767181e+00
1.00753502e+00
1.00738794e+00
1.00723156e+00
1.00706620e+00
1.00689250e+00
1.00671172e+00
1.00652488e+00
1.00633281e+00
1.00613664e+00
1.00593760e+00
1.00573665e+00
1.00553473e+00
1.00533286e+00
1.00513191e+00
1.00493263e+00
1.00473569e+00
1.00454172e+00
1.00435121e+00
1.00416456e+00
1.00398211e+00
1.00380411e+00
1.00363076e+00
1.00346218e+00
1.00329847e+00
1.00313966e+00
1.00298578e+00
1.00283683e+00
1.00269279e+00
1.00255363e+00
1.00241930e+00
1.00228977e+00
1.00216498e+00
1.00204488e+00
1.00192938e+00
1.00181841e+00
1.00171187e+00
1.00160964e+00
1.00151156e+00
1.00141747e+00
1.00132715e+00
1.00124037e+00
1.00115684e+00
1.00107623e+00
1.00099820e+00
1.00092235e+00
1.00084825e+00
1.00077548e+00
1.00070356e+00
1.00063204e+00
1.00056045e+00
1.00048834e+00
1.00041525e+00
1.00034078e+00
1.00026451e+00
1.00018606e+00
1.00010505e+00
1.00002112e+00
9.99933915e-01
9.99843091e-01
9.99748294e-01
9.99649177e-01
9.99545399e-01
9.99436626e-01
9.99322548e-01
9.99202887e-01
9.99077412e-01
9.98945956e-01
9.98808427e-01
9.98664829e-01
9.98515266e-01
9.98359956e-01
9.98199224e-01
9.98033505e-01
9.97863333e-01
9.97689320e-01
9.97512127e-01
9.97332464e-01
9.97151051e-01
9.96968563e-01
9.96785637e-01
9.96602890e-01
9.96420836e-01
9.96239855e-01
9.96060321e-01
9.95882589e-01
9.95706812e-01
9.95533090e-01
9.95361728e-01
9.95192938e-01
9.95026630e-01
9.94863039e-01
9.94702754e-01
9.94545844e-01
9.94392236e-01
9.94242819e-01
9.94098354e-01
9.93958517e-01
9.93823760e-01
9.93695729e-01
9.93574560e-01
9.93459649e-01
9.93352601e-01
9.93255019e-01
9.93165643e-01
9.93084496e-01
9.93014434e-01
9.92955391e-01
9.92905081e-01
9.92865637e-01
9.92838707e-01
9.92821581e-01
1.00851341e+00
1.00850500e+00
1.00849366e+00
1.00847820e+00
1.00845752e+00
1.00843144e+00
1.00839956e+00
1.00836093e+00
1.00831471e+00
1.00826041e+00
1.00819736e+00
1.00812486e+00
1.00804230e+00
1.00794928e+00
1.00784568e+00
1.00773133e+00
1.00760601e+00
1.00747008e+00
1.00732413e+00
1.00716845e+00
1.00700361e+00
1.00683068e+00
1.00665060e+00
1.00646417e+00
1.00627251e+00
1.00607685e+00
1.00587819e+00
1.00567750e+00
1.00547590e+00
1.00527436e+00
1.00507367e+00
1.00487463e+00
1.00467797e+00
1.00448427e+00
1.00429401e+00
1.00410764e+00
1.00392551e+00
1.00374786e+00
1.00357491e+00
1.00340683e+00
1.00324371e+00
1.00308565e+00
1.00293269e+00
1.00278487e+00
1.00264219e+00
1.00250464e+00
1.00237222e+00
1.00224488e+00
1.00212257e+00
1.00200524e+00
1.00189278e+00
1.00178510e+00
1.00168206e+00
1.00158350e+00
1.00148924e+00
1.00139906e+00
1.00131270e+00
1.00122989e+00
1.00115030e+00
1.00107358e+00
1.00099935e+00
1.00092720e+00
1.00085669e+00
1.00078736e+00
1.00071875e+00
1.00065039e+00
1.00058183e+00
1.00051259e+00
1.00044224e+00
1.00037035e+00
1.00029651e+00
1.00022032e+00
1.00014140e+00
1.00005938e+00
9.99973878e-01
9.99884544e-01
9.99791012e-01
9.99692925e-01
9.99589932e-01
9.99481699e-01
9.99367914e-01
9.99248303e-01
9.99122640e-01
9.98990764e-01
9.98852594e-01
9.98708141e-01
9.98557514e-01
9.98400938e-01
9.98238749e-01
9.98071385e-01
9.97899387e-01
9.97723388e-01
9.97544078e-01
9.97362182e-01
9.97178455e-01
9.96993649e-01
9.96808455e-01
9.96623513e-01
9.96439444e-01
9.96256765e-01
9.96075848e-01
9.95897071e-01
9.95720815e-01
9.95547253e-01
9.95376501e-01
9.95208892e-01
9.95044685e-01
9.94883844e-01
9.94726596e-01
9.94573506e-01
9.94424716e-01
9.94280223e-01
9.94140699e-01
9.94006801e-01
9.93878485e-01
9.93756114e-01
9.93640641e-01
9.93532447e-01
9.93431550e-01
9.93338669e-01
9.93254501e-01
9.93179210e-01
9.93113088e-01
9.93056661e-01
9.93010169e-01
9.92974178e-01
9.92948069e-01
9.92931151e-01
1.00843269e+00
1.00842475e+00
1.00841274e+00
1.00839784e+00
1.00837814e+00
1.00835194e+00
1.00832019e+00
1.00828257e+00
1.00823693e+00
1.00818288e+00
1.00812072e+00
1.00804922e+00
1.00796729e+00
1.00787521e+00
1.00777285e+00
1.00765940e+00
1.00753503e+00
1.00740037e+00
1.00725550e+00
1.00710064e+00
1.00693684e+00
1.00676496e+00
1.00658563e+00
1.00639990e+00
1.00620905e+00
1.00601405e+00
1.00581588e+00
1.00561575e+00
1.00541469e+00
1.00521357e+00
1.00501329e+00
1.00481468e+00
1.00461842e+00
1.00442509e+00
1.00423522e+00
1.00404925e+00
1.00386753e+00
1.00369033e+00
1.00351789e+00
1.00335039e+00
1.00318797e+00
1.00303074e+00
1.00287879e+00
1.00273217e+00
1.00259091e+00
1.00245505e+00
1.00232458e+00
1.00219947e+00
1.00207968e+00
1.00196513e+00
1.00185573e+00
1.00175133e+00
1.00165178e+00
1.00155688e+00
1.00146640e+00
1.00138009e+00
1.00129766e+00
1.00121878e+00
1.00114309e+00
1.00107022e+00
1.00099976e+00
1.00093127e+00
1.00086431e+00
1.00079842e+00
1.00073311e+00
1.00066794e+00
1.00060242e+00
1.00053610e+00
1.00046854e+00
1.00039930e+00
1.00032797e+00
1.00025415e+00
1.00017743e+00
1.00009743e+00
1.00001377e+00
9.99926068e-01
9.99833950e-01
9.99737046e-01
9.99634996e-01
9.99527462e-01
9.99414128e-01
9.99294723e-01
9.99169024e-01
9.99036877e-01
9.98898207e-01
9.98753030e-01
9.98601465e-01
9.98443739e-01
9.98280195e-01
9.98111286e-01
9.97937561e-01
9.97759664e-01
9.97578319e-01
9.97394292e-01
9.97208362e-01
9.97021333e-01
9.96833993e-01
9.96647043e-01
9.96461127e-01
9.96276888e-01
9.96094844e-01
9.95915346e-01
9.95738792e-01
9.95565599e-01
9.95395916e-01
9.95229848e-01
9.95067803e-01
9.94910045e-01
9.94756447e-01
9.94607284e-01
9.94463199e-01
9.94324167e-01
9.94190056e-01
9.94061742e-01
9.93939783e-01
9.93823685e-01
9.93713913e-01
9.93611849e-01
9.93517192e-01
9.93429408e-01
9.93350124e-01
9.93280210e-01
9.93218125e-01
9.93164547e-01
9.93121713e-01
9.93088552e-01
9.93063087e-01
9.93047369e-01
1.00834614e+00
1.00833885e+00
1.00832816e+00
1.00831277e+00
1.00829268e+00
1.00826758e+00
1.00823637e+00
1.00819831e+00
1.00815322e+00
1.00810035e+00
1.00803859e+00
1.00796747e+00
1.00788681e+00
1.00779598e+00
1.00769437e+00
1.00758206e+00
1.00745928e+00
1.00732586e+00
1.00718204e+00
1.00702860e+00
1.00686620e+00
1.00669536e+00
1.00651708e+00
1.00633254e+00
1.00614266e+00
1.00594844e+00
1.00575112e+00
1.00555179e+00
1.00535138e+00
1.00515088e+00
1.00495123e+00
1.00475319e+00
1.00455744e+00
1.00436463e+00
1.00417529e+00
1.00398983e+00
1.00380863e+00
1.00363199e+00
1.00346017e+00
1.00329336e+00
1.00313173e+00
1.00297543e+00
1.00282456e+00
1.00267922e+00
1.00253946e+00
1.00240534e+00
1.00227686e+00
1.00215402e+00
1.00203676e+00
1.00192500e+00
1.00181863e+00
1.00171748e+00
1.00162137e+00
1.00153007e+00
1.00144332e+00
1.00136080e+00
1.00128220e+00
1.00120716e+00
1.00113529e+00
1.00106618e+00
1.00099939e+00
1.00093450e+00
1.00087102e+00
1.00080850e+00
1.00074645e+00
1.00068442e+00
1.00062194e+00
1.00055854e+00
1.00049378e+00
1.00042723e+00
1.00035846e+00
1.00028707e+00
1.00021263e+00
1.00013475e+00
1.00005304e+00
9.99967085e-01
9.99876510e-01
9.99780927e-01
9.99679968e-01
9.99573284e-01
9.99460561e-01
9.99341524e-01
9.99215955e-01
9.99083704e-01
9.98944699e-01
9.98798963e-01
9.98646622e-01
9.98487909e-01
9.98323169e-01
9.98152866e-01
9.97977569e-01
9.97797937e-01
9.97614711e-01
9.97428707e-01
9.97240764e-01
9.97051712e-01
9.96862399e-01
9.96673652e-01
9.96486182e-01
9.96300634e-01
9.96117662e-01
9.95937792e-01
9.95761354e-01
9.95588730e-01
9.95420352e-01
9.95256369e-01
9.95096839e-01
9.94942146e-01
9.94792573e-01
9.94647973e-01
9.94508500e-01
9.94374739e-01
9.94246731e-01
9.94124261e-01
9.94007892e-01
9.93898235e-01
9.93795010e-01
9.93698287e-01
9.93608988e-01
9.93527419e-01
9.93453168e-01
9.93386760e-01
9.93329042e-01
9.93279965e-01
9.93239278e-01
9.93207544e-01
9.93184958e-01
9.93170861e-01
1.00825589e+00
1.00824867e+00
1.00823842e+00
1.00822305e+00
1.00820283e+00
1.00817802e+00
1.00814703e+00
1.00810906e+00
1.00806439e+00
1.00801206e+00
1.00795079e+00
1.00788050e+00
1.00780091e+00
1.00771105e+00
1.00761062e+00
1.00749987e+00
1.00737854e+00
1.00724649e+00
1.00710432e+00
1.00695258e+00
1.00679160e+00
1.00662218e+00
1.00644545e+00
1.00626225e+00
1.00607352e+00
1.00588048e+00
1.00568429e+00
1.00548590e+00
1.00528636e+00
1.00508673e+00
1.00488786e+00
1.00469052e+00
1.00449547e+00
1.00430333e+00
1.00411462e+00
1.00392979e+00
1.00374924e+00
1.00357329e+00
1.00340218e+00
1.00323616e+00
1.00307543e+00
1.00292015e+00
1.00277046e+00
1.00262647e+00
1.00248828e+00
1.00235594e+00
1.00222950e+00
1.00210894e+00
1.00199421e+00
1.00188522e+00
1.00178184e+00
1.00168390e+00
1.00159116e+00
1.00150337e+00
1.00142023e+00
1.00134140e+00
1.00126652e+00
1.00119519e+00
1.00112700e+00
1.00106151e+00
1.00099829e+00
1.00093686e+00
1.00087675e+00
1.00081750e+00
1.00075863e+00