# vtk DataFile Version 2.0
LBM Flow Field - Timestep 4830
ASCII
DATASET STRUCTURED_POINTS
DIMENSIONS 128 128 1
ORIGIN 0.0 0.0 0.0
SPACING 1.0 1.0 1.0
POINT_DATA 16384
SCALARS density double 1
LOOKUP_TABLE default
1.00535238e+00
1.00535569e+00
1.00535904e+00
1.00535223e+00
1.00534480e+00
1.00533873e+00
1.00532976e+00
1.00531797e+00
1.00530587e+00
1.00529267e+00
1.00527707e+00
1.00525987e+00
1.00524144e+00
1.00522113e+00
1.00519872e+00
1.00517457e+00
1.00514853e+00
1.00512030e+00
1.00508988e+00
1.00505734e+00
1.00502247e+00
1.00498520e+00
1.00494553e+00
1.00490342e+00
1.00485878e+00
1.00481160e+00
1.00476191e+00
1.00470970e+00
1.00465496e+00
1.00459776e+00
1.00453816e+00
1.00447621e+00
1.00441201e+00
1.00434567e+00
1.00427729e+00
1.00420701e+00
1.00413497e+00
1.00406132e+00
1.00398620e+00
1.00390978e+00
1.00383221e+00
1.00375366e+00
1.00367426e+00
1.00359418e+00
1.00351355e+00
1.00343251e+00
1.00335115e+00
1.00326960e+00
1.00318794e+00
1.00310625e+00
1.00302458e+00
1.00294298e+00
1.00286148e+00
1.00278009e+00
1.00269882e+00
1.00261765e+00
1.00253656e+00
1.00245553e+00
1.00237452e+00
1.00229349e+00
1.00221242e+00
1.00213126e+00
1.00205000e+00
1.00196860e+00
1.00188706e+00
1.00180539e+00
1.00172360e+00
1.00164172e+00
1.00155981e+00
1.00147794e+00
1.00139619e+00
1.00131466e+00
1.00123349e+00
1.00115280e+00
1.00107275e+00
1.00099349e+00
1.00091518e+00
1.00083800e+00
1.00076212e+00
1.00068770e+00
1.00061491e+00
1.00054391e+00
1.00047484e+00
1.00040783e+00
1.00034300e+00
1.00028043e+00
1.00022022e+00
1.00016241e+00
1.00010704e+00
1.00005413e+00
1.00000368e+00
9.99955655e-01
9.99910019e-01
9.99866714e-01
9.99825672e-01
9.99786803e-01
9.99750009e-01
9.99715195e-01
9.99682255e-01
9.99651063e-01
9.99621513e-01
9.99593512e-01
9.99566940e-01
9.99541666e-01
9.99517642e-01
9.99494796e-01
9.99472986e-01
9.99452142e-01
9.99432340e-01
9.99413464e-01
9.99395336e-01
9.99378103e-01
9.99361960e-01
9.99346497e-01
9.99331664e-01
9.99318123e-01
9.99305798e-01
9.99293608e-01
9.99282486e-01
9.99273717e-01
9.99265504e-01
9.99256381e-01
9.99250788e-01
9.99248663e-01
9.99243193e-01
9.99237040e-01
9.99245474e-01
9.99252255e-01
1.00535728e+00
1.00535641e+00
1.00535796e+00
1.00535285e+00
1.00534602e+00
1.00533891e+00
1.00533023e+00
1.00531910e+00
1.00530672e+00
1.00529320e+00
1.00527781e+00
1.00526064e+00
1.00524191e+00
1.00522149e+00
1.00519908e+00
1.00517479e+00
1.00514854e+00
1.00512022e+00
1.00508970e+00
1.00505699e+00
1.00502200e+00
1.00498464e+00
1.00494486e+00
1.00490264e+00
1.00485793e+00
1.00481070e+00
1.00476095e+00
1.00470869e+00
1.00465394e+00
1.00459674e+00
1.00453714e+00
1.00447522e+00
1.00441106e+00
1.00434477e+00
1.00427646e+00
1.00420626e+00
1.00413430e+00
1.00406074e+00
1.00398573e+00
1.00390941e+00
1.00383195e+00
1.00375351e+00
1.00367423e+00
1.00359426e+00
1.00351374e+00
1.00343280e+00
1.00335154e+00
1.00327008e+00
1.00318851e+00
1.00310690e+00
1.00302530e+00
1.00294376e+00
1.00286231e+00
1.00278097e+00
1.00269973e+00
1.00261859e+00
1.00253752e+00
1.00245651e+00
1.00237551e+00
1.00229449e+00
1.00221342e+00
1.00213226e+00
1.00205099e+00
1.00196958e+00
1.00188804e+00
1.00180636e+00
1.00172456e+00
1.00164267e+00
1.00156075e+00
1.00147887e+00
1.00139712e+00
1.00131559e+00
1.00123441e+00
1.00115372e+00
1.00107365e+00
1.00099437e+00
1.00091605e+00
1.00083884e+00
1.00076293e+00
1.00068847e+00
1.00061564e+00
1.00054459e+00
1.00047546e+00
1.00040837e+00
1.00034346e+00
1.00028081e+00
1.00022049e+00
1.00016258e+00
1.00010710e+00
1.00005407e+00
1.00000349e+00
9.99955332e-01
9.99909565e-01
9.99866128e-01
9.99824952e-01
9.99785950e-01
9.99749032e-01
9.99714097e-01
9.99681037e-01
9.99649738e-01
9.99620097e-01
9.99592004e-01
9.99565346e-01
9.99540019e-01
9.99515955e-01
9.99493047e-01
9.99471210e-01
9.99450395e-01
9.99430588e-01
9.99411667e-01
9.99393622e-01
9.99376496e-01
9.99360304e-01
9.99344834e-01
9.99330290e-01
9.99316811e-01
9.99304259e-01
9.99292286e-01
9.99281737e-01
9.99272522e-01
9.99263927e-01
9.99255828e-01
9.99250735e-01
9.99246624e-01
9.99241818e-01
9.99238374e-01
9.99244067e-01
9.99244122e-01
1.00536465e+00
1.00536205e+00
1.00535563e+00
1.00535349e+00
1.00534946e+00
1.00534018e+00
1.00533053e+00
1.00532090e+00
1.00530861e+00
1.00529412e+00
1.00527886e+00
1.00526204e+00
1.00524296e+00
1.00522220e+00
1.00519987e+00
1.00517547e+00
1.00514894e+00
1.00512046e+00
1.00508988e+00
1.00505699e+00
1.00502180e+00
1.00498433e+00
1.00494444e+00
1.00490207e+00
1.00485725e+00
1.00480994e+00
1.00476010e+00
1.00470776e+00
1.00465296e+00
1.00459572e+00
1.00453609e+00
1.00447416e+00
1.00441001e+00
1.00434374e+00
1.00427546e+00
1.00420530e+00
1.00413341e+00
1.00405991e+00
1.00398497e+00
1.00390874e+00
1.00383138e+00
1.00375303e+00
1.00367385e+00
1.00359399e+00
1.00351357e+00
1.00343273e+00
1.00335159e+00
1.00327023e+00
1.00318876e+00
1.00310725e+00
1.00302574e+00
1.00294430e+00
1.00286294e+00
1.00278168e+00
1.00270052e+00
1.00261945e+00
1.00253845e+00
1.00245749e+00
1.00237654e+00
1.00229557e+00
1.00221455e+00
1.00213343e+00
1.00205219e+00
1.00197081e+00
1.00188929e+00
1.00180763e+00
1.00172584e+00
1.00164396e+00
1.00156204e+00
1.00148016e+00
1.00139840e+00
1.00131685e+00
1.00123565e+00
1.00115493e+00
1.00107482e+00
1.00099550e+00
1.00091712e+00
1.00083985e+00
1.00076387e+00
1.00068933e+00
1.00061641e+00
1.00054526e+00
1.00047601e+00
1.00040881e+00
1.00034377e+00
1.00028098e+00
1.00022052e+00
1.00016246e+00
1.00010682e+00
1.00005363e+00
1.00000288e+00
9.99954563e-01
9.99908629e-01
9.99865026e-01
9.99823682e-01
9.99784520e-01
9.99747450e-01
9.99712363e-01
9.99679155e-01
9.99647730e-01
9.99617973e-01
9.99589754e-01
9.99562993e-01
9.99537607e-01
9.99513462e-01
9.99490460e-01
9.99468605e-01
9.99447813e-01
9.99427913e-01
9.99408949e-01
9.99391049e-01
9.99373963e-01
9.99357555e-01
9.99342246e-01
9.99328081e-01
9.99314341e-01
9.99301410e-01
9.99290316e-01
9.99280088e-01
9.99269514e-01
9.99261093e-01
9.99255606e-01
9.99248784e-01
9.99241224e-01
9.99240814e-01
9.99242164e-01
9.99234910e-01
9.99232519e-01
1.00536524e+00
1.00536412e+00
1.00536012e+00
1.00535604e+00
1.00534996e+00
1.00534219e+00
1.00533312e+00
1.00532239e+00
1.00531000e+00
1.00529608e+00
1.00528056e+00
1.00526329e+00
1.00524431e+00
1.00522354e+00
1.00520090e+00
1.00517631e+00
1.00514973e+00
1.00512106e+00
1.00509025e+00
1.00505721e+00
1.00502190e+00
1.00498423e+00
1.00494417e+00
1.00490168e+00
1.00485672e+00
1.00480927e+00
1.00475933e+00
1.00470690e+00
1.00465202e+00
1.00459471e+00
1.00453504e+00
1.00447308e+00
1.00440891e+00
1.00434264e+00
1.00427438e+00
1.00420426e+00
1.00413240e+00
1.00405897e+00
1.00398409e+00
1.00390794e+00
1.00383066e+00
1.00375240e+00
1.00367332e+00
1.00359356e+00
1.00351324e+00
1.00343251e+00
1.00335147e+00
1.00327022e+00
1.00318885e+00
1.00310744e+00
1.00302603e+00
1.00294467e+00
1.00286340e+00
1.00278222e+00
1.00270113e+00
1.00262013e+00
1.00253919e+00
1.00245829e+00
1.00237740e+00
1.00229647e+00
1.00221549e+00
1.00213440e+00
1.00205319e+00
1.00197184e+00
1.00189033e+00
1.00180868e+00
1.00172690e+00
1.00164503e+00
1.00156312e+00
1.00148123e+00
1.00139946e+00
1.00131790e+00
1.00123668e+00
1.00115593e+00
1.00107579e+00
1.00099643e+00
1.00091800e+00
1.00084068e+00
1.00076463e+00
1.00069002e+00
1.00061701e+00
1.00054576e+00
1.00047641e+00
1.00040909e+00
1.00034392e+00
1.00028099e+00
1.00022038e+00
1.00016216e+00
1.00010635e+00
1.00005299e+00
1.00000207e+00
9.99953562e-01
9.99907441e-01
9.99863650e-01
9.99822121e-01
9.99782774e-01
9.99745519e-01
9.99710258e-01
9.99676888e-01
9.99645299e-01
9.99615385e-01
9.99587041e-01
9.99560160e-01
9.99534643e-01
9.99510400e-01
9.99487351e-01
9.99465411e-01
9.99444521e-01
9.99424634e-01
9.99405702e-01
9.99387681e-01
9.99370576e-01
9.99354369e-01
9.99339047e-01
9.99324625e-01
9.99311160e-01
9.99298611e-01
9.99287048e-01
9.99276541e-01
9.99267084e-01
9.99258601e-01
9.99251464e-01
9.99245540e-01
9.99240539e-01
9.99236872e-01
9.99235291e-01
9.99232594e-01
9.99232979e-01
1.00536742e+00
1.00536621e+00
1.00536483e+00
1.00535868e+00
1.00535124e+00
1.00534496e+00
1.00533602e+00
1.00532419e+00
1.00531185e+00
1.00529840e+00
1.00528251e+00
1.00526485e+00
1.00524594e+00
1.00522511e+00
1.00520213e+00
1.00517735e+00
1.00515069e+00
1.00512181e+00
1.00509074e+00
1.00505753e+00
1.00502205e+00
1.00498417e+00
1.00494392e+00
1.00490127e+00
1.00485615e+00
1.00480854e+00
1.00475847e+00
1.00470593e+00
1.00465094e+00
1.00459354e+00
1.00453381e+00
1.00447180e+00
1.00440760e+00
1.00434131e+00
1.00427306e+00
1.00420295e+00
1.00413113e+00
1.00405774e+00
1.00398293e+00
1.00390685e+00
1.00382965e+00
1.00375149e+00
1.00367250e+00
1.00359284e+00
1.00351263e+00
1.00343201e+00
1.00335107e+00
1.00326993e+00
1.00318867e+00
1.00310736e+00
1.00302605e+00
1.00294479e+00
1.00286361e+00
1.00278251e+00
1.00270150e+00
1.00262057e+00
1.00253971e+00
1.00245887e+00
1.00237803e+00
1.00229715e+00
1.00221621e+00
1.00213516e+00
1.00205399e+00
1.00197266e+00
1.00189119e+00
1.00180956e+00
1.00172780e+00
1.00164594e+00
1.00156404e+00
1.00148216e+00
1.00140038e+00
1.00131882e+00
1.00123759e+00
1.00115683e+00
1.00107667e+00
1.00099728e+00
1.00091881e+00
1.00084144e+00
1.00076533e+00
1.00069065e+00
1.00061756e+00
1.00054621e+00
1.00047675e+00
1.00040931e+00
1.00034400e+00
1.00028093e+00
1.00022016e+00
1.00016176e+00
1.00010577e+00
1.00005222e+00
1.00000109e+00
9.99952383e-01
9.99906049e-01
9.99862042e-01
9.99820299e-01
9.99780739e-01
9.99743269e-01
9.99707803e-01
9.99674238e-01
9.99642456e-01
9.99612357e-01
9.99583855e-01
9.99556826e-01
9.99531154e-01
9.99506788e-01
9.99483660e-01
9.99461618e-01
9.99440618e-01
9.99420716e-01
9.99401790e-01
9.99383659e-01
9.99366513e-01
9.99350475e-01
9.99335143e-01
9.99320490e-01
9.99307227e-01
9.99295075e-01
9.99283095e-01
9.99272251e-01
9.99263772e-01
9.99255533e-01
9.99246721e-01
9.99241185e-01
9.99238724e-01
9.99233065e-01
9.99228239e-01
9.99230130e-01
9.99231017e-01
1.00537278e+00
1.00537013e+00
1.00536649e+00
1.00536166e+00
1.00535560e+00
1.00534748e+00
1.00533775e+00
1.00532710e+00
1.00531471e+00
1.00530031e+00
1.00528446e+00
1.00526710e+00
1.00524777e+00
1.00522656e+00
1.00520360e+00
1.00517868e+00
1.00515165e+00
1.00512256e+00
1.00509136e+00
1.00505790e+00
1.00502214e+00
1.00498409e+00
1.00494364e+00
1.00490077e+00
1.00485545e+00
1.00480768e+00
1.00475744e+00
1.00470475e+00
1.00464964e+00
1.00459214e+00
1.00453231e+00
1.00447023e+00
1.00440598e+00
1.00433967e+00
1.00427140e+00
1.00420130e+00
1.00412951e+00
1.00405616e+00
1.00398140e+00
1.00390538e+00
1.00382826e+00
1.00375019e+00
1.00367130e+00
1.00359174e+00
1.00351164e+00
1.00343112e+00
1.00335030e+00
1.00326928e+00
1.00318813e+00
1.00310693e+00
1.00302573e+00
1.00294458e+00
1.00286350e+00
1.00278250e+00
1.00270158e+00
1.00262074e+00
1.00253996e+00
1.00245919e+00
1.00237842e+00
1.00229761e+00
1.00221673e+00
1.00213574e+00
1.00205461e+00
1.00197334e+00
1.00189190e+00
1.00181031e+00
1.00172858e+00
1.00164675e+00
1.00156487e+00
1.00148301e+00
1.00140126e+00
1.00131971e+00
1.00123848e+00
1.00115771e+00
1.00107754e+00
1.00099812e+00
1.00091963e+00
1.00084221e+00
1.00076604e+00
1.00069129e+00
1.00061812e+00
1.00054667e+00
1.00047710e+00
1.00040953e+00
1.00034408e+00
1.00028084e+00
1.00021990e+00
1.00016132e+00
1.00010513e+00
1.00005136e+00
1.00000001e+00
9.99951071e-01
9.99904502e-01
9.99860255e-01
9.99818267e-01
9.99778464e-01
9.99740760e-01
9.99705056e-01
9.99671256e-01
9.99639263e-01
9.99608964e-01
9.99580251e-01
9.99553037e-01
9.99527227e-01
9.99502709e-01
9.99479408e-01
9.99457284e-01
9.99436244e-01
9.99416193e-01
9.99397156e-01
9.99379132e-01
9.99361973e-01
9.99345683e-01
9.99330451e-01
9.99316164e-01
9.99302588e-01
9.99290062e-01
9.99278846e-01
9.99268355e-01
9.99258544e-01
9.99250437e-01
9.99243731e-01
9.99237156e-01
9.99231831e-01
9.99228694e-01
9.99226353e-01
9.99224828e-01
9.99223763e-01
1.00537704e+00
1.00537451e+00
1.00536959e+00
1.00536512e+00
1.00535917e+00
1.00535025e+00
1.00534061e+00
1.00533017e+00
1.00531731e+00
1.00530263e+00
1.00528688e+00
1.00526935e+00
1.00524966e+00
1.00522829e+00
1.00520520e+00
1.00518000e+00
1.00515269e+00
1.00512340e+00
1.00509196e+00
1.00505823e+00
1.00502222e+00
1.00498394e+00
1.00494325e+00
1.00490014e+00
1.00485461e+00
1.00480664e+00
1.00475621e+00
1.00470334e+00
1.00464808e+00
1.00459046e+00
1.00453052e+00
1.00446835e+00
1.00440404e+00
1.00433767e+00
1.00426938e+00
1.00419928e+00
1.00412750e+00
1.00405418e+00
1.00397947e+00
1.00390352e+00
1.00382647e+00
1.00374848e+00
1.00366969e+00
1.00359024e+00
1.00351025e+00
1.00342985e+00
1.00334915e+00
1.00326825e+00
1.00318722e+00
1.00310614e+00
1.00302506e+00
1.00294403e+00
1.00286306e+00
1.00278217e+00
1.00270136e+00
1.00262062e+00
1.00253993e+00
1.00245925e+00
1.00237857e+00
1.00229784e+00
1.00221702e+00
1.00213610e+00
1.00205504e+00
1.00197382e+00
1.00189244e+00
1.00181090e+00
1.00172922e+00
1.00164743e+00
1.00156559e+00
1.00148376e+00
1.00140204e+00
1.00132051e+00
1.00123930e+00
1.00115853e+00
1.00107836e+00
1.00099893e+00
1.00092041e+00
1.00084295e+00
1.00076674e+00
1.00069192e+00
1.00061866e+00
1.00054712e+00
1.00047743e+00
1.00040973e+00
1.00034412e+00
1.00028071e+00
1.00021959e+00
1.00016080e+00
1.00010439e+00
1.00005039e+00
9.99998802e-01
9.99949606e-01
9.99902776e-01
9.99858264e-01
9.99816006e-01
9.99775931e-01
9.99737960e-01
9.99701994e-01
9.99667935e-01
9.99635693e-01
9.99605163e-01
9.99576227e-01
9.99548797e-01
9.99522803e-01
9.99498123e-01
9.99474654e-01
9.99452386e-01
9.99431259e-01
9.99411117e-01
9.99391959e-01
9.99373897e-01
9.99356768e-01
9.99340391e-01
9.99325069e-01
9.99310933e-01
9.99297433e-01
9.99284660e-01
9.99273493e-01
9.99263441e-01
9.99253426e-01
9.99244833e-01
9.99238707e-01
9.99232494e-01
9.99226117e-01
9.99223398e-01
9.99221938e-01
9.99218609e-01
9.99218033e-01
1.00538023e+00
1.00537807e+00
1.00537450e+00
1.00536887e+00
1.00536172e+00
1.00535388e+00
1.00534444e+00
1.00533276e+00
1.00531983e+00
1.00530569e+00
1.00528949e+00
1.00527136e+00
1.00525176e+00
1.00523033e+00
1.00520677e+00
1.00518128e+00
1.00515387e+00
1.00512429e+00
1.00509248e+00
1.00505852e+00
1.00502229e+00
1.00498369e+00
1.00494272e+00
1.00489939e+00
1.00485362e+00
1.00480540e+00
1.00475476e+00
1.00470172e+00
1.00464628e+00
1.00458849e+00
1.00452843e+00
1.00446615e+00
1.00440175e+00
1.00433533e+00
1.00426700e+00
1.00419688e+00
1.00412510e+00
1.00405180e+00
1.00397714e+00
1.00390124e+00
1.00382427e+00
1.00374636e+00
1.00366767e+00
1.00358832e+00
1.00350845e+00
1.00342817e+00
1.00334759e+00
1.00326682e+00
1.00318592e+00
1.00310497e+00
1.00302402e+00
1.00294311e+00
1.00286226e+00
1.00278149e+00
1.00270080e+00
1.00262017e+00
1.00253958e+00
1.00245901e+00
1.00237842e+00
1.00229778e+00
1.00221705e+00
1.00213621e+00
1.00205522e+00
1.00197408e+00
1.00189277e+00
1.00181129e+00
1.00172967e+00
1.00164794e+00
1.00156615e+00
1.00148437e+00
1.00140269e+00
1.00132119e+00
1.00124001e+00
1.00115926e+00
1.00107910e+00
1.00099967e+00
1.00092113e+00
1.00084365e+00
1.00076738e+00
1.00069250e+00
1.00061917e+00
1.00054753e+00
1.00047772e+00
1.00040988e+00
1.00034412e+00
1.00028054e+00
1.00021922e+00
1.00016021e+00
1.00010358e+00
1.00004933e+00
9.99997484e-01
9.99948018e-01
9.99900907e-01
9.99856106e-01
9.99813560e-01
9.99773193e-01
9.99734924e-01
9.99698672e-01
9.99664340e-01
9.99631818e-01
9.99601018e-01
9.99571851e-01
9.99544197e-01
9.99517958e-01
9.99493085e-01
9.99469489e-01
9.99447039e-01
9.99425713e-01
9.99405532e-01
9.99386348e-01
9.99368060e-01
9.99350841e-01
9.99334687e-01
9.99319277e-01
9.99304744e-01
9.99291529e-01
9.99279247e-01
9.99267441e-01
9.99256953e-01
9.99248146e-01
9.99239716e-01
9.99231820e-01
9.99226188e-01
9.99221874e-01
9.99217449e-01
9.99214351e-01
9.99213562e-01
9.99213911e-01
1.00538488e+00
1.00538222e+00
1.00537855e+00
1.00537268e+00
1.00536549e+00
1.00535756e+00
1.00534765e+00
1.00533588e+00
1.00532304e+00
1.00530853e+00
1.00529197e+00
1.00527380e+00
1.00525403e+00
1.00523221e+00
1.00520839e+00
1.00518272e+00
1.00515500e+00
1.00512508e+00
1.00509301e+00
1.00505877e+00
1.00502222e+00
1.00498332e+00
1.00494208e+00
1.00489847e+00
1.00485242e+00
1.00480396e+00
1.00475309e+00
1.00469982e+00
1.00464418e+00
1.00458623e+00
1.00452602e+00
1.00446362e+00
1.00439912e+00
1.00433262e+00
1.00426423e+00
1.00419408e+00
1.00412230e+00
1.00404902e+00
1.00397438e+00
1.00389854e+00
1.00382164e+00
1.00374381e+00
1.00366521e+00
1.00358597e+00
1.00350621e+00
1.00342606e+00
1.00334561e+00
1.00326496e+00
1.00318420e+00
1.00310338e+00
1.00302257e+00
1.00294179e+00
1.00286107e+00
1.00278043e+00
1.00269986e+00
1.00261935e+00
1.00253888e+00
1.00245841e+00
1.00237793e+00
1.00229739e+00
1.00221676e+00
1.00213602e+00
1.00205512e+00
1.00197406e+00
1.00189283e+00
1.00181143e+00
1.00172989e+00
1.00164823e+00
1.00156651e+00
1.00148479e+00
1.00140315e+00
1.00132171e+00
1.00124056e+00
1.00115985e+00
1.00107970e+00
1.00100028e+00
1.00092174e+00
1.00084423e+00
1.00076793e+00
1.00069300e+00
1.00061959e+00
1.00054785e+00
1.00047793e+00
1.00040995e+00
1.00034403e+00
1.00028027e+00
1.00021875e+00
1.00015952e+00
1.00010265e+00
1.00004814e+00
9.99996018e-01
9.99946265e-01
9.99898856e-01
9.99853748e-01
9.99810889e-01
9.99770209e-01
9.99731626e-01
9.99695060e-01
9.99660423e-01
9.99627611e-01
9.99596524e-01
9.99567079e-01
9.99539181e-01
9.99512714e-01
9.99487605e-01
9.99463810e-01
9.99441218e-01
9.99419730e-01
9.99399373e-01
9.99380118e-01
9.99361798e-01
9.99344424e-01
9.99328174e-01
9.99312887e-01
9.99298336e-01
9.99284880e-01
9.99272698e-01
9.99261201e-01
9.99250468e-01
9.99241387e-01
9.99233407e-01
9.99225659e-01
9.99219536e-01
9.99215355e-01
9.99211121e-01
9.99207907e-01
9.99207258e-01
9.99207126e-01
1.00539001e+00
1.00538684e+00
1.00538214e+00
1.00537673e+00
1.00536992e+00
1.00536102e+00
1.00535078e+00
1.00533954e+00
1.00532634e+00
1.00531115e+00
1.00529466e+00
1.00527650e+00
1.00525619e+00
1.00523403e+00
1.00521015e+00
1.00518417e+00
1.00515601e+00
1.00512583e+00
1.00509352e+00
1.00505890e+00
1.00502200e+00
1.00498283e+00
1.00494129e+00
1.00489734e+00
1.00485101e+00
1.00480229e+00
1.00475116e+00
1.00469765e+00
1.00464180e+00
1.00458366e+00
1.00452327e+00
1.00446073e+00
1.00439612e+00
1.00432953e+00
1.00426107e+00
1.00419088e+00
1.00411908e+00
1.00404580e+00
1.00397119e+00
1.00389540e+00
1.00381855e+00
1.00374081e+00
1.00366230e+00
1.00358316e+00
1.00350352e+00
1.00342348e+00
1.00334316e+00
1.00326265e+00
1.00318202e+00
1.00310135e+00
1.00302067e+00
1.00294003e+00
1.00285945e+00
1.00277895e+00
1.00269851e+00
1.00261812e+00
1.00253778e+00
1.00245744e+00
1.00237707e+00
1.00229664e+00
1.00221613e+00
1.00213548e+00
1.00205469e+00
1.00197373e+00
1.00189259e+00
1.00181129e+00
1.00172983e+00
1.00164826e+00
1.00156662e+00
1.00148497e+00
1.00140341e+00
1.00132202e+00
1.00124093e+00
1.00116026e+00
1.00108015e+00
1.00100075e+00
1.00092222e+00
1.00084470e+00
1.00076838e+00
1.00069340e+00
1.00061992e+00
1.00054810e+00
1.00047807e+00
1.00040995e+00
1.00034388e+00
1.00027993e+00
1.00021821e+00
1.00015876e+00
1.00010163e+00
1.00004686e+00
9.99994457e-01
9.99944404e-01
9.99896686e-01
9.99851259e-01
9.99808069e-01
9.99767057e-01
9.99728148e-01
9.99691252e-01
9.99656282e-01
9.99623160e-01
9.99591781e-01
9.99562032e-01
9.99533848e-01
9.99507152e-01
9.99481815e-01
9.99457757e-01
9.99434982e-01
9.99413394e-01
9.99392838e-01
9.99373370e-01
9.99355065e-01
9.99337689e-01
9.99321149e-01
9.99305792e-01
9.99291563e-01
9.99277961e-01
9.99265304e-01
9.99254204e-01
9.99243962e-01
9.99234102e-01
9.99225846e-01
9.99219298e-01
9.99212938e-01
9.99207404e-01
9.99204113e-01
9.99201956e-01
9.99199882e-01
9.99199205e-01
1.00539446e+00
1.00539140e+00
1.00538666e+00
1.00538087e+00
1.00537367e+00
1.00536477e+00
1.00535460e+00
1.00534290e+00
1.00532933e+00
1.00531422e+00
1.00529753e+00
1.00527888e+00
1.00525835e+00
1.00523608e+00
1.00521181e+00
1.00518544e+00
1.00515704e+00
1.00512656e+00
1.00509385e+00
1.00505888e+00
1.00502168e+00
1.00498216e+00
1.00494027e+00
1.00489601e+00
1.00484938e+00
1.00480035e+00
1.00474894e+00
1.00469518e+00
1.00463910e+00
1.00458074e+00
1.00452017e+00
1.00445747e+00
1.00439272e+00
1.00432602e+00
1.00425749e+00
1.00418724e+00
1.00411541e+00
1.00404213e+00
1.00396754e+00
1.00389178e+00
1.00381499e+00
1.00373732e+00
1.00365890e+00
1.00357987e+00
1.00350034e+00
1.00342042e+00
1.00334023e+00
1.00325985e+00
1.00317937e+00
1.00309883e+00
1.00301830e+00
1.00293780e+00
1.00285737e+00
1.00277700e+00
1.00269670e+00
1.00261646e+00
1.00253624e+00
1.00245603e+00
1.00237579e+00
1.00229549e+00
1.00221509e+00
1.00213457e+00
1.00205389e+00
1.00197304e+00
1.00189201e+00
1.00181081e+00
1.00172946e+00
1.00164798e+00
1.00156644e+00
1.00148488e+00
1.00140340e+00
1.00132210e+00
1.00124108e+00
1.00116047e+00
1.00108041e+00
1.00100104e+00
1.00092252e+00
1.00084502e+00
1.00076867e+00
1.00069366e+00
1.00062013e+00
1.00054822e+00
1.00047809e+00
1.00040984e+00
1.00034361e+00
1.00027949e+00
1.00021756e+00
1.00015788e+00
1.00010050e+00
1.00004546e+00
9.99992765e-01
9.99942405e-01
9.99894363e-01
9.99848603e-01
9.99805074e-01
9.99763712e-01
9.99724452e-01
9.99687215e-01
9.99651906e-01
9.99618441e-01
9.99586738e-01
9.99556696e-01
9.99528212e-01
9.99501222e-01
9.99475652e-01
9.99451383e-01
9.99428355e-01
9.99406566e-01
9.99385921e-01
9.99366302e-01
9.99347770e-01
9.99330362e-01
9.99313883e-01
9.99298313e-01
9.99283908e-01
9.99270556e-01
9.99257958e-01
9.99246445e-01
9.99236268e-01
9.99226897e-01
9.99218385e-01
9.99211397e-01
9.99205451e-01
9.99200235e-01
9.99196574e-01
9.99194087e-01
9.99192234e-01
9.99192021e-01
1.00539890e+00
1.00539571e+00
1.00539128e+00
1.00538503e+00
1.00537738e+00
1.00536873e+00
1.00535838e+00
1.00534609e+00
1.00533248e+00
1.00531739e+00
1.00530021e+00
1.00528120e+00
1.00526061e+00
1.00523802e+00
1.00521329e+00
1.00518664e+00
1.00515800e+00
1.00512710e+00
1.00509399e+00
1.00505872e+00
1.00502117e+00
1.00498125e+00
1.00493901e+00
1.00489444e+00
1.00484746e+00
1.00479811e+00
1.00474641e+00
1.00469238e+00
1.00463604e+00
1.00457745e+00
1.00451668e+00
1.00445381e+00
1.00438891e+00
1.00432209e+00
1.00425347e+00
1.00418315e+00
1.00411128e+00
1.00403799e+00
1.00396340e+00
1.00388767e+00
1.00381094e+00
1.00373333e+00
1.00365500e+00
1.00357606e+00
1.00349664e+00
1.00341685e+00
1.00333679e+00
1.00325654e+00
1.00317620e+00
1.00309580e+00
1.00301542e+00
1.00293507e+00
1.00285478e+00
1.00277456e+00
1.00269441e+00
1.00261431e+00
1.00253424e+00
1.00245417e+00
1.00237406e+00
1.00229390e+00
1.00221363e+00
1.00213323e+00
1.00205268e+00
1.00197196e+00
1.00189105e+00
1.00180998e+00
1.00172874e+00
1.00164738e+00
1.00156594e+00
1.00148450e+00
1.00140312e+00
1.00132191e+00
1.00124098e+00
1.00116044e+00
1.00108045e+00
1.00100114e+00
1.00092266e+00
1.00084517e+00
1.00076883e+00
1.00069379e+00
1.00062022e+00
1.00054824e+00
1.00047801e+00
1.00040965e+00
1.00034328e+00
1.00027898e+00
1.00021685e+00
1.00015695e+00
1.00009932e+00
1.00004401e+00
9.99991015e-01
9.99940345e-01
9.99891974e-01
9.99845871e-01
9.99801994e-01
9.99760279e-01
9.99720655e-01
9.99683057e-01
9.99647402e-01
9.99613589e-01
9.99581536e-01
9.99551176e-01
9.99522401e-01
9.99495101e-01
9.99469241e-01
9.99444762e-01
9.99421519e-01
9.99399461e-01
9.99378647e-01
9.99358965e-01
9.99340239e-01
9.99322604e-01
9.99306175e-01
9.99290633e-01
9.99275922e-01
9.99262503e-01
9.99250236e-01
9.99238562e-01
9.99227970e-01
9.99218994e-01
9.99210777e-01
9.99203135e-01
9.99197222e-01
9.99192729e-01
9.99188596e-01
9.99185599e-01
9.99184561e-01
9.99184435e-01
1.00540378e+00
1.00540023e+00
1.00539536e+00
1.00538912e+00
1.00538151e+00
1.00537245e+00
1.00536175e+00
1.00534954e+00
1.00533577e+00
1.00532015e+00
1.00530276e+00
1.00528370e+00
1.00526270e+00
1.00523967e+00
1.00521473e+00
1.00518780e+00
1.00515868e+00
1.00512741e+00
1.00509401e+00
1.00505835e+00
1.00502037e+00
1.00498010e+00
1.00493751e+00
1.00489255e+00
1.00484522e+00
1.00479555e+00
1.00474354e+00
1.00468921e+00
1.00463260e+00
1.00457377e+00
1.00451278e+00
1.00444971e+00
1.00438465e+00
1.00431770e+00
1.00424897e+00
1.00417858e+00
1.00410666e+00
1.00403334e+00
1.00395876e+00
1.00388305e+00
1.00380636e+00
1.00372881e+00
1.00365056e+00
1.00357171e+00
1.00349240e+00
1.00341273e+00
1.00333280e+00
1.00325269e+00
1.00317248e+00
1.00309224e+00
1.00301200e+00
1.00293180e+00
1.00285167e+00
1.00277160e+00
1.00269160e+00
1.00261165e+00
1.00253173e+00
1.00245180e+00
1.00237185e+00
1.00229182e+00
1.00221170e+00
1.00213144e+00
1.00205103e+00
1.00197045e+00
1.00188968e+00
1.00180874e+00
1.00172763e+00
1.00164640e+00
1.00156510e+00
1.00148377e+00
1.00140252e+00
1.00132142e+00
1.00124059e+00
1.00116015e+00
1.00108024e+00
1.00100100e+00
1.00092257e+00
1.00084512e+00
1.00076880e+00
1.00069376e+00
1.00062015e+00
1.00054812e+00
1.00047781e+00
1.00040934e+00
1.00034283e+00
1.00027837e+00
1.00021604e+00
1.00015592e+00
1.00009804e+00
1.00004246e+00
9.99989171e-01
9.99938185e-01
9.99889484e-01
9.99843035e-01
9.99798797e-01
9.99756718e-01
9.99716730e-01
9.99678756e-01
9.99642728e-01
9.99608564e-01
9.99576165e-01
9.99545448e-01
9.99516351e-01
9.99488775e-01
9.99462614e-01
9.99437834e-01
9.99414390e-01
9.99392154e-01
9.99371069e-01
9.99351192e-01
9.99332445e-01
9.99314670e-01
9.99297963e-01
9.99282436e-01
9.99267861e-01
9.99254173e-01
9.99241693e-01
9.99230353e-01
9.99219818e-01
9.99210368e-01
9.99202246e-01
9.99195077e-01
9.99188893e-01
9.99184006e-01
9.99180227e-01
9.99177544e-01
9.99176045e-01
9.99175593e-01
1.00540835e+00
1.00540461e+00
1.00539939e+00
1.00539313e+00
1.00538544e+00
1.00537599e+00
1.00536513e+00
1.00535288e+00
1.00533875e+00
1.00532280e+00
1.00530531e+00
1.00528595e+00
1.00526451e+00
1.00524122e+00
1.00521602e+00
1.00518865e+00
1.00515913e+00
1.00512755e+00
1.00509376e+00
1.00505766e+00
1.00501930e+00
1.00497867e+00
1.00493567e+00
1.00489032e+00
1.00484265e+00
1.00479264e+00
1.00474028e+00
1.00468564e+00
1.00462875e+00
1.00456966e+00
1.00450844e+00
1.00444517e+00
1.00437993e+00
1.00431284e+00
1.00424399e+00
1.00417351e+00
1.00410153e+00
1.00402817e+00
1.00395358e+00
1.00387788e+00
1.00380123e+00
1.00372374e+00
1.00364556e+00
1.00356681e+00
1.00348760e+00
1.00340804e+00
1.00332823e+00
1.00324826e+00
1.00316820e+00
1.00308810e+00
1.00300802e+00
1.00292797e+00
1.00284799e+00
1.00276808e+00
1.00268824e+00
1.00260845e+00
1.00252868e+00
1.00244891e+00
1.00236911e+00
1.00228924e+00
1.00220927e+00
1.00212917e+00
1.00204891e+00
1.00196848e+00
1.00188786e+00
1.00180707e+00
1.00172612e+00
1.00164504e+00
1.00156388e+00
1.00148270e+00
1.00140158e+00
1.00132061e+00
1.00123991e+00
1.00115959e+00
1.00107978e+00
1.00100063e+00
1.00092228e+00
1.00084489e+00
1.00076860e+00
1.00069357e+00
1.00061995e+00
1.00054789e+00
1.00047751e+00
1.00040895e+00
1.00034231e+00
1.00027770e+00
1.00021519e+00
1.00015486e+00
1.00009675e+00
1.00004090e+00
9.99987321e-01
9.99936023e-01
9.99886992e-01
9.99840200e-01
9.99795602e-01
9.99753151e-01
9.99712792e-01
9.99674448e-01
9.99638039e-01
9.99603502e-01
9.99570754e-01
9.99539691e-01
9.99510239e-01
9.99482351e-01
9.99455921e-01
9.99430841e-01
9.99407109e-01
9.99384687e-01
9.99363419e-01
9.99343276e-01
9.99324365e-01
9.99306564e-01
9.99289689e-01
9.99273929e-01
9.99259402e-01
9.99245761e-01
9.99233011e-01
9.99221610e-01
9.99211323e-01
9.99201724e-01
9.99193356e-01
9.99186464e-01
9.99180332e-01
9.99175098e-01
9.99171481e-01
9.99169031e-01
9.99167211e-01
9.99166705e-01
1.00541249e+00
1.00540871e+00
1.00540352e+00
1.00539691e+00
1.00538890e+00
1.00537948e+00
1.00536851e+00
1.00535581e+00
1.00534144e+00
1.00532546e+00
1.00530761e+00
1.00528780e+00
1.00526617e+00
1.00524262e+00
1.00521695e+00
1.00518919e+00
1.00515939e+00
1.00512740e+00
1.00509313e+00
1.00505666e+00
1.00501793e+00
1.00497686e+00
1.00493345e+00
1.00488774e+00
1.00483969e+00
1.00478929e+00
1.00473660e+00
1.00468165e+00
1.00462446e+00
1.00456509e+00
1.00450362e+00
1.00444014e+00
1.00437471e+00
1.00430746e+00
1.00423848e+00
1.00416790e+00
1.00409585e+00
1.00402245e+00
1.00394784e+00
1.00387215e+00
1.00379552e+00
1.00371809e+00
1.00363998e+00
1.00356131e+00
1.00348220e+00
1.00340275e+00
1.00332307e+00
1.00324323e+00
1.00316331e+00
1.00308336e+00
1.00300343e+00
1.00292354e+00
1.00284372e+00
1.00276398e+00
1.00268429e+00
1.00260466e+00
1.00252506e+00
1.00244546e+00
1.00236582e+00
1.00228612e+00
1.00220631e+00
1.00212638e+00
1.00204628e+00
1.00196602e+00
1.00188557e+00
1.00180494e+00
1.00172416e+00
1.00164324e+00
1.00156225e+00
1.00148123e+00
1.00140027e+00
1.00131946e+00
1.00123890e+00
1.00115872e+00
1.00107904e+00
1.00100000e+00
1.00092174e+00
1.00084442e+00
1.00076819e+00
1.00069320e+00
1.00061959e+00
1.00054750e+00
1.00047708e+00
1.00040844e+00
1.00034170e+00
1.00027694e+00
1.00021426e+00
1.00015373e+00
1.00009539e+00
1.00003928e+00
9.99985425e-01
9.99933822e-01
9.99884462e-01
9.99837323e-01
9.99792370e-01
9.99749549e-01
9.99708806e-01
9.99670084e-01
9.99633304e-01
9.99598381e-01
9.99565255e-01
9.99533851e-01
9.99504062e-01
9.99475816e-01
9.99449078e-01
9.99423754e-01
9.99399732e-01
9.99377011e-01
9.99355581e-01
9.99335296e-01
9.99316104e-01
9.99298123e-01
9.99281280e-01
9.99265381e-01
9.99250562e-01
9.99236977e-01
9.99224369e-01
9.99212670e-01
9.99202217e-01
9.99192945e-01
9.99184556e-01
9.99177262e-01
9.99171268e-01
9.99166378e-01
9.99162497e-01
9.99159742e-01
9.99158230e-01
9.99157923e-01
1.00541648e+00
1.00541249e+00
1.00540722e+00
1.00540043e+00
1.00539223e+00
1.00538268e+00
1.00537146e+00
1.00535851e+00
1.00534399e+00
1.00532773e+00
1.00530951e+00
1.00528946e+00
1.00526757e+00
1.00524360e+00
1.00521754e+00
1.00518948e+00
1.00515928e+00
1.00512683e+00
1.00509218e+00
1.00505532e+00
1.00501614e+00
1.00497464e+00
1.00493085e+00
1.00488473e+00
1.00483627e+00
1.00478551e+00
1.00473247e+00
1.00467717e+00
1.00461967e+00
1.00456002e+00
1.00449830e+00
1.00443458e+00
1.00436896e+00
1.00430154e+00
1.00423242e+00
1.00416173e+00
1.00408960e+00
1.00401615e+00
1.00394151e+00
1.00386582e+00
1.00378921e+00
1.00371182e+00
1.00363377e+00
1.00355518e+00
1.00347617e+00
1.00339684e+00
1.00331728e+00
1.00323757e+00
1.00315779e+00
1.00307799e+00
1.00299821e+00
1.00291848e+00
1.00283883e+00
1.00275924e+00
1.00267973e+00
1.00260027e+00
1.00252084e+00
1.00244141e+00
1.00236194e+00
1.00228242e+00
1.00220279e+00
1.00212303e+00
1.00204312e+00
1.00196303e+00
1.00188277e+00