# vtk DataFile Version 2.0
LBM Flow Field - Timestep 3920
ASCII
DATASET STRUCTURED_POINTS
DIMENSIONS 128 128 1
ORIGIN 0.0 0.0 0.0
SPACING 1.0 1.0 1.0
POINT_DATA 16384
SCALARS density double 1
LOOKUP_TABLE default
1.00549555e+00
1.00549718e+00
1.00549895e+00
1.00549454e+00
1.00548928e+00
1.00548522e+00
1.00547934e+00
1.00547160e+00
1.00546370e+00
1.00545523e+00
1.00544489e+00
1.00543335e+00
1.00542096e+00
1.00540709e+00
1.00539143e+00
1.00537443e+00
1.00535592e+00
1.00533557e+00
1.00531341e+00
1.00528961e+00
1.00526396e+00
1.00523635e+00
1.00520687e+00
1.00517553e+00
1.00514220e+00
1.00510686e+00
1.00506956e+00
1.00503023e+00
1.00498878e+00
1.00494521e+00
1.00489945e+00
1.00485142e+00
1.00480103e+00
1.00474819e+00
1.00469279e+00
1.00463471e+00
1.00457380e+00
1.00450995e+00
1.00444300e+00
1.00437281e+00
1.00429922e+00
1.00422211e+00
1.00414134e+00
1.00405678e+00
1.00396835e+00
1.00387595e+00
1.00377953e+00
1.00367908e+00
1.00357459e+00
1.00346612e+00
1.00335375e+00
1.00323761e+00
1.00311787e+00
1.00299475e+00
1.00286850e+00
1.00273941e+00
1.00260782e+00
1.00247409e+00
1.00233863e+00
1.00220184e+00
1.00206417e+00
1.00192607e+00
1.00178799e+00
1.00165038e+00
1.00151369e+00
1.00137834e+00
1.00124475e+00
1.00111329e+00
1.00098432e+00
1.00085814e+00
1.00073505e+00
1.00061527e+00
1.00049899e+00
1.00038639e+00
1.00027755e+00
1.00017256e+00
1.00007144e+00
9.99974185e-01
9.99880756e-01
9.99791081e-01
9.99705064e-01
9.99622584e-01
9.99543501e-01
9.99467665e-01
9.99394912e-01
9.99325071e-01
9.99257975e-01
9.99193452e-01
9.99131338e-01
9.99071474e-01
9.99013715e-01
9.98957926e-01
9.98903980e-01
9.98851773e-01
9.98801218e-01
9.98752233e-01
9.98704750e-01
9.98658738e-01
9.98614167e-01
9.98570996e-01
9.98529225e-01
9.98488886e-01
9.98449965e-01
9.98412449e-01
9.98376410e-01
9.98341892e-01
9.98308840e-01
9.98277289e-01
9.98247372e-01
9.98219046e-01
9.98192192e-01
9.98166980e-01
9.98143518e-01
9.98121545e-01
9.98101004e-01
9.98082306e-01
9.98065271e-01
9.98049390e-01
9.98035047e-01
9.98022812e-01
9.98011696e-01
9.98001326e-01
9.97993210e-01
9.97987296e-01
9.97981172e-01
9.97976418e-01
9.97977190e-01
9.97978229e-01
1.00549754e+00
1.00549670e+00
1.00549695e+00
1.00549362e+00
1.00548894e+00
1.00548446e+00
1.00547879e+00
1.00547171e+00
1.00546374e+00
1.00545520e+00
1.00544518e+00
1.00543388e+00
1.00542141e+00
1.00540766e+00
1.00539222e+00
1.00537529e+00
1.00535680e+00
1.00533660e+00
1.00531457e+00
1.00529081e+00
1.00526521e+00
1.00523771e+00
1.00520829e+00
1.00517696e+00
1.00514365e+00
1.00510835e+00
1.00507102e+00
1.00503165e+00
1.00499016e+00
1.00494652e+00
1.00490067e+00
1.00485253e+00
1.00480201e+00
1.00474903e+00
1.00469346e+00
1.00463520e+00
1.00457411e+00
1.00451007e+00
1.00444292e+00
1.00437253e+00
1.00429875e+00
1.00422145e+00
1.00414050e+00
1.00405579e+00
1.00396721e+00
1.00387470e+00
1.00377819e+00
1.00367767e+00
1.00357314e+00
1.00346467e+00
1.00335233e+00
1.00323625e+00
1.00311660e+00
1.00299359e+00
1.00286748e+00
1.00273856e+00
1.00260716e+00
1.00247364e+00
1.00233839e+00
1.00220182e+00
1.00206438e+00
1.00192650e+00
1.00178864e+00
1.00165123e+00
1.00151472e+00
1.00137954e+00
1.00124609e+00
1.00111475e+00
1.00098587e+00
1.00085976e+00
1.00073670e+00
1.00061692e+00
1.00050063e+00
1.00038797e+00
1.00027906e+00
1.00017397e+00
1.00007273e+00
9.99975339e-01
9.99881760e-01
9.99791924e-01
9.99705737e-01
9.99623084e-01
9.99543828e-01
9.99467820e-01
9.99394900e-01
9.99324903e-01
9.99257660e-01
9.99193004e-01
9.99130772e-01
9.99070807e-01
9.99012965e-01
9.98957108e-01
9.98903117e-01
9.98850884e-01
9.98800318e-01
9.98751339e-01
9.98703886e-01
9.98657917e-01
9.98613395e-01
9.98570294e-01
9.98528614e-01
9.98488360e-01
9.98449525e-01
9.98412127e-01
9.98376209e-01
9.98341783e-01
9.98308841e-01
9.98277443e-01
9.98247633e-01
9.98219380e-01
9.98192672e-01
9.98167623e-01
9.98144202e-01
9.98122305e-01
9.98101976e-01
9.98083387e-01
9.98066290e-01
9.98050589e-01
9.98036518e-01
9.98024193e-01
9.98012972e-01
9.98003073e-01
9.97995118e-01
9.97988728e-01
9.97982891e-01
9.97978847e-01
9.97978199e-01
9.97977112e-01
1.00550011e+00
1.00549768e+00
1.00549323e+00
1.00549174e+00
1.00548919e+00
1.00548326e+00
1.00547718e+00
1.00547144e+00
1.00546385e+00
1.00545467e+00
1.00544509e+00
1.00543446e+00
1.00542196e+00
1.00540816e+00
1.00539322e+00
1.00537656e+00
1.00535807e+00
1.00533807e+00
1.00531637e+00
1.00529272e+00
1.00526720e+00
1.00523990e+00
1.00521063e+00
1.00517935e+00
1.00514612e+00
1.00511090e+00
1.00507360e+00
1.00503421e+00
1.00499272e+00
1.00494905e+00
1.00490311e+00
1.00485488e+00
1.00480426e+00
1.00475113e+00
1.00469541e+00
1.00463699e+00
1.00457572e+00
1.00451149e+00
1.00444414e+00
1.00437356e+00
1.00429958e+00
1.00422210e+00
1.00414097e+00
1.00405609e+00
1.00396736e+00
1.00387471e+00
1.00377809e+00
1.00367748e+00
1.00357290e+00
1.00346439e+00
1.00335203e+00
1.00323597e+00
1.00311636e+00
1.00299342e+00
1.00286740e+00
1.00273858e+00
1.00260730e+00
1.00247391e+00
1.00233880e+00
1.00220238e+00
1.00206508e+00
1.00192734e+00
1.00178961e+00
1.00165232e+00
1.00151592e+00
1.00138083e+00
1.00124745e+00
1.00111616e+00
1.00098730e+00
1.00086120e+00
1.00073811e+00
1.00061829e+00
1.00050193e+00
1.00038919e+00
1.00028017e+00
1.00017495e+00
1.00007357e+00
9.99976029e-01
9.99882287e-01
9.99792281e-01
9.99705922e-01
9.99623094e-01
9.99543667e-01
9.99467493e-01
9.99394416e-01
9.99324272e-01
9.99256895e-01
9.99192118e-01
9.99129782e-01
9.99069733e-01
9.99011822e-01
9.98955916e-01
9.98901899e-01
9.98849658e-01
9.98799096e-01
9.98750145e-01
9.98702746e-01
9.98656835e-01
9.98612379e-01
9.98569379e-01
9.98527812e-01
9.98487650e-01
9.98448933e-01
9.98411699e-01
9.98375910e-01
9.98341579e-01
9.98308815e-01
9.98277615e-01
9.98247885e-01
9.98219735e-01
9.98193299e-01
9.98168399e-01
9.98144949e-01
9.98123262e-01
9.98103302e-01
9.98084629e-01
9.98067449e-01
9.98052270e-01
9.98038477e-01
9.98025558e-01
9.98014572e-01
9.98005742e-01
9.97997273e-01
9.97989617e-01
9.97985452e-01
9.97982795e-01
9.97978128e-01
9.97975659e-01
1.00549790e+00
1.00549630e+00
1.00549317e+00
1.00549027e+00
1.00548663e+00
1.00548199e+00
1.00547657e+00
1.00547018e+00
1.00546287e+00
1.00545449e+00
1.00544502e+00
1.00543432e+00
1.00542235e+00
1.00540895e+00
1.00539409e+00
1.00537767e+00
1.00535962e+00
1.00533983e+00
1.00531829e+00
1.00529492e+00
1.00526968e+00
1.00524251e+00
1.00521341e+00
1.00518232e+00
1.00514922e+00
1.00511408e+00
1.00507687e+00
1.00503755e+00
1.00499606e+00
1.00495237e+00
1.00490642e+00
1.00485812e+00
1.00480740e+00
1.00475417e+00
1.00469833e+00
1.00463975e+00
1.00457831e+00
1.00451390e+00
1.00444636e+00
1.00437558e+00
1.00430141e+00
1.00422373e+00
1.00414241e+00
1.00405735e+00
1.00396845e+00
1.00387565e+00
1.00377890e+00
1.00367818e+00
1.00357350e+00
1.00346492e+00
1.00335253e+00
1.00323645e+00
1.00311685e+00
1.00299393e+00
1.00286796e+00
1.00273921e+00
1.00260801e+00
1.00247472e+00
1.00233971e+00
1.00220340e+00
1.00206622e+00
1.00192859e+00
1.00179096e+00
1.00165377e+00
1.00151745e+00
1.00138243e+00
1.00124910e+00
1.00111784e+00
1.00098899e+00
1.00086286e+00
1.00073974e+00
1.00061986e+00
1.00050342e+00
1.00039056e+00
1.00028142e+00
1.00017606e+00
1.00007452e+00
9.99976803e-01
9.99882877e-01
9.99792681e-01
9.99706126e-01
9.99623103e-01
9.99543482e-01
9.99467120e-01
9.99393863e-01
9.99323550e-01
9.99256018e-01
9.99191103e-01
9.99128646e-01
9.99068493e-01
9.99010502e-01
9.98954538e-01
9.98900480e-01
9.98848221e-01
9.98797669e-01
9.98748746e-01
9.98701388e-01
9.98655545e-01
9.98611184e-01
9.98568280e-01
9.98526820e-01
9.98486805e-01
9.98448240e-01
9.98411135e-01
9.98375508e-01
9.98341384e-01
9.98308780e-01
9.98277713e-01
9.98248209e-01
9.98220288e-01
9.98193953e-01
9.98169206e-01
9.98146068e-01
9.98124531e-01
9.98104572e-01
9.98086174e-01
9.98069352e-01
9.98054056e-01
9.98040256e-01
9.98027918e-01
9.98017057e-01
9.98007608e-01
9.97999572e-01
9.97992904e-01
9.97987738e-01
9.97983806e-01
9.97980278e-01
9.97978654e-01
1.00549527e+00
1.00549357e+00
1.00549232e+00
1.00548831e+00
1.00548375e+00
1.00548031e+00
1.00547535e+00
1.00546846e+00
1.00546146e+00
1.00545390e+00
1.00544456e+00
1.00543390e+00
1.00542248e+00
1.00540957e+00
1.00539486e+00
1.00537874e+00
1.00536116e+00
1.00534168e+00
1.00532036e+00
1.00529733e+00
1.00527242e+00
1.00524547e+00
1.00521658e+00
1.00518574e+00
1.00515282e+00
1.00511780e+00
1.00508071e+00
1.00504148e+00
1.00500004e+00
1.00495636e+00
1.00491040e+00
1.00486206e+00
1.00481126e+00
1.00475792e+00
1.00470194e+00
1.00464321e+00
1.00458160e+00
1.00451699e+00
1.00444926e+00
1.00437826e+00
1.00430388e+00
1.00422599e+00
1.00414446e+00
1.00405919e+00
1.00397011e+00
1.00387713e+00
1.00378023e+00
1.00367937e+00
1.00357459e+00
1.00346593e+00
1.00335348e+00
1.00323736e+00
1.00311776e+00
1.00299487e+00
1.00286894e+00
1.00274025e+00
1.00260914e+00
1.00247594e+00
1.00234104e+00
1.00220485e+00
1.00206778e+00
1.00193026e+00
1.00179274e+00
1.00165565e+00
1.00151942e+00
1.00138446e+00
1.00125118e+00
1.00111995e+00
1.00099110e+00
1.00086496e+00
1.00074179e+00
1.00062183e+00
1.00050529e+00
1.00039231e+00
1.00028302e+00
1.00017749e+00
1.00007577e+00
9.99977852e-01
9.99883713e-01
9.99793296e-01
9.99706516e-01
9.99623265e-01
9.99543419e-01
9.99466837e-01
9.99393370e-01
9.99322859e-01
9.99255144e-01
9.99190066e-01
9.99127464e-01
9.99067189e-01
9.99009100e-01
9.98953063e-01
9.98898955e-01
9.98846672e-01
9.98796127e-01
9.98747232e-01
9.98699919e-01
9.98654154e-01
9.98609897e-01
9.98567103e-01
9.98525770e-01
9.98485920e-01
9.98447527e-01
9.98410579e-01
9.98375144e-01
9.98341251e-01
9.98308835e-01
9.98277941e-01
9.98248696e-01
9.98221025e-01
9.98194824e-01
9.98170280e-01
9.98147475e-01
9.98126105e-01
9.98106186e-01
9.98088110e-01
9.98071643e-01
9.98056258e-01
9.98042472e-01
9.98030725e-01
9.98020007e-01
9.98010010e-01
9.98002296e-01
9.97996531e-01
9.97990487e-01
9.97985581e-01
9.97983756e-01
9.97982183e-01
1.00549377e+00
1.00549124e+00
1.00548847e+00
1.00548553e+00
1.00548206e+00
1.00547754e+00
1.00547236e+00
1.00546678e+00
1.00546008e+00
1.00545217e+00
1.00544340e+00
1.00543356e+00
1.00542224e+00
1.00540953e+00
1.00539549e+00
1.00537984e+00
1.00536245e+00
1.00534339e+00
1.00532257e+00
1.00529984e+00
1.00527519e+00
1.00524862e+00
1.00522004e+00
1.00518940e+00
1.00515670e+00
1.00512191e+00
1.00508496e+00
1.00504582e+00
1.00500447e+00
1.00496084e+00
1.00491487e+00
1.00486649e+00
1.00481563e+00
1.00476220e+00
1.00470609e+00
1.00464720e+00
1.00458542e+00
1.00452062e+00
1.00445268e+00
1.00438147e+00
1.00430686e+00
1.00422874e+00
1.00414699e+00
1.00406152e+00
1.00397223e+00
1.00387908e+00
1.00378200e+00
1.00368101e+00
1.00357610e+00
1.00346735e+00
1.00335483e+00
1.00323868e+00
1.00311906e+00
1.00299619e+00
1.00287030e+00
1.00274167e+00
1.00261063e+00
1.00247753e+00
1.00234274e+00
1.00220666e+00
1.00206970e+00
1.00193230e+00
1.00179489e+00
1.00165790e+00
1.00152175e+00
1.00138687e+00
1.00125363e+00
1.00112242e+00
1.00099358e+00
1.00086740e+00
1.00074418e+00
1.00062414e+00
1.00050749e+00
1.00039438e+00
1.00028493e+00
1.00017922e+00
1.00007730e+00
9.99979163e-01
9.99884795e-01
9.99794137e-01
9.99707110e-01
9.99623612e-01
9.99543520e-01
9.99466698e-01
9.99393001e-01
9.99322274e-01
9.99254359e-01
9.99189098e-01
9.99126338e-01
9.99065930e-01
9.99007731e-01
9.98951611e-01
9.98897453e-01
9.98845146e-01
9.98794598e-01
9.98745734e-01
9.98698488e-01
9.98652803e-01
9.98608643e-01
9.98565991e-01
9.98524823e-01
9.98485124e-01
9.98446913e-01
9.98410202e-01
9.98374981e-01
9.98341268e-01
9.98309114e-01
9.98278518e-01
9.98249455e-01
9.98221982e-01
9.98196144e-01
9.98171866e-01
9.98149132e-01
9.98128051e-01
9.98108580e-01
9.98090550e-01
9.98074054e-01
9.98059226e-01
9.98045794e-01
9.98033612e-01
9.98023032e-01
9.98014014e-01
9.98006003e-01
9.97999228e-01
9.97994079e-01
9.97990071e-01
9.97986871e-01
9.97984681e-01
1.00549047e+00
1.00548799e+00
1.00548448e+00
1.00548196e+00
1.00547892e+00
1.00547416e+00
1.00546923e+00
1.00546422e+00
1.00545774e+00
1.00545006e+00
1.00544184e+00
1.00543249e+00
1.00542149e+00
1.00540923e+00
1.00539574e+00
1.00538053e+00
1.00536354e+00
1.00534495e+00
1.00532459e+00
1.00530225e+00
1.00527797e+00
1.00525179e+00
1.00522354e+00
1.00519319e+00
1.00516076e+00
1.00512620e+00
1.00508943e+00
1.00505044e+00
1.00500920e+00
1.00496563e+00
1.00491968e+00
1.00487129e+00
1.00482038e+00
1.00476686e+00
1.00471063e+00
1.00465160e+00
1.00458965e+00
1.00452465e+00
1.00445650e+00
1.00438507e+00
1.00431024e+00
1.00423189e+00
1.00414991e+00
1.00406422e+00
1.00397472e+00
1.00388137e+00
1.00378413e+00
1.00368298e+00
1.00357795e+00
1.00346910e+00
1.00335651e+00
1.00324032e+00
1.00312068e+00
1.00299782e+00
1.00287197e+00
1.00274340e+00
1.00261245e+00
1.00247944e+00
1.00234476e+00
1.00220879e+00
1.00207196e+00
1.00193468e+00
1.00179738e+00
1.00166049e+00
1.00152444e+00
1.00138962e+00
1.00125644e+00
1.00112525e+00
1.00099640e+00
1.00087020e+00
1.00074692e+00
1.00062680e+00
1.00051003e+00
1.00039677e+00
1.00028715e+00
1.00018125e+00
1.00007911e+00
9.99980737e-01
9.99886119e-01
9.99795202e-01
9.99707910e-01
9.99624143e-01
9.99543785e-01
9.99466704e-01
9.99392756e-01
9.99321794e-01
9.99253662e-01
9.99188205e-01
9.99125272e-01
9.99064718e-01
9.99006401e-01
9.98950192e-01
9.98895976e-01
9.98843645e-01
9.98793102e-01
9.98744271e-01
9.98697094e-01
9.98651505e-01
9.98607464e-01
9.98564960e-01
9.98523970e-01
9.98484462e-01
9.98446458e-01
9.98409986e-01
9.98375016e-01
9.98341547e-01
9.98309661e-01
9.98279362e-01
9.98250570e-01
9.98223356e-01
9.98197828e-01
9.98173857e-01
9.98151351e-01
9.98130531e-01
9.98111400e-01
9.98093606e-01
9.98077247e-01
9.98062706e-01
9.98049597e-01
9.98037460e-01
9.98026940e-01
9.98018300e-01
9.98010392e-01
9.98003306e-01
9.97998445e-01
9.97994813e-01
9.97991077e-01
9.97988915e-01
1.00548537e+00
1.00548326e+00
1.00548085e+00
1.00547759e+00
1.00547394e+00
1.00547036e+00
1.00546599e+00
1.00546041e+00
1.00545438e+00
1.00544774e+00
1.00543972e+00
1.00543044e+00
1.00542024e+00
1.00540866e+00
1.00539540e+00
1.00538065e+00
1.00536437e+00
1.00534625e+00
1.00532623e+00
1.00530441e+00
1.00528064e+00
1.00525480e+00
1.00522690e+00
1.00519694e+00
1.00516481e+00
1.00513047e+00
1.00509394e+00
1.00505514e+00
1.00501402e+00
1.00497054e+00
1.00492464e+00
1.00487626e+00
1.00482531e+00
1.00477171e+00
1.00471539e+00
1.00465622e+00
1.00459410e+00
1.00452892e+00
1.00446057e+00
1.00438892e+00
1.00431386e+00
1.00423528e+00
1.00415308e+00
1.00406717e+00
1.00397746e+00
1.00388392e+00
1.00378650e+00
1.00368520e+00
1.00358005e+00
1.00347109e+00
1.00335843e+00
1.00324220e+00
1.00312256e+00
1.00299971e+00
1.00287389e+00
1.00274540e+00
1.00261452e+00
1.00248162e+00
1.00234705e+00
1.00221121e+00
1.00207450e+00
1.00193735e+00
1.00180017e+00
1.00166339e+00
1.00152743e+00
1.00139269e+00
1.00125956e+00
1.00112841e+00
1.00099956e+00
1.00087333e+00
1.00074999e+00
1.00062978e+00
1.00051289e+00
1.00039948e+00
1.00028968e+00
1.00018358e+00
1.00008121e+00
9.99982597e-01
9.99887719e-01
9.99796529e-01
9.99708958e-01
9.99624909e-01
9.99544270e-01
9.99466916e-01
9.99392706e-01
9.99321495e-01
9.99253134e-01
9.99187472e-01
9.99124358e-01
9.99063649e-01
9.99005211e-01
9.98948914e-01
9.98894637e-01
9.98842280e-01
9.98791752e-01
9.98742966e-01
9.98695855e-01
9.98650378e-01
9.98606488e-01
9.98564140e-01
9.98523330e-01
9.98484062e-01
9.98446306e-01
9.98410058e-01
9.98375366e-01
9.98342238e-01
9.98310626e-01
9.98280576e-01
9.98252166e-01
9.98225327e-01
9.98200001e-01
9.98176320e-01
9.98154307e-01
9.98133751e-01
9.98114682e-01
9.98097333e-01
9.98081500e-01
9.98066876e-01
9.98053782e-01
9.98042404e-01
9.98032125e-01
9.98022866e-01
9.98015324e-01
9.98009199e-01
9.98003748e-01
9.97999418e-01
9.97996632e-01
9.97994861e-01
1.00548018e+00
1.00547773e+00
1.00547548e+00
1.00547234e+00
1.00546884e+00
1.00546549e+00
1.00546130e+00
1.00545613e+00
1.00545060e+00
1.00544429e+00
1.00543668e+00
1.00542802e+00
1.00541835e+00
1.00540722e+00
1.00539452e+00
1.00538037e+00
1.00536461e+00
1.00534698e+00
1.00532752e+00
1.00530621e+00
1.00528289e+00
1.00525749e+00
1.00523002e+00
1.00520043e+00
1.00516863e+00
1.00513459e+00
1.00509831e+00
1.00505972e+00
1.00501875e+00
1.00497539e+00
1.00492956e+00
1.00488120e+00
1.00483023e+00
1.00477659e+00
1.00472016e+00
1.00466087e+00
1.00459860e+00
1.00453325e+00
1.00446470e+00
1.00439284e+00
1.00431756e+00
1.00423876e+00
1.00415634e+00
1.00407021e+00
1.00398030e+00
1.00388657e+00
1.00378898e+00
1.00368753e+00
1.00358226e+00
1.00347321e+00
1.00336049e+00
1.00324422e+00
1.00312457e+00
1.00300175e+00
1.00287599e+00
1.00274757e+00
1.00261680e+00
1.00248401e+00
1.00234957e+00
1.00221386e+00
1.00207730e+00
1.00194028e+00
1.00180324e+00
1.00166658e+00
1.00153073e+00
1.00139607e+00
1.00126301e+00
1.00113189e+00
1.00100305e+00
1.00087679e+00
1.00075340e+00
1.00063310e+00
1.00051609e+00
1.00040253e+00
1.00029255e+00
1.00018624e+00
1.00008364e+00
9.99984767e-01
9.99889618e-01
9.99798146e-01
9.99710283e-01
9.99625940e-01
9.99545009e-01
9.99467368e-01
9.99392884e-01
9.99321414e-01
9.99252813e-01
9.99186934e-01
9.99123632e-01
9.99062764e-01
9.99004198e-01
9.98947808e-01
9.98893475e-01
9.98841095e-01
9.98790580e-01
9.98741848e-01
9.98694825e-01
9.98649464e-01
9.98605727e-01
9.98563570e-01
9.98522971e-01
9.98483936e-01
9.98446451e-01
9.98410496e-01
9.98376097e-01
9.98343285e-01
9.98312026e-01
9.98282319e-01
9.98254235e-01
9.98227764e-01
9.98202823e-01
9.98179469e-01
9.98157780e-01
9.98137616e-01
9.98118894e-01
9.98101791e-01
9.98086270e-01
9.98072021e-01
9.98059142e-01
9.98047905e-01
9.98037924e-01
9.98028907e-01
9.98021413e-01
9.98015392e-01
9.98010034e-01
9.98005793e-01
9.98003163e-01
9.98001132e-01
1.00547438e+00
1.00547164e+00
1.00546862e+00
1.00546609e+00
1.00546327e+00
1.00545948e+00
1.00545542e+00
1.00545126e+00
1.00544603e+00
1.00543971e+00
1.00543284e+00
1.00542498e+00
1.00541558e+00
1.00540490e+00
1.00539301e+00
1.00537945e+00
1.00536408e+00
1.00534708e+00
1.00532827e+00
1.00530742e+00
1.00528456e+00
1.00525970e+00
1.00523269e+00
1.00520346e+00
1.00517202e+00
1.00513835e+00
1.00510233e+00
1.00506394e+00
1.00502318e+00
1.00497996e+00
1.00493421e+00
1.00488589e+00
1.00483494e+00
1.00478125e+00
1.00472475e+00
1.00466535e+00
1.00460294e+00
1.00453743e+00
1.00446869e+00
1.00439664e+00
1.00432116e+00
1.00424215e+00
1.00415952e+00
1.00407319e+00
1.00398309e+00
1.00388918e+00
1.00379143e+00
1.00368985e+00
1.00358447e+00
1.00347535e+00
1.00336258e+00
1.00324629e+00
1.00312666e+00
1.00300388e+00
1.00287818e+00
1.00274986e+00
1.00261920e+00
1.00248654e+00
1.00235225e+00
1.00221670e+00
1.00208029e+00
1.00194343e+00
1.00180653e+00
1.00167002e+00
1.00153428e+00
1.00139973e+00
1.00126674e+00
1.00113567e+00
1.00100685e+00
1.00088058e+00
1.00075714e+00
1.00063676e+00
1.00051963e+00
1.00040593e+00
1.00029577e+00
1.00018925e+00
1.00008641e+00
9.99987290e-01
9.99891869e-01
9.99800111e-01
9.99711953e-01
9.99627313e-01
9.99546086e-01
9.99468155e-01
9.99393391e-01
9.99321659e-01
9.99252816e-01
9.99186718e-01
9.99123226e-01
9.99062201e-01
9.99003509e-01
9.98947027e-01
9.98892644e-01
9.98840252e-01
9.98789756e-01
9.98741084e-01
9.98694170e-01
9.98648944e-01
9.98605366e-01
9.98563421e-01
9.98523072e-01
9.98484284e-01
9.98447077e-01
9.98411467e-01
9.98377407e-01
9.98344900e-01
9.98314022e-01
9.98284751e-01
9.98257005e-01
9.98230863e-01
9.98206407e-01
9.98183486e-01
9.98162031e-01
9.98142250e-01
9.98124097e-01
9.98107247e-01
9.98091825e-01
9.98078120e-01
9.98065739e-01
9.98054367e-01
9.98044523e-01
9.98036255e-01
9.98028792e-01
9.98022313e-01
9.98017494e-01
9.98013765e-01
9.98010445e-01
9.98008187e-01
1.00546681e+00
1.00546423e+00
1.00546139e+00
1.00545879e+00
1.00545600e+00
1.00545267e+00
1.00544906e+00
1.00544502e+00
1.00544017e+00
1.00543457e+00
1.00542818e+00
1.00542066e+00
1.00541191e+00
1.00540194e+00
1.00539055e+00
1.00537752e+00
1.00536285e+00
1.00534645e+00
1.00532815e+00
1.00530786e+00
1.00528558e+00
1.00526121e+00
1.00523464e+00
1.00520586e+00
1.00517483e+00
1.00514148e+00
1.00510575e+00
1.00506764e+00
1.00502708e+00
1.00498401e+00
1.00493837e+00
1.00489013e+00
1.00483919e+00
1.00478549e+00
1.00472894e+00
1.00466945e+00
1.00460692e+00
1.00454126e+00
1.00447237e+00
1.00440014e+00
1.00432447e+00
1.00424527e+00
1.00416245e+00
1.00407593e+00
1.00398566e+00
1.00389159e+00
1.00379371e+00
1.00369202e+00
1.00358655e+00
1.00347737e+00
1.00336458e+00
1.00324830e+00
1.00312870e+00
1.00300598e+00
1.00288038e+00
1.00275217e+00
1.00262165e+00
1.00248915e+00
1.00235503e+00
1.00221966e+00
1.00208343e+00
1.00194675e+00
1.00181003e+00
1.00167367e+00
1.00153808e+00
1.00140364e+00
1.00127075e+00
1.00113974e+00
1.00101096e+00
1.00088469e+00
1.00076121e+00
1.00064076e+00
1.00052353e+00
1.00040968e+00
1.00029935e+00
1.00019263e+00
1.00008957e+00
9.99990191e-01
9.99894499e-01
9.99802456e-01
9.99714004e-01
9.99629065e-01
9.99547540e-01
9.99469319e-01
9.99394275e-01
9.99322279e-01
9.99253193e-01
9.99186878e-01
9.99123196e-01
9.99062013e-01
9.99003200e-01
9.98946633e-01
9.98892200e-01
9.98839801e-01
9.98789342e-01
9.98740739e-01
9.98693932e-01
9.98648863e-01
9.98605477e-01
9.98563745e-01
9.98523650e-01
9.98485164e-01
9.98448269e-01
9.98412979e-01
9.98379295e-01
9.98347192e-01
9.98316683e-01
9.98287804e-01
9.98260523e-01
9.98234813e-01
9.98210718e-01
9.98188241e-01
9.98167290e-01
9.98147866e-01
9.98130026e-01
9.98113671e-01
9.98098688e-01
9.98085163e-01
9.98073076e-01
9.98062206e-01
9.98052580e-01
9.98044325e-01
9.98037169e-01
9.98031025e-01
9.98026175e-01
9.98022376e-01
9.98019275e-01
9.98017162e-01
1.00545807e+00
1.00545550e+00
1.00545318e+00
1.00545040e+00
1.00544749e+00
1.00544483e+00
1.00544162e+00
1.00543759e+00
1.00543327e+00
1.00542841e+00
1.00542235e+00
1.00541525e+00
1.00540728e+00
1.00539794e+00
1.00538699e+00
1.00537461e+00
1.00536066e+00
1.00534481e+00
1.00532703e+00
1.00530739e+00
1.00528569e+00
1.00526177e+00
1.00523570e+00
1.00520741e+00
1.00517677e+00
1.00514377e+00
1.00510839e+00
1.00507056e+00
1.00503021e+00
1.00498732e+00
1.00494183e+00
1.00489367e+00
1.00484278e+00
1.00478908e+00
1.00473250e+00
1.00467294e+00
1.00461032e+00
1.00454455e+00
1.00447552e+00
1.00440313e+00
1.00432730e+00
1.00424794e+00
1.00416495e+00
1.00407828e+00
1.00398786e+00
1.00389367e+00
1.00379568e+00
1.00369390e+00
1.00358838e+00
1.00347917e+00
1.00336638e+00
1.00325013e+00
1.00313060e+00
1.00300798e+00
1.00288250e+00
1.00275444e+00
1.00262409e+00
1.00249177e+00
1.00235785e+00
1.00222268e+00
1.00208666e+00
1.00195019e+00
1.00181367e+00
1.00167749e+00
1.00154207e+00
1.00140778e+00
1.00127500e+00
1.00114408e+00
1.00101535e+00
1.00088911e+00
1.00076561e+00
1.00064511e+00
1.00052779e+00
1.00041382e+00
1.00030333e+00
1.00019642e+00
1.00009314e+00
9.99993523e-01
9.99897570e-01
9.99805253e-01
9.99716517e-01
9.99631288e-01
9.99549475e-01
9.99470971e-01
9.99395657e-01
9.99323405e-01
9.99254084e-01
9.99187561e-01
9.99123700e-01
9.99062368e-01
9.99003443e-01
9.98946804e-01
9.98892335e-01
9.98839939e-01
9.98789530e-01
9.98741020e-01
9.98694335e-01
9.98649433e-01
9.98606265e-01
9.98564775e-01
9.98524945e-01
9.98486780e-01
9.98450241e-01
9.98415298e-01
9.98381993e-01
9.98350336e-01
9.98320257e-01
9.98291770e-01
9.98264961e-01
9.98239766e-01
9.98216077e-01
9.98194004e-01
9.98173604e-01
9.98154652e-01
9.98137102e-01
9.98121192e-01
9.98106778e-01
9.98093509e-01
9.98081604e-01
9.98071283e-01
9.98062033e-01
9.98053697e-01
9.98046817e-01
9.98041210e-01
9.98036238e-01
9.98032261e-01
9.98029601e-01
9.98027561e-01
1.00544854e+00
1.00544574e+00
1.00544320e+00
1.00544078e+00
1.00543826e+00
1.00543559e+00
1.00543260e+00
1.00542924e+00
1.00542537e+00
1.00542074e+00
1.00541528e+00
1.00540893e+00
1.00540141e+00
1.00539255e+00
1.00538235e+00
1.00537064e+00
1.00535719e+00
1.00534196e+00
1.00532488e+00
1.00530579e+00
1.00528459e+00
1.00526125e+00
1.00523571e+00
1.00520785e+00
1.00517764e+00
1.00514504e+00
1.00511000e+00
1.00507245e+00
1.00503236e+00
1.00498968e+00
1.00494434e+00
1.00489629e+00
1.00484547e+00
1.00479181e+00
1.00473522e+00
1.00467563e+00
1.00461294e+00
1.00454708e+00
1.00447794e+00
1.00440543e+00
1.00432947e+00
1.00424997e+00
1.00416685e+00
1.00408005e+00
1.00398953e+00
1.00389524e+00
1.00379718e+00
1.00369536e+00
1.00358981e+00
1.00348061e+00
1.00336786e+00
1.00325169e+00
1.00313225e+00
1.00300976e+00
1.00288445e+00
1.00275657e+00
1.00262642e+00
1.00249433e+00
1.00236064e+00
1.00222572e+00
1.00208994e+00
1.00195371e+00
1.00181741e+00
1.00168145e+00
1.00154623e+00
1.00141211e+00
1.00127948e+00
1.00114867e+00
1.00102002e+00
1.00089382e+00
1.00077033e+00
1.00064979e+00
1.00053241e+00
1.00041833e+00
1.00030771e+00
1.00020062e+00
1.00009714e+00
9.99997307e-01
9.99901111e-01
9.99808533e-01
9.99719527e-01
9.99634023e-01
9.99551935e-01
9.99473160e-01
9.99397586e-01
9.99325092e-01
9.99255549e-01
9.99188827e-01
9.99124798e-01
9.99063332e-01
9.99004304e-01
9.98947602e-01
9.98893115e-01
9.98840738e-01
9.98790384e-01
9.98741979e-01
9.98695446e-01
9.98650724e-01
9.98607773e-01
9.98566558e-01
9.98527034e-01
9.98489182e-01
9.98453006e-01
9.98418482e-01
9.98385584e-01
9.98354331e-01
9.98324737e-01
9.98296756e-01
9.98270377e-01
9.98245645e-01
9.98222530e-01
9.98200951e-01
9.98180931e-01
9.98162499e-01
9.98145539e-01
9.98129978e-01
9.98115878e-01
9.98103188e-01
9.98091734e-01
9.98081528e-01
9.98072600e-01
9.98064803e-01
9.98058062e-01
9.98052409e-01
9.98047763e-01
9.98044111e-01
9.98041312e-01
9.98039102e-01
1.00543755e+00
1.00543470e+00
1.00543199e+00
1.00542982e+00
1.00542765e+00
1.00542505e+00
1.00542236e+00
1.00541957e+00
1.00541606e+00
1.00541179e+00
1.00540697e+00
1.00540121e+00
1.00539414e+00
1.00538591e+00
1.00537642e+00
1.00536527e+00
1.00535239e+00
1.00533784e+00
1.00532138e+00
1.00530283e+00
1.00528221e+00
1.00525945e+00
1.00523440e+00
1.00520700e+00
1.00517724e+00
1.00514506e+00
1.00511036e+00
1.00507312e+00
1.00503331e+00
1.00499085e+00
1.00494569e+00
1.00489778e+00
1.00484706e+00
1.00479345e+00
1.00473688e+00
1.00467729e+00
1.00461457e+00
1.00454865e+00
1.00447943e+00
1.00440684e+00
1.00433079e+00
1.00425119e+00
1.00416798e+00
1.00408110e+00
1.00399051e+00
1.00389617e+00
1.00379808e+00
1.00369625e+00
1.00359073e+00
1.00348158e+00
1.00336891e+00
1.00325285e+00
1.00313356e+00
1.00301125e+00
1.00288613e+00
1.00275848e+00
1.00262858e+00
1.00249675e+00
1.00236334e+00
1.00222869e+00
1.00209320e+00
1.00195724e+00
1.00182121e+00
1.00168551e+00
1.00155051e+00
1.00141660e+00
1.00128415e+00
1.00115349e+00
1.00102495e+00
1.00089882e+00
1.00077537e+00
1.00065483e+00
1.00053740e+00
1.00042325e+00
1.00031251e+00
1.00020529e+00
1.00010164e+00
1.00000160e+00
9.99905185e-01
9.99812374e-01
9.99723122e-01
9.99637367e-01
9.99555027e-01
9.99476007e-01
9.99400196e-01
9.99327482e-01
9.99257739e-01
9.99190841e-01
9.99126664e-01
9.99065084e-01
9.99005979e-01
9.98949233e-01
9.98894744e-01
9.98842411e-01
9.98792138e-01
9.98743851e-01
9.98697488e-01
9.98652979e-01
9.98610268e-01
9.98569335e-01
9.98530146e-01
9.98492651e-01
9.98456846e-01
9.98422747e-01
9.98390311e-01
9.98359504e-01
9.98330377e-01
9.98302927e-01
9.98277066e-01
9.98252806e-01
9.98230223e-01
9.98209217e-01
9.98189672e-01
9.98171699e-01
9.98155306e-01
9.98140242e-01
9.98126497e-01
9.98114265e-01
9.98103322e-01
9.98093393e-01
9.98084728e-01
9.98077388e-01
9.98070893e-01
9.98065287e-01
9.98060937e-01
9.98057526e-01
9.98054600e-01
9.98052407e-01
1.00542484e+00
1.00542209e+00
1.00541969e+00
1.00541745e+00
1.00541530e+00
1.00541321e+00
1.00541093e+00
1.00540826e+00
1.00540519e+00
1.00540162e+00
1.00539722e+00
1.00539184e+00
1.00538549e+00
1.00537793e+00
1.00536889e+00
1.00535834e+00
1.00534620e+00
1.00533223e+00
1.00531630e+00
1.00529839e+00
1.00527838e+00
1.00525612e+00
1.00523157e+00
1.00520469e+00
1.00517539e+00
1.00514359e+00
1.00510926e+00
1.00507237e+00
1.00503284e+00
1.00499061e+00
1.00494567e+00
1.00489793e+00
1.00484732e+00
1.00479380e+00
1.00473730e+00
1.00467773e+00
1.00461501e+00
1.00454907e+00
1.00447982e+00
1.00440718e+00
1.00433107e+00
1.00425143e+00
1.00416817e+00
1.00408126e+00
1.00399064e+00
1.00389630e+00
1.00379822e+00
1.00369644e+00
1.00359099e+00
1.00348195e+00
1.00336941e+00
1.00325352e+00
1.00313442e+00
1.00301233e+00
1.00288747e+00
1.00276009e+00
1.00263048e+00
1.00249896e+00
1.00236587e+00
1.00223155e+00
1.00209638e+00
1.00196074e+00
1.00182502e+00
1.00168960e+00
1.00155487e+00
1.00142121e+00
1.00128897e+00
1.00115849e+00
1.00103010e+00
1.00090408e+00
1.00078070e+00
1.00066019e+00
1.00054276e+00
1.00042856e+00
1.00031775e+00
1.00021041e+00
1.00010662e+00
1.00000641e+00
9.99909812e-01
9.99816796e-01
9.99727330e-01
9.99641353e-01
9.99558790e-01
9.99479552e-01
9.99403534e-01
9.99330625e-01
9.99260707e-01
9.99193661e-01
9.99129360e-01
9.99067688e-01
9.99008527e-01
9.98951764e-01
9.98897291e-01
9.98845016e-01
9.98794850e-01
9.98746707e-01
9.98700521e-01
9.98656241e-01
9.98613808e-01
9.98573170e-01
9.98534311e-01
9.98497212e-01
9.98461824e-01
9.98428134e-01
9.98396164e-01
9.98365884e-01
9.98337246e-01
9.98310277e-01
9.98284994e-01
9.98261319e-01
9.98239211e-01
9.98218732e-01
9.98199835e-01
9.98182383e-01
9.98166388e-01
9.98151904e-01
9.98138768e-01
9.98126856e-01
9.98116255e-01
9.98106928e-01
9.98098645e-01
9.98091395e-01
9.98085257e-01
9.98080113e-01
9.98075797e-01
9.98072361e-01
9.98069778e-01
9.98067731e-01
1.00541078e+00
1.00540796e+00
1.00540570e+00
1.00540358e+00
1.00540158e+00
1.00539980e+00
1.00539783e+00
1.00539548e+00
1.00539288e+00
1.00538979e+00
1.00538582e+00
1.00538100e+00
1.00537525e+00
1.00536822e+00
1.00535976e+00
1.00534986e+00
1.00533832e+00
1.00532491e+00
1.00530959e+00
1.00529230e+00
1.00527283e+00
1.00525110e+00
1.00522709e+00
1.00520071e+00
1.00517184e+00
1.00514046e+00
1.00510654e+00
1.00506998e+00
1.00503074e+00
1.00498880e+00
1.00494408e+00
1.00489652e+00
1.00484607e+00
1.00479268e+00
1.00473626e+00
1.00467675e+00
1.00461407e+00
1.00454816e+00
1.00447892e+00
1.00440628e+00
1.00433017e+00
1.00425052e+00
1.00416727e+00
1.00408037e+00
1.00398978e+00
1.00389549e+00
1.00379749e+00
1.00369581e+00
1.00359049e+00
1.00348160e+00
1.00336925e+00
1.00325358e+00
1.00313474e+00
1.00301292e+00
1.00288836e+00
1.00276131e+00
1.00263205e+00
1.00250089e+00
1.00236816e+00
1.00223421e+00
1.00209941e+00
1.00196414e+00
1.00182877e+00
1.00169369e+00
1.00155927e+00