# vtk DataFile Version 2.0
LBM Flow Field - Timestep 2070
ASCII
DATASET STRUCTURED_POINTS
DIMENSIONS 128 128 1
ORIGIN 0.0 0.0 0.0
SPACING 1.0 1.0 1.0
POINT_DATA 16384
SCALARS density double 1
LOOKUP_TABLE default
1.00148590e+00
1.00146373e+00
1.00143095e+00
1.00143052e+00
1.00142119e+00
1.00139912e+00
1.00138077e+00
1.00136629e+00
1.00134539e+00
1.00132298e+00
1.00130108e+00
1.00127826e+00
1.00125313e+00
1.00122762e+00
1.00120122e+00
1.00117409e+00
1.00114625e+00
1.00111818e+00
1.00108995e+00
1.00106222e+00
1.00103525e+00
1.00100962e+00
1.00098601e+00
1.00096520e+00
1.00094777e+00
1.00093452e+00
1.00092623e+00
1.00092353e+00
1.00092693e+00
1.00093689e+00
1.00095363e+00
1.00097717e+00
1.00100727e+00
1.00104351e+00
1.00108516e+00
1.00113130e+00
1.00118077e+00
1.00123227e+00
1.00128435e+00
1.00133549e+00
1.00138419e+00
1.00142898e+00
1.00146852e+00
1.00150163e+00
1.00152738e+00
1.00154512e+00
1.00155450e+00
1.00155549e+00
1.00154840e+00
1.00153383e+00
1.00151268e+00
1.00148610e+00
1.00145544e+00
1.00142217e+00
1.00138786e+00
1.00135407e+00
1.00132231e+00
1.00129402e+00
1.00127043e+00
1.00125259e+00
1.00124134e+00
1.00123721e+00
1.00124051e+00
1.00125124e+00
1.00126917e+00
1.00129381e+00
1.00132446e+00
1.00136023e+00
1.00140006e+00
1.00144281e+00
1.00148726e+00
1.00153213e+00
1.00157619e+00
1.00161822e+00
1.00165708e+00
1.00169173e+00
1.00172127e+00
1.00174490e+00
1.00176200e+00
1.00177208e+00
1.00177481e+00
1.00176999e+00
1.00175760e+00
1.00173770e+00
1.00171050e+00
1.00167632e+00
1.00163555e+00
1.00158869e+00
1.00153629e+00
1.00147896e+00
1.00141737e+00
1.00135222e+00
1.00128423e+00
1.00121414e+00
1.00114269e+00
1.00107060e+00
1.00099857e+00
1.00092730e+00
1.00085741e+00
1.00078945e+00
1.00072393e+00
1.00066136e+00
1.00060204e+00
1.00054621e+00
1.00049415e+00
1.00044607e+00
1.00040183e+00
1.00036152e+00
1.00032513e+00
1.00029256e+00
1.00026347e+00
1.00023792e+00
1.00021540e+00
1.00019603e+00
1.00017945e+00
1.00016518e+00
1.00015243e+00
1.00014301e+00
1.00013506e+00
1.00012638e+00
1.00011925e+00
1.00011783e+00
1.00011183e+00
1.00010126e+00
1.00010118e+00
1.00010659e+00
1.00008368e+00
1.00006822e+00
1.00147044e+00
1.00146667e+00
1.00143798e+00
1.00143031e+00
1.00142024e+00
1.00140424e+00
1.00138461e+00
1.00136881e+00
1.00134911e+00
1.00132839e+00
1.00130589e+00
1.00128348e+00
1.00125898e+00
1.00123405e+00
1.00120777e+00
1.00118114e+00
1.00115365e+00
1.00112605e+00
1.00109817e+00
1.00107087e+00
1.00104429e+00
1.00101914e+00
1.00099591e+00
1.00097546e+00
1.00095835e+00
1.00094538e+00
1.00093720e+00
1.00093453e+00
1.00093781e+00
1.00094748e+00
1.00096375e+00
1.00098663e+00
1.00101590e+00
1.00105112e+00
1.00109159e+00
1.00113641e+00
1.00118445e+00
1.00123445e+00
1.00128500e+00
1.00133463e+00
1.00138189e+00
1.00142535e+00
1.00146371e+00
1.00149585e+00
1.00152087e+00
1.00153814e+00
1.00154732e+00
1.00154839e+00
1.00154164e+00
1.00152767e+00
1.00150734e+00
1.00148177e+00
1.00145225e+00
1.00142022e+00
1.00138718e+00
1.00135465e+00
1.00132410e+00
1.00129691e+00
1.00127428e+00
1.00125724e+00
1.00124658e+00
1.00124285e+00
1.00124631e+00
1.00125701e+00
1.00127470e+00
1.00129891e+00
1.00132895e+00
1.00136397e+00
1.00140295e+00
1.00144476e+00
1.00148821e+00
1.00153206e+00
1.00157509e+00
1.00161612e+00
1.00165403e+00
1.00168780e+00
1.00171653e+00
1.00173944e+00
1.00175591e+00
1.00176545e+00
1.00176774e+00
1.00176258e+00
1.00174994e+00
1.00172988e+00
1.00170261e+00
1.00166844e+00
1.00162776e+00
1.00158106e+00
1.00152890e+00
1.00147187e+00
1.00141065e+00
1.00134591e+00
1.00127837e+00
1.00120877e+00
1.00113781e+00
1.00106623e+00
1.00099471e+00
1.00092392e+00
1.00085447e+00
1.00078692e+00
1.00072177e+00
1.00065950e+00
1.00060038e+00
1.00054477e+00
1.00049284e+00
1.00044480e+00
1.00040054e+00
1.00036026e+00
1.00032379e+00
1.00029114e+00
1.00026187e+00
1.00023623e+00
1.00021359e+00
1.00019419e+00
1.00017713e+00
1.00016287e+00
1.00015032e+00
1.00014071e+00
1.00013150e+00
1.00012393e+00
1.00011758e+00
1.00011428e+00
1.00010661e+00
1.00010107e+00
1.00010012e+00
1.00009897e+00
1.00007941e+00
1.00007858e+00
1.00145277e+00
1.00145355e+00
1.00146014e+00
1.00143990e+00
1.00141935e+00
1.00141152e+00
1.00139708e+00
1.00137614e+00
1.00135732e+00
1.00133904e+00
1.00131710e+00
1.00129413e+00
1.00127082e+00
1.00124637e+00
1.00122065e+00
1.00119434e+00
1.00116734e+00
1.00114003e+00
1.00111267e+00
1.00108556e+00
1.00105919e+00
1.00103425e+00
1.00101120e+00
1.00099068e+00
1.00097350e+00
1.00096038e+00
1.00095188e+00
1.00094869e+00
1.00095137e+00
1.00096026e+00
1.00097556e+00
1.00099732e+00
1.00102533e+00
1.00105913e+00
1.00109806e+00
1.00114124e+00
1.00118760e+00
1.00123588e+00
1.00128473e+00
1.00133274e+00
1.00137846e+00
1.00142054e+00
1.00145771e+00
1.00148887e+00
1.00151317e+00
1.00152999e+00
1.00153899e+00
1.00154017e+00
1.00153380e+00
1.00152046e+00
1.00150098e+00
1.00147645e+00
1.00144811e+00
1.00141735e+00
1.00138563e+00
1.00135442e+00
1.00132513e+00
1.00129910e+00
1.00127751e+00
1.00126134e+00
1.00125135e+00
1.00124809e+00
1.00125181e+00
1.00126255e+00
1.00128008e+00
1.00130394e+00
1.00133346e+00
1.00136781e+00
1.00140599e+00
1.00144690e+00
1.00148939e+00
1.00153225e+00
1.00157427e+00
1.00161431e+00
1.00165125e+00
1.00168411e+00
1.00171198e+00
1.00173411e+00
1.00174987e+00
1.00175879e+00
1.00176054e+00
1.00175493e+00
1.00174191e+00
1.00172156e+00
1.00169409e+00
1.00165979e+00
1.00161908e+00
1.00157241e+00
1.00152035e+00
1.00146351e+00
1.00140253e+00
1.00133808e+00
1.00127090e+00
1.00120168e+00
1.00113112e+00
1.00105996e+00
1.00098887e+00
1.00091847e+00
1.00084938e+00
1.00078218e+00
1.00071734e+00
1.00065525e+00
1.00059630e+00
1.00054085e+00
1.00048898e+00
1.00044083e+00
1.00039660e+00
1.00035627e+00
1.00031961e+00
1.00028670e+00
1.00025740e+00
1.00023147e+00
1.00020872e+00
1.00018895e+00
1.00017161e+00
1.00015720e+00
1.00014515e+00
1.00013398e+00
1.00012440e+00
1.00011882e+00
1.00011241e+00
1.00010327e+00
1.00009984e+00
1.00010142e+00
1.00009041e+00
1.00007823e+00
1.00008741e+00
1.00009021e+00
1.00147630e+00
1.00146888e+00
1.00146224e+00
1.00144856e+00
1.00143728e+00
1.00142410e+00
1.00140821e+00
1.00139091e+00
1.00137356e+00
1.00135394e+00
1.00133310e+00
1.00131135e+00
1.00128854e+00
1.00126429e+00
1.00123929e+00
1.00121347e+00
1.00118692e+00
1.00115985e+00
1.00113275e+00
1.00110585e+00
1.00107962e+00
1.00105460e+00
1.00103142e+00
1.00101070e+00
1.00099313e+00
1.00097942e+00
1.00097024e+00
1.00096620e+00
1.00096781e+00
1.00097545e+00
1.00098934e+00
1.00100950e+00
1.00103574e+00
1.00106764e+00
1.00110457e+00
1.00114567e+00
1.00118990e+00
1.00123607e+00
1.00128287e+00
1.00132892e+00
1.00137285e+00
1.00141334e+00
1.00144917e+00
1.00147929e+00
1.00150284e+00
1.00151925e+00
1.00152820e+00
1.00152964e+00
1.00152386e+00
1.00151140e+00
1.00149306e+00
1.00146987e+00
1.00144302e+00
1.00141385e+00
1.00138375e+00
1.00135414e+00
1.00132638e+00
1.00130175e+00
1.00128138e+00
1.00126623e+00
1.00125703e+00
1.00125429e+00
1.00125830e+00
1.00126906e+00
1.00128636e+00
1.00130976e+00
1.00133863e+00
1.00137214e+00
1.00140935e+00
1.00144919e+00
1.00149053e+00
1.00153220e+00
1.00157303e+00
1.00161190e+00
1.00164772e+00
1.00167951e+00
1.00170640e+00
1.00172764e+00
1.00174261e+00
1.00175083e+00
1.00175199e+00
1.00174589e+00
1.00173248e+00
1.00171184e+00
1.00168417e+00
1.00164976e+00
1.00160901e+00
1.00156241e+00
1.00151048e+00
1.00145384e+00
1.00139312e+00
1.00132900e+00
1.00126217e+00
1.00119334e+00
1.00112320e+00
1.00105245e+00
1.00098175e+00
1.00091174e+00
1.00084300e+00
1.00077608e+00
1.00071145e+00
1.00064955e+00
1.00059072e+00
1.00053524e+00
1.00048332e+00
1.00043512e+00
1.00039072e+00
1.00035008e+00
1.00031319e+00
1.00028000e+00
1.00025037e+00
1.00022398e+00
1.00020083e+00
1.00018069e+00
1.00016322e+00
1.00014797e+00
1.00013527e+00
1.00012438e+00
1.00011496e+00
1.00010688e+00
1.00010067e+00
1.00009428e+00
1.00008886e+00
1.00008455e+00
1.00008060e+00
1.00007410e+00
1.00007184e+00
1.00006719e+00
1.00149625e+00
1.00148734e+00
1.00147012e+00
1.00146561e+00
1.00145865e+00
1.00143975e+00
1.00142433e+00
1.00141147e+00
1.00139389e+00
1.00137365e+00
1.00135444e+00
1.00133380e+00
1.00131117e+00
1.00128765e+00
1.00126337e+00
1.00123794e+00
1.00121183e+00
1.00118516e+00
1.00115821e+00
1.00113144e+00
1.00110527e+00
1.00108008e+00
1.00105660e+00
1.00103549e+00
1.00101733e+00
1.00100280e+00
1.00099264e+00
1.00098742e+00
1.00098760e+00
1.00099360e+00
1.00100566e+00
1.00102378e+00
1.00104779e+00
1.00107732e+00
1.00111175e+00
1.00115028e+00
1.00119190e+00
1.00123549e+00
1.00127980e+00
1.00132350e+00
1.00136528e+00
1.00140388e+00
1.00143812e+00
1.00146700e+00
1.00148972e+00
1.00150568e+00
1.00151459e+00
1.00151642e+00
1.00151139e+00
1.00150004e+00
1.00148310e+00
1.00146156e+00
1.00143654e+00
1.00140931e+00
1.00138120e+00
1.00135353e+00
1.00132762e+00
1.00130468e+00
1.00128579e+00
1.00127186e+00
1.00126361e+00
1.00126151e+00
1.00126584e+00
1.00127662e+00
1.00129365e+00
1.00131650e+00
1.00134457e+00
1.00137709e+00
1.00141313e+00
1.00145168e+00
1.00149164e+00
1.00153190e+00
1.00157131e+00
1.00160878e+00
1.00164326e+00
1.00167380e+00
1.00169953e+00
1.00171972e+00
1.00173376e+00
1.00174118e+00
1.00174165e+00
1.00173499e+00
1.00172114e+00
1.00170017e+00
1.00167228e+00
1.00163775e+00
1.00159699e+00
1.00155046e+00
1.00149870e+00
1.00144231e+00
1.00138190e+00
1.00131816e+00
1.00125176e+00
1.00118338e+00
1.00111372e+00
1.00104345e+00
1.00097319e+00
1.00090360e+00
1.00083525e+00
1.00076861e+00
1.00070420e+00
1.00064247e+00
1.00058371e+00
1.00052816e+00
1.00047614e+00
1.00042778e+00
1.00038306e+00
1.00034204e+00
1.00030482e+00
1.00027117e+00
1.00024096e+00
1.00021414e+00
1.00019041e+00
1.00016959e+00
1.00015175e+00
1.00013594e+00
1.00012206e+00
1.00011112e+00
1.00010195e+00
1.00009178e+00
1.00008428e+00
1.00008103e+00
1.00007452e+00
1.00006419e+00
1.00006382e+00
1.00006429e+00
1.00005175e+00
1.00004573e+00
1.00150844e+00
1.00150521e+00
1.00149643e+00
1.00148646e+00
1.00147349e+00
1.00146173e+00
1.00144968e+00
1.00143366e+00
1.00141622e+00
1.00139929e+00
1.00138071e+00
1.00135993e+00
1.00133834e+00
1.00131598e+00
1.00129219e+00
1.00126724e+00
1.00124159e+00
1.00121535e+00
1.00118865e+00
1.00116192e+00
1.00113563e+00
1.00111029e+00
1.00108641e+00
1.00106464e+00
1.00104566e+00
1.00103014e+00
1.00101870e+00
1.00101193e+00
1.00101038e+00
1.00101440e+00
1.00102421e+00
1.00103988e+00
1.00106126e+00
1.00108798e+00
1.00111949e+00
1.00115503e+00
1.00119366e+00
1.00123430e+00
1.00127575e+00
1.00131679e+00
1.00135615e+00
1.00139262e+00
1.00142511e+00
1.00145263e+00
1.00147442e+00
1.00148993e+00
1.00149884e+00
1.00150111e+00
1.00149696e+00
1.00148687e+00
1.00147153e+00
1.00145186e+00
1.00142890e+00
1.00140385e+00
1.00137795e+00
1.00135247e+00
1.00132863e+00
1.00130758e+00
1.00129034e+00
1.00127778e+00
1.00127057e+00
1.00126919e+00
1.00127388e+00
1.00128467e+00
1.00130138e+00
1.00132361e+00
1.00135078e+00
1.00138217e+00
1.00141690e+00
1.00145399e+00
1.00149240e+00
1.00153105e+00
1.00156885e+00
1.00160475e+00
1.00163772e+00
1.00166684e+00
1.00169126e+00
1.00171027e+00
1.00172326e+00
1.00172978e+00
1.00172948e+00
1.00172220e+00
1.00170785e+00
1.00168652e+00
1.00165839e+00
1.00162376e+00
1.00158299e+00
1.00153656e+00
1.00148500e+00
1.00142889e+00
1.00136885e+00
1.00130553e+00
1.00123961e+00
1.00117174e+00
1.00110259e+00
1.00103284e+00
1.00096309e+00
1.00089395e+00
1.00082596e+00
1.00075967e+00
1.00069552e+00
1.00063389e+00
1.00057515e+00
1.00051960e+00
1.00046741e+00
1.00041873e+00
1.00037368e+00
1.00033231e+00
1.00029455e+00
1.00026029e+00
1.00022948e+00
1.00020208e+00
1.00017774e+00
1.00015608e+00
1.00013726e+00
1.00012123e+00
1.00010696e+00
1.00009419e+00
1.00008397e+00
1.00007562e+00
1.00006692e+00
1.00005911e+00
1.00005432e+00
1.00004960e+00
1.00004294e+00
1.00003746e+00
1.00003232e+00
1.00003106e+00
1.00152939e+00
1.00152471e+00
1.00152059e+00
1.00150888e+00
1.00149652e+00
1.00148822e+00
1.00147509e+00
1.00145885e+00
1.00144428e+00
1.00142850e+00
1.00140964e+00
1.00139015e+00
1.00137004e+00
1.00134813e+00
1.00132488e+00
1.00130083e+00
1.00127569e+00
1.00124970e+00
1.00122328e+00
1.00119665e+00
1.00117021e+00
1.00114457e+00
1.00112021e+00
1.00109769e+00
1.00107774e+00
1.00106101e+00
1.00104807e+00
1.00103955e+00
1.00103598e+00
1.00103770e+00
1.00104495e+00
1.00105783e+00
1.00107621e+00
1.00109975e+00
1.00112796e+00
1.00116012e+00
1.00119537e+00
1.00123268e+00
1.00127094e+00
1.00130899e+00
1.00134564e+00
1.00137975e+00
1.00141027e+00
1.00143628e+00
1.00145706e+00
1.00147205e+00
1.00148097e+00
1.00148376e+00
1.00148060e+00
1.00147192e+00
1.00145837e+00
1.00144077e+00
1.00142010e+00
1.00139747e+00
1.00137403e+00
1.00135096e+00
1.00132940e+00
1.00131043e+00
1.00129500e+00
1.00128394e+00
1.00127787e+00
1.00127724e+00
1.00128230e+00
1.00129307e+00
1.00130939e+00
1.00133090e+00
1.00135705e+00
1.00138715e+00
1.00142039e+00
1.00145583e+00
1.00149249e+00
1.00152935e+00
1.00156535e+00
1.00159948e+00
1.00163077e+00
1.00165830e+00
1.00168128e+00
1.00169898e+00
1.00171082e+00
1.00171634e+00
1.00171522e+00
1.00170726e+00
1.00169241e+00
1.00167071e+00
1.00164235e+00
1.00160762e+00
1.00156689e+00
1.00152061e+00
1.00146931e+00
1.00141355e+00
1.00135394e+00
1.00129111e+00
1.00122574e+00
1.00115845e+00
1.00108990e+00
1.00102072e+00
1.00095154e+00
1.00088290e+00
1.00081535e+00
1.00074941e+00
1.00068552e+00
1.00062403e+00
1.00056531e+00
1.00050969e+00
1.00045729e+00
1.00040827e+00
1.00036284e+00
1.00032096e+00
1.00028255e+00
1.00024770e+00
1.00021624e+00
1.00018791e+00
1.00016278e+00
1.00014060e+00
1.00012071e+00
1.00010345e+00
1.00008895e+00
1.00007560e+00
1.00006340e+00
1.00005453e+00
1.00004664e+00
1.00003702e+00
1.00003022e+00
1.00002727e+00
1.00001965e+00
1.00001192e+00
1.00001054e+00
1.00000759e+00
1.00155796e+00
1.00155129e+00
1.00154216e+00
1.00153427e+00
1.00152627e+00
1.00151461e+00
1.00150133e+00
1.00148945e+00
1.00147570e+00
1.00145903e+00
1.00144192e+00
1.00142432e+00
1.00140468e+00
1.00138340e+00
1.00136124e+00
1.00133792e+00
1.00131327e+00
1.00128768e+00
1.00126149e+00
1.00123495e+00
1.00120842e+00
1.00118238e+00
1.00115741e+00
1.00113411e+00
1.00111307e+00
1.00109492e+00
1.00108033e+00
1.00106988e+00
1.00106402e+00
1.00106318e+00
1.00106761e+00
1.00107740e+00
1.00109245e+00
1.00111250e+00
1.00113708e+00
1.00116553e+00
1.00119706e+00
1.00123074e+00
1.00126552e+00
1.00130030e+00
1.00133400e+00
1.00136554e+00
1.00139393e+00
1.00141831e+00
1.00143798e+00
1.00145243e+00
1.00146136e+00
1.00146470e+00
1.00146260e+00
1.00145544e+00
1.00144381e+00
1.00142844e+00
1.00141023e+00
1.00139019e+00
1.00136939e+00
1.00134889e+00
1.00132977e+00
1.00131301e+00
1.00129951e+00
1.00129002e+00
1.00128515e+00
1.00128530e+00
1.00129072e+00
1.00130144e+00
1.00131731e+00
1.00133800e+00
1.00136300e+00
1.00139168e+00
1.00142327e+00
1.00145691e+00
1.00149165e+00
1.00152653e+00
1.00156055e+00
1.00159276e+00
1.00162220e+00
1.00164801e+00
1.00166941e+00
1.00168569e+00
1.00169629e+00
1.00170076e+00
1.00169876e+00
1.00169010e+00
1.00167472e+00
1.00165266e+00
1.00162411e+00
1.00158933e+00
1.00154868e+00
1.00150262e+00
1.00145164e+00
1.00139631e+00
1.00133722e+00
1.00127498e+00
1.00121023e+00
1.00114361e+00
1.00107574e+00
1.00100723e+00
1.00093864e+00
1.00087058e+00
1.00080353e+00
1.00073796e+00
1.00067432e+00
1.00061303e+00
1.00055436e+00
1.00049857e+00
1.00044595e+00
1.00039665e+00
1.00035072e+00
1.00030821e+00
1.00026918e+00
1.00023361e+00
1.00020134e+00
1.00017214e+00
1.00014598e+00
1.00012292e+00
1.00010242e+00
1.00008386e+00
1.00006781e+00
1.00005446e+00
1.00004204e+00
1.00003025e+00
1.00002130e+00
1.00001421e+00
1.00000562e+00
9.99997926e-01
9.99993380e-01
9.99988565e-01
9.99981482e-01
9.99976177e-01
1.00158334e+00
1.00157771e+00
1.00156917e+00
1.00156259e+00
1.00155438e+00
1.00154300e+00
1.00153267e+00
1.00152162e+00
1.00150739e+00
1.00149264e+00
1.00147767e+00
1.00146040e+00
1.00144140e+00
1.00142169e+00
1.00140049e+00
1.00137757e+00
1.00135357e+00
1.00132860e+00
1.00130263e+00
1.00127610e+00
1.00124947e+00
1.00122308e+00
1.00119748e+00
1.00117330e+00
1.00115108e+00
1.00113146e+00
1.00111510e+00
1.00110253e+00
1.00109424e+00
1.00109065e+00
1.00109204e+00
1.00109849e+00
1.00110996e+00
1.00112624e+00
1.00114690e+00
1.00117136e+00
1.00119890e+00
1.00122865e+00
1.00125966e+00
1.00129094e+00
1.00132145e+00
1.00135020e+00
1.00137629e+00
1.00139890e+00
1.00141737e+00
1.00143121e+00
1.00144012e+00
1.00144403e+00
1.00144305e+00
1.00143750e+00
1.00142788e+00
1.00141487e+00
1.00139926e+00
1.00138197e+00
1.00136394e+00
1.00134616e+00
1.00132961e+00
1.00131518e+00
1.00130369e+00
1.00129585e+00
1.00129221e+00
1.00129315e+00
1.00129892e+00
1.00130953e+00
1.00132488e+00
1.00134465e+00
1.00136839e+00
1.00139550e+00
1.00142529e+00
1.00145695e+00
1.00148960e+00
1.00152234e+00
1.00155422e+00
1.00158434e+00
1.00161179e+00
1.00163575e+00
1.00165544e+00
1.00167022e+00
1.00167950e+00
1.00168285e+00
1.00167994e+00
1.00167058e+00
1.00165468e+00
1.00163230e+00
1.00160360e+00
1.00156883e+00
1.00152835e+00
1.00148259e+00
1.00143203e+00
1.00137723e+00
1.00131875e+00
1.00125721e+00
1.00119321e+00
1.00112735e+00
1.00106025e+00
1.00099248e+00
1.00092461e+00
1.00085717e+00
1.00079068e+00
1.00072556e+00
1.00066223e+00
1.00060111e+00
1.00054248e+00
1.00048659e+00
1.00043373e+00
1.00038403e+00
1.00033756e+00
1.00029445e+00
1.00025474e+00
1.00021825e+00
1.00018501e+00
1.00015507e+00
1.00012794e+00
1.00010344e+00
1.00008198e+00
1.00006298e+00
1.00004544e+00
1.00003027e+00
1.00001775e+00
1.00000569e+00
9.99994427e-01
9.99986241e-01
9.99978513e-01
9.99969693e-01
9.99963832e-01
9.99959050e-01
9.99951692e-01
9.99947153e-01
1.00160927e+00
1.00160503e+00
1.00159913e+00
1.00159133e+00
1.00158256e+00
1.00157457e+00
1.00156545e+00
1.00155360e+00
1.00154137e+00
1.00152895e+00
1.00151428e+00
1.00149783e+00
1.00148062e+00
1.00146194e+00
1.00144135e+00
1.00141935e+00
1.00139610e+00
1.00137154e+00
1.00134589e+00
1.00131948e+00
1.00129269e+00
1.00126596e+00
1.00123976e+00
1.00121461e+00
1.00119118e+00
1.00117006e+00
1.00115181e+00
1.00113701e+00
1.00112619e+00
1.00111972e+00
1.00111787e+00
1.00112081e+00
1.00112853e+00
1.00114081e+00
1.00115733e+00
1.00117757e+00
1.00120087e+00
1.00122647e+00
1.00125350e+00
1.00128105e+00
1.00130818e+00
1.00133399e+00
1.00135763e+00
1.00137834e+00
1.00139552e+00
1.00140869e+00
1.00141757e+00
1.00142204e+00
1.00142219e+00
1.00141828e+00
1.00141075e+00
1.00140017e+00
1.00138725e+00
1.00137278e+00
1.00135762e+00
1.00134265e+00
1.00132874e+00
1.00131670e+00
1.00130728e+00
1.00130111e+00
1.00129871e+00
1.00130044e+00
1.00130652e+00
1.00131698e+00
1.00133173e+00
1.00135049e+00
1.00137285e+00
1.00139829e+00
1.00142615e+00
1.00145569e+00
1.00148611e+00
1.00151656e+00
1.00154616e+00
1.00157405e+00
1.00159939e+00
1.00162138e+00
1.00163929e+00
1.00165248e+00
1.00166040e+00
1.00166260e+00
1.00165878e+00
1.00164872e+00
1.00163234e+00
1.00160969e+00
1.00158090e+00
1.00154623e+00
1.00150601e+00
1.00146065e+00
1.00141063e+00
1.00135648e+00
1.00129874e+00
1.00123800e+00
1.00117486e+00
1.00110988e+00
1.00104365e+00
1.00097673e+00
1.00090967e+00
1.00084294e+00
1.00077704e+00
1.00071243e+00
1.00064949e+00
1.00058854e+00
1.00052995e+00
1.00047401e+00
1.00042088e+00
1.00037073e+00
1.00032374e+00
1.00027997e+00
1.00023942e+00
1.00020207e+00
1.00016785e+00
1.00013676e+00
1.00010868e+00
1.00008317e+00
1.00006017e+00
1.00004002e+00
1.00002203e+00
1.00000532e+00
9.99990797e-01
9.99978863e-01
9.99967339e-01
9.99956252e-01
9.99947967e-01
9.99940978e-01
9.99932996e-01
9.99925817e-01
9.99920638e-01
9.99917018e-01
1.00163760e+00
1.00163273e+00
1.00162734e+00
1.00162067e+00
1.00161367e+00
1.00160653e+00
1.00159732e+00
1.00158737e+00
1.00157738e+00
1.00156533e+00
1.00155146e+00
1.00153707e+00
1.00152114e+00
1.00150299e+00
1.00148344e+00
1.00146259e+00
1.00143995e+00
1.00141578e+00
1.00139053e+00
1.00136431e+00
1.00133739e+00
1.00131029e+00
1.00128348e+00
1.00125745e+00
1.00123279e+00
1.00121010e+00
1.00118995e+00
1.00117291e+00
1.00115946e+00
1.00115000e+00
1.00114484e+00
1.00114415e+00
1.00114795e+00
1.00115609e+00
1.00116829e+00
1.00118413e+00
1.00120302e+00
1.00122427e+00
1.00124714e+00
1.00127078e+00
1.00129437e+00
1.00131707e+00
1.00133812e+00
1.00135683e+00
1.00137261e+00
1.00138504e+00
1.00139383e+00
1.00139884e+00
1.00140011e+00
1.00139786e+00
1.00139244e+00
1.00138433e+00
1.00137414e+00
1.00136255e+00
1.00135032e+00
1.00133821e+00
1.00132699e+00
1.00131738e+00
1.00131005e+00
1.00130558e+00
1.00130442e+00
1.00130692e+00
1.00131327e+00
1.00132353e+00
1.00133761e+00
1.00135527e+00
1.00137617e+00
1.00139981e+00
1.00142562e+00
1.00145293e+00
1.00148099e+00
1.00150903e+00
1.00153624e+00
1.00156180e+00
1.00158492e+00
1.00160486e+00
1.00162092e+00
1.00163247e+00
1.00163899e+00
1.00164004e+00
1.00163531e+00
1.00162458e+00
1.00160778e+00
1.00158493e+00
1.00155615e+00
1.00152168e+00
1.00148183e+00
1.00143701e+00
1.00138765e+00
1.00133428e+00
1.00127742e+00
1.00121763e+00
1.00115546e+00
1.00109148e+00
1.00102625e+00
1.00096028e+00
1.00089410e+00
1.00082819e+00
1.00076298e+00
1.00069892e+00
1.00063638e+00
1.00057570e+00
1.00051720e+00
1.00046114e+00
1.00040774e+00
1.00035718e+00
1.00030963e+00
1.00026510e+00
1.00022364e+00
1.00018541e+00
1.00015023e+00
1.00011783e+00
1.00008844e+00
1.00006207e+00
1.00003791e+00
1.00001591e+00
9.99996806e-01
9.99979729e-01
9.99963594e-01
9.99949655e-01
9.99938032e-01
9.99926754e-01
9.99916514e-01
9.99908528e-01
9.99900867e-01
9.99893818e-01
9.99888194e-01
9.99883396e-01
1.00166594e+00
1.00166138e+00
1.00165576e+00
1.00165058e+00
1.00164491e+00
1.00163783e+00
1.00163014e+00
1.00162233e+00
1.00161284e+00
1.00160174e+00
1.00159000e+00
1.00157680e+00
1.00156151e+00
1.00154473e+00
1.00152645e+00
1.00150623e+00
1.00148425e+00
1.00146078e+00
1.00143588e+00
1.00140977e+00
1.00138283e+00
1.00135541e+00
1.00132799e+00
1.00130109e+00
1.00127524e+00
1.00125098e+00
1.00122895e+00
1.00120964e+00
1.00119353e+00
1.00118105e+00
1.00117253e+00
1.00116814e+00
1.00116792e+00
1.00117182e+00
1.00117961e+00
1.00119092e+00
1.00120525e+00
1.00122204e+00
1.00124060e+00
1.00126021e+00
1.00128012e+00
1.00129960e+00
1.00131795e+00
1.00133455e+00
1.00134886e+00
1.00136048e+00
1.00136911e+00
1.00137461e+00
1.00137698e+00
1.00137637e+00
1.00137304e+00
1.00136740e+00
1.00135995e+00
1.00135125e+00
1.00134195e+00
1.00133271e+00
1.00132419e+00
1.00131701e+00
1.00131177e+00
1.00130898e+00
1.00130905e+00
1.00131228e+00
1.00131887e+00
1.00132888e+00
1.00134223e+00
1.00135874e+00
1.00137809e+00
1.00139986e+00
1.00142354e+00
1.00144852e+00
1.00147413e+00
1.00149967e+00
1.00152439e+00
1.00154755e+00
1.00156839e+00
1.00158623e+00
1.00160039e+00
1.00161028e+00
1.00161540e+00
1.00161531e+00
1.00160971e+00
1.00159839e+00
1.00158124e+00
1.00155828e+00
1.00152961e+00
1.00149547e+00
1.00145613e+00
1.00141198e+00
1.00136344e+00
1.00131099e+00
1.00125515e+00
1.00119644e+00
1.00113539e+00
1.00107253e+00
1.00100842e+00
1.00094352e+00
1.00087832e+00
1.00081329e+00
1.00074887e+00
1.00068542e+00
1.00062332e+00
1.00056295e+00
1.00050456e+00
1.00044839e+00
1.00039472e+00
1.00034374e+00
1.00029553e+00
1.00025025e+00
1.00020794e+00
1.00016859e+00
1.00013226e+00
1.00009884e+00
1.00006811e+00
1.00004016e+00
1.00001497e+00
9.99991923e-01
9.99970915e-01
9.99952527e-01
9.99936020e-01
9.99920532e-01
9.99907079e-01
9.99895824e-01
9.99885052e-01
9.99875261e-01
9.99867578e-01
9.99860976e-01
9.99854091e-01
9.99849087e-01
1.00169284e+00
1.00168913e+00
1.00168479e+00
1.00168030e+00
1.00167515e+00
1.00166945e+00
1.00166356e+00
1.00165650e+00
1.00164791e+00
1.00163880e+00
1.00162846e+00
1.00161597e+00
1.00160199e+00
1.00158666e+00
1.00156921e+00
1.00154971e+00
1.00152859e+00
1.00150575e+00
1.00148117e+00
1.00145523e+00
1.00142828e+00
1.00140060e+00
1.00137263e+00
1.00134488e+00
1.00131786e+00
1.00129212e+00
1.00126822e+00
1.00124665e+00
1.00122793e+00
1.00121246e+00
1.00120055e+00
1.00119242e+00
1.00118818e+00
1.00118780e+00
1.00119110e+00
1.00119780e+00
1.00120752e+00
1.00121975e+00
1.00123391e+00
1.00124938e+00
1.00126552e+00
1.00128168e+00
1.00129725e+00
1.00131165e+00
1.00132441e+00
1.00133513e+00
1.00134354e+00
1.00134947e+00
1.00135289e+00
1.00135386e+00
1.00135259e+00
1.00134938e+00
1.00134463e+00
1.00133880e+00
1.00133241e+00
1.00132601e+00
1.00132017e+00
1.00131541e+00
1.00131224e+00
1.00131110e+00
1.00131237e+00
1.00131631e+00
1.00132311e+00
1.00133282e+00
1.00134540e+00
1.00136070e+00
1.00137846e+00
1.00139830e+00
1.00141979e+00
1.00144238e+00
1.00146549e+00
1.00148848e+00
1.00151067e+00
1.00153137e+00
1.00154990e+00
1.00156561e+00
1.00157787e+00
1.00158611e+00
1.00158985e+00
1.00158867e+00
1.00158227e+00
1.00157042e+00
1.00155302e+00
1.00153006e+00
1.00150164e+00
1.00146795e+00
1.00142927e+00
1.00138594e+00
1.00133837e+00
1.00128701e+00
1.00123233e+00
1.00117485e+00
1.00111506e+00
1.00105347e+00
1.00099057e+00
1.00092685e+00
1.00086276e+00
1.00079870e+00
1.00073510e+00
1.00067235e+00
1.00061077e+00
1.00055069e+00
1.00049242e+00
1.00043620e+00
1.00038226e+00
1.00033078e+00
1.00028192e+00
1.00023583e+00
1.00019260e+00
1.00015213e+00
1.00011451e+00
1.00007989e+00
1.00004797e+00
1.00001843e+00
9.99991659e-01
9.99967596e-01
9.99945326e-01
9.99925015e-01
9.99907349e-01
9.99891389e-01
9.99876454e-01
9.99863647e-01
9.99852676e-01
9.99842601e-01
9.99833866e-01
9.99826661e-01
9.99820346e-01
9.99815804e-01
1.00171967e+00
1.00171664e+00
1.00171323e+00
1.00170935e+00
1.00170528e+00
1.00170109e+00
1.00169604e+00
1.00168996e+00
1.00168325e+00
1.00167542e+00
1.00166580e+00
1.00165479e+00
1.00164232e+00
1.00162774e+00
1.00161115e+00
1.00159276e+00
1.00157235e+00
1.00154993e+00
1.00152579e+00
1.00150012e+00
1.00147311e+00
1.00144518e+00
1.00141673e+00
1.00138817e+00
1.00136006e+00
1.00133289e+00
1.00130716e+00
1.00128341e+00
1.00126213e+00
1.00124369e+00
1.00122843e+00
1.00121661e+00
1.00120836e+00
1.00120369e+00
1.00120250e+00
1.00120460e+00
1.00120967e+00
1.00121730e+00
1.00122702e+00
1.00123832e+00
1.00125064e+00
1.00126342e+00
1.00127613e+00
1.00128827e+00
1.00129941e+00
1.00130917e+00
1.00131728e+00
1.00132357e+00
1.00132795e+00
1.00133043e+00
1.00133115e+00
1.00133030e+00
1.00132818e+00
1.00132515e+00
1.00132161e+00
1.00131801e+00
1.00131479e+00
1.00131240e+00
1.00131126e+00
1.00131174e+00
1.00131417e+00
1.00131879e+00
1.00132576e+00
1.00133516e+00
1.00134695e+00
1.00136102e+00
1.00137715e+00
1.00139505e+00
1.00141432e+00
1.00143451e+00
1.00145510e+00
1.00147552e+00
1.00149516e+00
1.00151341e+00
1.00152963e+00
1.00154323e+00
1.00155361e+00
1.00156024e+00
1.00156266e+00
1.00156046e+00
1.00155334e+00
1.00154107e+00
1.00152353e+00
1.00150071e+00
1.00147268e+00
1.00143961e+00
1.00140174e+00
1.00135940e+00
1.00131295e+00
1.00126283e+00
1.00120948e+00
1.00115336e+00
1.00109497e+00
1.00103478e+00
1.00097323e+00
1.00091077e+00
1.00084786e+00
1.00078487e+00
1.00072217e+00
1.00066015e+00
1.00059913e+00
1.00053939e+00
1.00048124e+00
1.00042495e+00
1.00037072e+00
1.00031874e+00
1.00026923e+00
1.00022226e+00
1.00017794e+00
1.00013640e+00
1.00009757e+00
1.00006139e+00
1.00002804e+00
9.99997340e-01
9.99968928e-01
9.99943031e-01
9.99919706e-01
9.99898266e-01
9.99878686e-01
9.99861513e-01
9.99846100e-01
9.99831995e-01
9.99819841e-01
9.99809584e-01
9.99800394e-01
9.99792579e-01
9.99786486e-01
9.99782089e-01
1.00174599e+00
1.00174341e+00
1.00174086e+00
1.00173802e+00
1.00173510e+00
1.00173186e+00
1.00172781e+00
1.00172321e+00
1.00171783e+00
1.00171090e+00
1.00170255e+00
1.00169296e+00
1.00168142e+00
1.00166773e+00
1.00165221e+00
1.00163466e+00
1.00161482e+00
1.00159295e+00
1.00156924e+00
1.00154375e+00
1.00151675e+00
1.00148860e+00
1.00145968e+00
1.00143041e+00
1.00140125e+00
1.00137269e+00
1.00134525e+00
1.00131942e+00
1.00129563e+00
1.00127430e+00
1.00125579e+00
1.00124035e+00
1.00122813e+00
1.00121923e+00
1.00121361e+00
1.00121113e+00
1.00121156e+00
1.00121462e+00
1.00121991e+00
1.00122702e+00
1.00123549e+00
1.00124487e+00
1.00125469e+00
1.00126452e+00
1.00127397e+00
1.00128270e+00
1.00129045e+00
1.00129700e+00
1.00130225e+00
1.00130616e+00
1.00130876e+00
1.00131018e+00
1.00131060e+00
1.00131028e+00
1.00130950e+00
1.00130861e+00
1.00130794e+00
1.00130786e+00
1.00130869e+00
1.00131075e+00
1.00131431e+00
1.00131958e+00
1.00132671e+00
1.00133578e+00
1.00134677e+00
1.00135961e+00
1.00137414e+00
1.00139009e+00
1.00140717e+00
1.00142497e+00
1.00144305e+00
1.00146093e+00
1.00147806e+00
1.00149388e+00
1.00150784e+00
1.00151938e+00
1.00152795e+00
1.00153305e+00
1.00153423e+00
1.00153111e+00
1.00152338e+00
1.00151081e+00
1.00149328e+00
1.00147074e+00
1.00144325e+00
1.00141095e+00
1.00137406e+00
1.00133286e+00
1.00128770e+00
1.00123898e+00
1.00118710e+00
1.00113251e+00
1.00107564e+00
1.00101695e+00
1.00095686e+00
1.00089578e+00
1.00083412e+00
1.00077225e+00
1.00071053e+00
1.00064927e+00
1.00058882e+00
1.00052946e+00
1.00047146e+00
1.00041507e+00
1.00036052e+00
1.00030804e+00
1.00025779e+00
1.00020991e+00
1.00016449e+00
1.00012170e+00
1.00008157e+00
1.00004396e+00
1.00000896e+00
9.99976749e-01
9.99946951e-01
9.99919342e-01
9.99894319e-01
9.99871718e-01
9.99850846e-01
9.99832028e-01
9.99815579e-01
9.99800827e-01
9.99787640e-01
9.99776498e-01
9.99767062e-01
9.99759245e-01
9.99753102e-01
9.99748573e-01
1.00177172e+00
1.00176989e+00
1.00176814e+00
1.00176623e+00
1.00176418e+00
1.00176189e+00
1.00175919e+00
1.00175577e+00
1.00175120e+00
1.00174551e+00
1.00173857e+00
1.00172980e+00
1.00171909e+00
1.00170658e+00
1.00169191e+00
1.00167488e+00
1.00165570e+00
1.00163442e+00
1.00161099e+00
1.00158564e+00
1.00155869e+00
1.00153035e+00
1.00150099e+00
1.00147104e+00
1.00144090e+00
1.00141106e+00
1.00138199e+00
1.00135414e+00
1.00132796e+00
1.00130386e+00
1.00128220e+00
1.00126322e+00
1.00124716e+00
1.00123413e+00
1.00122416e+00
1.00121718e+00
1.00121306e+00
1.00121160e+00
1.00121250e+00
1.00121546e+00
1.00122012e+00
1.00122609e+00
1.00123301e+00
1.00124051e+00
1.00124823e+00
1.00125588e+00
1.00126318e+00
1.00126992e+00
1.00127594e+00
1.00128115e+00
1.00128552e+00
1.00128908e+00
1.00129192e+00
1.00129419e+00
1.00129606e+00
1.00129777e+00
1.00129957e+00
1.00130170e+00
1.00130444e+00
1.00130803e+00
1.00131268e+00
1.00131858e+00
1.00132586e+00
1.00133460e+00
1.00134482e+00