# vtk DataFile Version 2.0
LBM Flow Field - Timestep 1200
ASCII
DATASET STRUCTURED_POINTS
DIMENSIONS 128 128 1
ORIGIN 0.0 0.0 0.0
SPACING 1.0 1.0 1.0
POINT_DATA 16384
SCALARS density double 1
LOOKUP_TABLE default
1.00161292e+00
1.00157833e+00
1.00153211e+00
1.00153122e+00
1.00151721e+00
1.00149239e+00
1.00147024e+00
1.00145105e+00
1.00142545e+00
1.00139852e+00
1.00136929e+00
1.00133831e+00
1.00130495e+00
1.00127013e+00
1.00123310e+00
1.00119496e+00
1.00115534e+00
1.00111412e+00
1.00107086e+00
1.00102542e+00
1.00097669e+00
1.00092363e+00
1.00086499e+00
1.00079936e+00
1.00072499e+00
1.00064042e+00
1.00054438e+00
1.00043585e+00
1.00031428e+00
1.00017999e+00
1.00003393e+00
9.99877770e-01
9.99713959e-01
9.99545637e-01
9.99376312e-01
9.99209743e-01
9.99049768e-01
9.98900026e-01
9.98763758e-01
9.98643706e-01
9.98542012e-01
9.98460159e-01
9.98398988e-01
9.98358752e-01
9.98339182e-01
9.98339584e-01
9.98358940e-01
9.98396003e-01
9.98449394e-01
9.98517681e-01
9.98599443e-01
9.98693328e-01
9.98798086e-01
9.98912598e-01
9.99035883e-01
9.99167101e-01
9.99305540e-01
9.99450597e-01
9.99601746e-01
9.99758502e-01
9.99920386e-01
1.00008688e+00
1.00025739e+00
1.00043122e+00
1.00060750e+00
1.00078524e+00
1.00096326e+00
1.00114021e+00
1.00131460e+00
1.00148479e+00
1.00164906e+00
1.00180562e+00
1.00195267e+00
1.00208845e+00
1.00221127e+00
1.00231958e+00
1.00241201e+00
1.00248740e+00
1.00254487e+00
1.00258381e+00
1.00260397e+00
1.00260543e+00
1.00258862e+00
1.00255434e+00
1.00250373e+00
1.00243827e+00
1.00235967e+00
1.00226991e+00
1.00217111e+00
1.00206545e+00
1.00195517e+00
1.00184242e+00
1.00172917e+00
1.00161726e+00
1.00150826e+00
1.00140342e+00
1.00130370e+00
1.00120981e+00
1.00112216e+00
1.00104083e+00
1.00096576e+00
1.00089681e+00
1.00083355e+00
1.00077552e+00
1.00072232e+00
1.00067350e+00
1.00062841e+00
1.00058665e+00
1.00054769e+00
1.00051104e+00
1.00047604e+00
1.00044239e+00
1.00040932e+00
1.00037668e+00
1.00034382e+00
1.00031071e+00
1.00027655e+00
1.00024260e+00
1.00020769e+00
1.00017241e+00
1.00013671e+00
1.00010480e+00
1.00007031e+00
1.00003608e+00
1.00000897e+00
9.99993476e-01
9.99948272e-01
9.99916791e-01
1.00157758e+00
1.00156757e+00
1.00152650e+00
1.00151846e+00
1.00150226e+00
1.00148409e+00
1.00146085e+00
1.00144120e+00
1.00141615e+00
1.00139094e+00
1.00136184e+00
1.00133175e+00
1.00129880e+00
1.00126479e+00
1.00122823e+00
1.00119054e+00
1.00115101e+00
1.00110999e+00
1.00106667e+00
1.00102101e+00
1.00097192e+00
1.00091855e+00
1.00085950e+00
1.00079357e+00
1.00071910e+00
1.00063473e+00
1.00053922e+00
1.00043169e+00
1.00031167e+00
1.00017940e+00
1.00003580e+00
9.99882499e-01
9.99721803e-01
9.99556660e-01
9.99390442e-01
9.99226767e-01
9.99069306e-01
9.98921588e-01
9.98786803e-01
9.98667659e-01
9.98566299e-01
9.98484247e-01
9.98422411e-01
9.98381121e-01
9.98360196e-01
9.98359032e-01
9.98376698e-01
9.98412027e-01
9.98463712e-01
9.98530377e-01
9.98610652e-01
9.98703215e-01
9.98806840e-01
9.98920414e-01
9.99042953e-01
9.99173597e-01
9.99311609e-01
9.99456344e-01
9.99607232e-01
9.99763741e-01
9.99925338e-01
1.00009146e+00
1.00026147e+00
1.00043462e+00
1.00061005e+00
1.00078674e+00
1.00096351e+00
1.00113904e+00
1.00131186e+00
1.00148036e+00
1.00164288e+00
1.00179767e+00
1.00194298e+00
1.00207710e+00
1.00219838e+00
1.00230531e+00
1.00239655e+00
1.00247098e+00
1.00252771e+00
1.00256617e+00
1.00258609e+00
1.00258756e+00
1.00257100e+00
1.00253721e+00
1.00248731e+00
1.00242272e+00
1.00234517e+00
1.00225658e+00
1.00215903e+00
1.00205468e+00
1.00194571e+00
1.00183423e+00
1.00172220e+00
1.00161141e+00
1.00150339e+00
1.00139938e+00
1.00130036e+00
1.00120701e+00
1.00111972e+00
1.00103863e+00
1.00096371e+00
1.00089481e+00
1.00083150e+00
1.00077344e+00
1.00072018e+00
1.00067129e+00
1.00062613e+00
1.00058438e+00
1.00054539e+00
1.00050883e+00
1.00047386e+00
1.00044040e+00
1.00040749e+00
1.00037527e+00
1.00034259e+00
1.00031014e+00
1.00027653e+00
1.00024344e+00
1.00020879e+00
1.00017531e+00
1.00014027e+00
1.00010903e+00
1.00007476e+00
1.00004546e+00
1.00001617e+00
9.99998680e-01
9.99958455e-01
9.99943944e-01
1.00152812e+00
1.00152192e+00
1.00152577e+00
1.00150104e+00
1.00147637e+00
1.00146547e+00
1.00144710e+00
1.00142388e+00
1.00140069e+00
1.00137633e+00
1.00134863e+00
1.00131926e+00
1.00128742e+00
1.00125377e+00
1.00121849e+00
1.00118147e+00
1.00114247e+00
1.00110189e+00
1.00105923e+00
1.00101384e+00
1.00096505e+00
1.00091204e+00
1.00085348e+00
1.00078799e+00
1.00071429e+00
1.00063105e+00
1.00053694e+00
1.00043116e+00
1.00031342e+00
1.00018383e+00
1.00004317e+00
9.99893089e-01
9.99735780e-01
9.99573972e-01
9.99410905e-01
9.99250100e-01
9.99095091e-01
9.98949300e-01
9.98815872e-01
9.98697500e-01
9.98596325e-01
9.98513912e-01
9.98451231e-01
9.98408685e-01
9.98386179e-01
9.98383201e-01
9.98398906e-01
9.98432215e-01
9.98481898e-01
9.98546646e-01
9.98625144e-01
9.98716114e-01
9.98818355e-01
9.98930766e-01
9.99052357e-01
9.99182251e-01
9.99319674e-01
9.99463939e-01
9.99614418e-01
9.99770519e-01
9.99931652e-01
1.00009719e+00
1.00026645e+00
1.00043865e+00
1.00061290e+00
1.00078818e+00
1.00096332e+00
1.00113701e+00
1.00130784e+00
1.00147426e+00
1.00163465e+00
1.00178735e+00
1.00193065e+00
1.00206290e+00
1.00218251e+00
1.00228801e+00
1.00237809e+00
1.00245161e+00
1.00250773e+00
1.00254585e+00
1.00256568e+00
1.00256730e+00
1.00255109e+00
1.00251783e+00
1.00246860e+00
1.00240481e+00
1.00232814e+00
1.00224050e+00
1.00214392e+00
1.00204058e+00
1.00193259e+00
1.00182206e+00
1.00171096e+00
1.00160102e+00
1.00149375e+00
1.00139043e+00
1.00129202e+00
1.00119914e+00
1.00111219e+00
1.00103142e+00
1.00095675e+00
1.00088793e+00
1.00082472e+00
1.00076680e+00
1.00071362e+00
1.00066475e+00
1.00061980e+00
1.00057827e+00
1.00053955e+00
1.00050327e+00
1.00046889e+00
1.00043592e+00
1.00040382e+00
1.00037227e+00
1.00034067e+00
1.00030916e+00
1.00027730e+00
1.00024491e+00
1.00021197e+00
1.00018034e+00
1.00014798e+00
1.00011501e+00
1.00008503e+00
1.00006118e+00
1.00002963e+00
1.00000051e+00
9.99990965e-01
9.99979217e-01
1.00151476e+00
1.00149973e+00
1.00148931e+00
1.00147008e+00
1.00145736e+00
1.00144185e+00
1.00142192e+00
1.00140130e+00
1.00138037e+00
1.00135577e+00
1.00132911e+00
1.00130072e+00
1.00127029e+00
1.00123763e+00
1.00120334e+00
1.00116727e+00
1.00112949e+00
1.00108980e+00
1.00104797e+00
1.00100345e+00
1.00095553e+00
1.00090327e+00
1.00084557e+00
1.00078112e+00
1.00070860e+00
1.00062675e+00
1.00053448e+00
1.00043094e+00
1.00031580e+00
1.00018926e+00
1.00005210e+00
9.99905784e-01
9.99752397e-01
9.99594584e-01
9.99435406e-01
9.99278187e-01
9.99126341e-01
9.98983185e-01
9.98851757e-01
9.98734698e-01
9.98634146e-01
9.98551689e-01
9.98488343e-01
9.98444592e-01
9.98420434e-01
9.98415458e-01
9.98428928e-01
9.98459868e-01
9.98507146e-01
9.98569543e-01
9.98645814e-01
9.98734740e-01
9.98835158e-01
9.98945985e-01
9.99066229e-01
9.99194992e-01
9.99331461e-01
9.99474892e-01
9.99624593e-01
9.99779900e-01
9.99940146e-01
1.00010464e+00
1.00027264e+00
1.00044332e+00
1.00061576e+00
1.00078895e+00
1.00096173e+00
1.00113285e+00
1.00130094e+00
1.00146454e+00
1.00162211e+00
1.00177207e+00
1.00191281e+00
1.00204276e+00
1.00216038e+00
1.00226425e+00
1.00235309e+00
1.00242578e+00
1.00248146e+00
1.00251952e+00
1.00253962e+00
1.00254180e+00
1.00252640e+00
1.00249413e+00
1.00244602e+00
1.00238343e+00
1.00230801e+00
1.00222161e+00
1.00212626e+00
1.00202407e+00
1.00191718e+00
1.00180766e+00
1.00169745e+00
1.00158831e+00
1.00148175e+00
1.00137901e+00
1.00128104e+00
1.00118853e+00
1.00110188e+00
1.00102128e+00
1.00094670e+00
1.00087796e+00
1.00081482e+00
1.00075689e+00
1.00070377e+00
1.00065503e+00
1.00061026e+00
1.00056893e+00
1.00053062e+00
1.00049484e+00
1.00046113e+00
1.00042893e+00
1.00039787e+00
1.00036750e+00
1.00033748e+00
1.00030739e+00
1.00027737e+00
1.00024714e+00
1.00021671e+00
1.00018621e+00
1.00015704e+00
1.00012779e+00
1.00009907e+00
1.00007361e+00
1.00005193e+00
1.00002727e+00
1.00001147e+00
9.99994665e-01
1.00148393e+00
1.00146876e+00
1.00144821e+00
1.00144048e+00
1.00143058e+00
1.00140924e+00
1.00139155e+00
1.00137459e+00
1.00135308e+00
1.00132914e+00
1.00130424e+00
1.00127682e+00
1.00124747e+00
1.00121630e+00
1.00118312e+00
1.00114824e+00
1.00111181e+00
1.00107329e+00
1.00103249e+00
1.00098911e+00
1.00094233e+00
1.00089111e+00
1.00083454e+00
1.00077148e+00
1.00070054e+00
1.00062053e+00
1.00053058e+00
1.00042989e+00
1.00031804e+00
1.00019530e+00
1.00006246e+00
9.99920788e-01
9.99772234e-01
9.99619315e-01
9.99464892e-01
9.99312078e-01
9.99164136e-01
9.99024246e-01
9.98895338e-01
9.98779992e-01
9.98680337e-01
9.98597982e-01
9.98534003e-01
9.98488969e-01
9.98462984e-01
9.98455754e-01
9.98466666e-01
9.98494865e-01
9.98539330e-01
9.98598946e-01
9.98672556e-01
9.98759006e-01
9.98857179e-01
9.98966015e-01
9.99084523e-01
9.99211780e-01
9.99346927e-01
9.99489159e-01
9.99637709e-01
9.99791828e-01
9.99950768e-01
1.00011376e+00
1.00027999e+00
1.00044860e+00
1.00061863e+00
1.00078908e+00
1.00095883e+00
1.00112667e+00
1.00129131e+00
1.00145139e+00
1.00160546e+00
1.00175206e+00
1.00188968e+00
1.00201683e+00
1.00213206e+00
1.00223400e+00
1.00232140e+00
1.00239316e+00
1.00244839e+00
1.00248646e+00
1.00250700e+00
1.00250996e+00
1.00249564e+00
1.00246467e+00
1.00241802e+00
1.00235700e+00
1.00228318e+00
1.00219838e+00
1.00210458e+00
1.00200387e+00
1.00189837e+00
1.00179013e+00
1.00168106e+00
1.00157293e+00
1.00146725e+00
1.00136525e+00
1.00126787e+00
1.00117584e+00
1.00108958e+00
1.00100922e+00
1.00093479e+00
1.00086623e+00
1.00080318e+00
1.00074529e+00
1.00069229e+00
1.00064377e+00
1.00059920e+00
1.00055819e+00
1.00052041e+00
1.00048527e+00
1.00045233e+00
1.00042118e+00
1.00039136e+00
1.00036242e+00
1.00033417e+00
1.00030608e+00
1.00027800e+00
1.00025030e+00
1.00022292e+00
1.00019468e+00
1.00016743e+00
1.00014285e+00
1.00011784e+00
1.00009110e+00
1.00007318e+00
1.00005759e+00
1.00003657e+00
1.00002214e+00
1.00143736e+00
1.00142913e+00
1.00141632e+00
1.00140476e+00
1.00138876e+00
1.00137366e+00
1.00135958e+00
1.00134059e+00
1.00131903e+00
1.00129747e+00
1.00127374e+00
1.00124721e+00
1.00121892e+00
1.00118907e+00
1.00115739e+00
1.00112396e+00
1.00108873e+00
1.00105166e+00
1.00101241e+00
1.00097040e+00
1.00092499e+00
1.00087539e+00
1.00082048e+00
1.00075916e+00
1.00069032e+00
1.00061284e+00
1.00052574e+00
1.00042839e+00
1.00032050e+00
1.00020222e+00
1.00007423e+00
9.99937801e-01
9.99794753e-01
9.99647347e-01
9.99498268e-01
9.99350482e-01
9.99207046e-01
9.99070967e-01
9.98945077e-01
9.98831891e-01
9.98733501e-01
9.98651529e-01
9.98587112e-01
9.98540901e-01
9.98513108e-01
9.98503560e-01
9.98511776e-01
9.98537030e-01
9.98578426e-01
9.98634960e-01
9.98705569e-01
9.98789175e-01
9.98884714e-01
9.98991153e-01
9.99107501e-01
9.99232813e-01
9.99366185e-01
9.99506747e-01
9.99653654e-01
9.99806072e-01
9.99963167e-01
1.00012409e+00
1.00028797e+00
1.00045389e+00
1.00062089e+00
1.00078796e+00
1.00095402e+00
1.00111793e+00
1.00127850e+00
1.00143444e+00
1.00158445e+00
1.00172717e+00
1.00186120e+00
1.00198517e+00
1.00209770e+00
1.00219747e+00
1.00228329e+00
1.00235405e+00
1.00240886e+00
1.00244703e+00
1.00246816e+00
1.00247212e+00
1.00245914e+00
1.00242976e+00
1.00238489e+00
1.00232576e+00
1.00225387e+00
1.00217099e+00
1.00207907e+00
1.00198015e+00
1.00187631e+00
1.00176960e+00
1.00166195e+00
1.00155507e+00
1.00145048e+00
1.00134943e+00
1.00125289e+00
1.00116153e+00
1.00107579e+00
1.00099590e+00
1.00092187e+00
1.00085356e+00
1.00079074e+00
1.00073316e+00
1.00068043e+00
1.00063214e+00
1.00058795e+00
1.00054748e+00
1.00051026e+00
1.00047585e+00
1.00044386e+00
1.00041390e+00
1.00038545e+00
1.00035812e+00
1.00033164e+00
1.00030588e+00
1.00028034e+00
1.00025485e+00
1.00023004e+00
1.00020598e+00
1.00018144e+00
1.00015786e+00
1.00013744e+00
1.00011720e+00
1.00009767e+00
1.00008232e+00
1.00006761e+00
1.00005879e+00
1.00139191e+00
1.00138322e+00
1.00137498e+00
1.00136148e+00
1.00134745e+00
1.00133596e+00
1.00131937e+00
1.00130028e+00
1.00128186e+00
1.00126095e+00
1.00123708e+00
1.00121205e+00
1.00118528e+00
1.00115649e+00
1.00112619e+00
1.00109428e+00
1.00106052e+00
1.00102504e+00
1.00098745e+00
1.00094707e+00
1.00090336e+00
1.00085560e+00
1.00080270e+00
1.00074355e+00
1.00067720e+00
1.00060264e+00
1.00051893e+00
1.00042546e+00
1.00032207e+00
1.00020883e+00
1.00008637e+00
9.99955868e-01
9.99818982e-01
9.99677772e-01
9.99534734e-01
9.99392626e-01
9.99254297e-01
9.99122598e-01
9.99000242e-01
9.98889656e-01
9.98792899e-01
9.98711611e-01
9.98646981e-01
9.98599742e-01
9.98570217e-01
9.98558361e-01
9.98563824e-01
9.98586016e-01
9.98624169e-01
9.98677395e-01
9.98744732e-01
9.98825180e-01
9.98917731e-01
9.99021382e-01
9.99135146e-01
9.99258058e-01
9.99389168e-01
9.99527547e-01
9.99672270e-01
9.99822422e-01
9.99977086e-01
1.00013534e+00
1.00029624e+00
1.00045885e+00
1.00062218e+00
1.00078524e+00
1.00094700e+00
1.00110638e+00
1.00126228e+00
1.00141355e+00
1.00155899e+00
1.00169735e+00
1.00182739e+00
1.00194781e+00
1.00205734e+00
1.00215472e+00
1.00223878e+00
1.00230844e+00
1.00236280e+00
1.00240113e+00
1.00242295e+00
1.00242809e+00
1.00241669e+00
1.00238920e+00
1.00234645e+00
1.00228958e+00
1.00222003e+00
1.00213950e+00
1.00204988e+00
1.00195318e+00
1.00185145e+00
1.00174669e+00
1.00164083e+00
1.00153558e+00
1.00143243e+00
1.00133265e+00
1.00123722e+00
1.00114680e+00
1.00106185e+00
1.00098264e+00
1.00090919e+00
1.00084135e+00
1.00077898e+00
1.00072183e+00
1.00066949e+00
1.00062163e+00
1.00057798e+00
1.00053809e+00
1.00050151e+00
1.00046797e+00
1.00043703e+00
1.00040819e+00
1.00038116e+00
1.00035560e+00
1.00033098e+00
1.00030723e+00
1.00028432e+00
1.00026167e+00
1.00023913e+00
1.00021799e+00
1.00019768e+00
1.00017664e+00
1.00015771e+00
1.00014223e+00
1.00012591e+00
1.00011135e+00
1.00010123e+00
1.00009352e+00
1.00134721e+00
1.00133809e+00
1.00132698e+00
1.00131585e+00
1.00130513e+00
1.00129117e+00
1.00127426e+00
1.00125800e+00
1.00123995e+00
1.00121855e+00
1.00119584e+00
1.00117201e+00
1.00114616e+00
1.00111856e+00
1.00108950e+00
1.00105900e+00
1.00102698e+00
1.00099314e+00
1.00095716e+00
1.00091874e+00
1.00087712e+00
1.00083140e+00
1.00078080e+00
1.00072435e+00
1.00066094e+00
1.00058967e+00
1.00050983e+00
1.00042082e+00
1.00032237e+00
1.00021465e+00
1.00009826e+00
9.99974210e-01
9.99843966e-01
9.99709483e-01
9.99573031e-01
9.99437114e-01
9.99304408e-01
9.99177612e-01
9.99059286e-01
9.98951765e-01
9.98857079e-01
9.98776874e-01
9.98712375e-01
9.98664399e-01
9.98633376e-01
9.98619381e-01
9.98622194e-01
9.98641359e-01
9.98676234e-01
9.98726047e-01
9.98789937e-01
9.98866983e-01
9.98956234e-01
9.99056720e-01
9.99167462e-01
9.99287477e-01
9.99415781e-01
9.99551387e-01
9.99693304e-01
9.99840542e-01
9.99992110e-01
1.00014702e+00
1.00030429e+00
1.00046292e+00
1.00062196e+00
1.00078041e+00
1.00093729e+00
1.00109161e+00
1.00124237e+00
1.00138850e+00
1.00152896e+00
1.00166262e+00
1.00178834e+00
1.00190494e+00
1.00201123e+00
1.00210604e+00
1.00218822e+00
1.00225671e+00
1.00231060e+00
1.00234912e+00
1.00237175e+00
1.00237823e+00
1.00236863e+00
1.00234332e+00
1.00230302e+00
1.00224880e+00
1.00218203e+00
1.00210431e+00
1.00201748e+00
1.00192349e+00
1.00182435e+00
1.00172204e+00
1.00161843e+00
1.00151524e+00
1.00141397e+00
1.00131586e+00
1.00122186e+00
1.00113273e+00
1.00104893e+00
1.00097066e+00
1.00089801e+00
1.00083095e+00
1.00076926e+00
1.00071266e+00
1.00066090e+00
1.00061371e+00
1.00057065e+00
1.00053138e+00
1.00049561e+00
1.00046296e+00
1.00043299e+00
1.00040532e+00
1.00037964e+00
1.00035567e+00
1.00033299e+00
1.00031120e+00
1.00029034e+00
1.00027053e+00
1.00025108e+00
1.00023180e+00
1.00021422e+00
1.00019780e+00
1.00018116e+00
1.00016635e+00
1.00015444e+00
1.00014324e+00
1.00013346e+00
1.00012657e+00
1.00129648e+00
1.00128863e+00
1.00127863e+00
1.00126900e+00
1.00125726e+00
1.00124257e+00
1.00122822e+00
1.00121199e+00
1.00119247e+00
1.00117217e+00
1.00115086e+00
1.00112711e+00
1.00110184e+00
1.00107554e+00
1.00104773e+00
1.00101852e+00
1.00098802e+00
1.00095587e+00
1.00092175e+00
1.00088532e+00
1.00084586e+00
1.00080252e+00
1.00075452e+00
1.00070097e+00
1.00064087e+00
1.00057335e+00
1.00049777e+00
1.00041360e+00
1.00032059e+00
1.00021888e+00
1.00010901e+00
9.99991862e-01
9.99868778e-01
9.99741507e-01
9.99612092e-01
9.99482843e-01
9.99356249e-01
9.99234816e-01
9.99120965e-01
9.99016957e-01
9.98924775e-01
9.98846052e-01
9.98782061e-01
9.98733695e-01
9.98701476e-01
9.98685594e-01
9.98685955e-01
9.98702226e-01
9.98733886e-01
9.98780273e-01
9.98840620e-01
9.98914085e-01
9.98999773e-01
9.99096748e-01
9.99204044e-01
9.99320669e-01
9.99445609e-01
9.99577834e-01
9.99716298e-01
9.99859953e-01
1.00000775e+00
1.00015865e+00
1.00031162e+00
1.00046567e+00
1.00061983e+00
1.00077313e+00
1.00092466e+00
1.00107348e+00
1.00121870e+00
1.00135937e+00
1.00149454e+00
1.00162323e+00
1.00174440e+00
1.00185697e+00
1.00195986e+00
1.00205195e+00
1.00213213e+00
1.00219938e+00
1.00225276e+00
1.00229149e+00
1.00231499e+00
1.00232296e+00
1.00231536e+00
1.00229250e+00
1.00225502e+00
1.00220387e+00
1.00214033e+00
1.00206595e+00
1.00198247e+00
1.00189177e+00
1.00179581e+00
1.00169653e+00
1.00159575e+00
1.00149516e+00
1.00139625e+00
1.00130027e+00
1.00120816e+00
1.00112069e+00
1.00103833e+00
1.00096132e+00
1.00088978e+00
1.00082370e+00
1.00076286e+00
1.00070705e+00
1.00065607e+00
1.00060958e+00
1.00056720e+00
1.00052870e+00
1.00049374e+00
1.00046189e+00
1.00043283e+00
1.00040633e+00
1.00038191e+00
1.00035920e+00
1.00033816e+00
1.00031843e+00
1.00029949e+00
1.00028153e+00
1.00026488e+00
1.00024850e+00
1.00023271e+00
1.00021873e+00
1.00020569e+00
1.00019286e+00
1.00018284e+00
1.00017382e+00
1.00016565e+00
1.00016089e+00
1.00124482e+00
1.00123857e+00
1.00122931e+00
1.00121894e+00
1.00120684e+00
1.00119340e+00
1.00117877e+00
1.00116132e+00
1.00114248e+00
1.00112276e+00
1.00110103e+00
1.00107763e+00
1.00105323e+00
1.00102762e+00
1.00100083e+00
1.00097292e+00
1.00094375e+00
1.00091330e+00
1.00088121e+00
1.00084680e+00
1.00080957e+00
1.00076891e+00
1.00072383e+00
1.00067340e+00
1.00061690e+00
1.00055353e+00
1.00048253e+00
1.00040349e+00
1.00031627e+00
1.00022092e+00
1.00011786e+00
1.00000793e+00
9.99892336e-01
9.99772580e-01
9.99650525e-01
9.99528307e-01
9.99408189e-01
9.99292496e-01
9.99183539e-01
9.99083479e-01
9.98994237e-01
9.98917447e-01
9.98854416e-01
9.98806092e-01
9.98773084e-01
9.98755685e-01
9.98753911e-01
9.98767540e-01
9.98796161e-01
9.98839211e-01
9.98896010e-01
9.98965788e-01
9.99047704e-01
9.99140859e-01
9.99244303e-01
9.99357047e-01
9.99478059e-01
9.99606283e-01
9.99740637e-01
9.99880032e-01
1.00002338e+00
1.00016961e+00
1.00031768e+00
1.00046657e+00
1.00061534e+00
1.00076305e+00
1.00090884e+00
1.00105186e+00
1.00119128e+00
1.00132628e+00
1.00145601e+00
1.00157959e+00
1.00169610e+00
1.00180456e+00
1.00190397e+00
1.00199326e+00
1.00207139e+00
1.00213735e+00
1.00219022e+00
1.00222919e+00
1.00225365e+00
1.00226324e+00
1.00225786e+00
1.00223773e+00
1.00220341e+00
1.00215575e+00
1.00209595e+00
1.00202544e+00
1.00194589e+00
1.00185910e+00
1.00176694e+00
1.00167129e+00
1.00157394e+00
1.00147653e+00
1.00138050e+00
1.00128712e+00
1.00119735e+00
1.00111191e+00
1.00103130e+00
1.00095587e+00
1.00088571e+00
1.00082077e+00
1.00076097e+00
1.00070617e+00
1.00065604e+00
1.00061030e+00
1.00056873e+00
1.00053102e+00
1.00049676e+00
1.00046568e+00
1.00043751e+00
1.00041190e+00
1.00038852e+00
1.00036706e+00
1.00034726e+00
1.00032902e+00
1.00031205e+00
1.00029584e+00
1.00028079e+00
1.00026704e+00
1.00025378e+00
1.00024109e+00
1.00023030e+00
1.00022039e+00
1.00021157e+00
1.00020365e+00
1.00019767e+00
1.00019427e+00
1.00119277e+00
1.00118666e+00
1.00117798e+00
1.00116749e+00
1.00115580e+00
1.00114222e+00
1.00112610e+00
1.00110855e+00
1.00109021e+00
1.00106961e+00
1.00104740e+00
1.00102456e+00
1.00100056e+00
1.00097527e+00
1.00094928e+00
1.00092251e+00
1.00089473e+00
1.00086586e+00
1.00083558e+00
1.00080334e+00
1.00076857e+00
1.00073057e+00
1.00068850e+00
1.00064152e+00
1.00058885e+00
1.00052976e+00
1.00046363e+00
1.00039004e+00
1.00030882e+00
1.00022002e+00
1.00012402e+00
1.00002155e+00
9.99913615e-01
9.99801584e-01
9.99687138e-01
9.99572182e-01
9.99458787e-01
9.99349139e-01
9.99245412e-01
9.99149658e-01
9.99063753e-01
9.98989327e-01
9.98927700e-01
9.98879870e-01
9.98846519e-01
9.98828029e-01
9.98824505e-01
9.98835821e-01
9.98861658e-01
9.98901539e-01
9.98954860e-01
9.99020915e-01
9.99098915e-01
9.99187996e-01
9.99287235e-01
9.99395651e-01
9.99512215e-01
9.99635862e-01
9.99765496e-01
9.99900010e-01
1.00003830e+00
1.00017929e+00
1.00032192e+00
1.00046520e+00
1.00060819e+00
1.00075000e+00
1.00088983e+00
1.00102688e+00
1.00116041e+00
1.00128968e+00
1.00141395e+00
1.00153244e+00
1.00164430e+00
1.00174866e+00
1.00184459e+00
1.00193109e+00
1.00200716e+00
1.00207184e+00
1.00212420e+00
1.00216345e+00
1.00218894e+00
1.00220028e+00
1.00219730e+00
1.00218017e+00
1.00214934e+00
1.00210559e+00
1.00205002e+00
1.00198394e+00
1.00190892e+00
1.00182668e+00
1.00173898e+00
1.00164762e+00
1.00155431e+00
1.00146066e+00
1.00136808e+00
1.00127777e+00
1.00119073e+00
1.00110769e+00
1.00102918e+00
1.00095553e+00
1.00088691e+00
1.00082332e+00
1.00076472e+00
1.00071092e+00
1.00066169e+00
1.00061681e+00
1.00057603e+00
1.00053899e+00
1.00050539e+00
1.00047505e+00
1.00044759e+00
1.00042262e+00
1.00040002e+00
1.00037960e+00
1.00036086e+00
1.00034358e+00
1.00032798e+00
1.00031358e+00
1.00029997e+00
1.00028752e+00
1.00027643e+00
1.00026575e+00
1.00025619e+00
1.00024787e+00
1.00024067e+00
1.00023410e+00
1.00022923e+00
1.00022602e+00
1.00114058e+00
1.00113491e+00
1.00112636e+00
1.00111562e+00
1.00110324e+00
1.00108873e+00
1.00107227e+00
1.00105428e+00
1.00103466e+00
1.00101342e+00
1.00099126e+00
1.00096805e+00
1.00094385e+00
1.00091905e+00
1.00089367e+00
1.00086772e+00
1.00084126e+00
1.00081391e+00
1.00078537e+00
1.00075535e+00
1.00072311e+00
1.00068783e+00
1.00064888e+00
1.00060551e+00
1.00055681e+00
1.00050212e+00
1.00044099e+00
1.00037296e+00
1.00029781e+00
1.00021564e+00
1.00012677e+00
1.00003177e+00
9.99931527e-01
9.99827281e-01
9.99720498e-01
9.99612881e-01
9.99506356e-01
9.99402949e-01
9.99304686e-01
9.99213538e-01
9.99131339e-01
9.99059687e-01
9.98999911e-01
9.98953052e-01
9.98919849e-01
9.98900743e-01
9.98895915e-01
9.98905316e-01
9.98928700e-01
9.98965656e-01
9.99015644e-01
9.99078013e-01
9.99152019e-01
9.99236840e-01
9.99331583e-01
9.99435292e-01
9.99546957e-01
9.99665523e-01
9.99789908e-01
9.99919011e-01
1.00005174e+00
1.00018702e+00
1.00032382e+00
1.00046116e+00
1.00059814e+00
1.00073391e+00
1.00086770e+00
1.00099879e+00
1.00112651e+00
1.00125018e+00
1.00136913e+00
1.00148267e+00
1.00159005e+00
1.00169046e+00
1.00178302e+00
1.00186682e+00
1.00194092e+00
1.00200437e+00
1.00205628e+00
1.00209587e+00
1.00212249e+00
1.00213570e+00
1.00213532e+00
1.00212143e+00
1.00209443e+00
1.00205499e+00
1.00200410e+00
1.00194299e+00
1.00187309e+00
1.00179600e+00
1.00171338e+00
1.00162693e+00
1.00153826e+00
1.00144892e+00
1.00136028e+00
1.00127351e+00
1.00118956e+00
1.00110922e+00
1.00103304e+00
1.00096135e+00
1.00089439e+00
1.00083225e+00
1.00077486e+00
1.00072206e+00
1.00067375e+00
1.00062970e+00
1.00058957e+00
1.00055313e+00
1.00052016e+00
1.00049031e+00
1.00046329e+00
1.00043891e+00
1.00041689e+00
1.00039696e+00
1.00037901e+00
1.00036270e+00
1.00034787e+00
1.00033453e+00
1.00032245e+00
1.00031116e+00
1.00030114e+00
1.00029216e+00
1.00028392e+00
1.00027650e+00
1.00027051e+00
1.00026498e+00
1.00026057e+00
1.00025757e+00
1.00108828e+00
1.00108264e+00
1.00107397e+00
1.00106299e+00
1.00104979e+00
1.00103420e+00
1.00101703e+00
1.00099790e+00
1.00097702e+00
1.00095516e+00
1.00093240e+00
1.00090849e+00
1.00088410e+00
1.00085948e+00
1.00083452e+00
1.00080930e+00
1.00078386e+00
1.00075798e+00
1.00073131e+00
1.00070334e+00
1.00067349e+00
1.00064109e+00
1.00060533e+00
1.00056546e+00
1.00052077e+00
1.00047061e+00
1.00041444e+00
1.00035191e+00
1.00028284e+00
1.00020725e+00
1.00012538e+00
1.00003774e+00
9.99945119e-01
9.99848548e-01
9.99749324e-01
9.99649014e-01
9.99549372e-01
9.99452254e-01
9.99359580e-01
9.99273250e-01
9.99195029e-01
9.99126487e-01
9.99068965e-01
9.99023526e-01
9.98990941e-01
9.98971699e-01
9.98966036e-01
9.98973953e-01
9.98995256e-01
9.99029586e-01
9.99076449e-01
9.99135240e-01
9.99205257e-01
9.99285718e-01
9.99375772e-01
9.99474498e-01
9.99580925e-01
9.99694034e-01
9.99812776e-01
9.99936084e-01
1.00006290e+00
1.00019218e+00
1.00032292e+00
1.00045419e+00
1.00058511e+00
1.00071488e+00
1.00084277e+00
1.00096811e+00
1.00109026e+00
1.00120862e+00
1.00132258e+00
1.00143149e+00
1.00153468e+00
1.00163140e+00
1.00172083e+00
1.00180213e+00
1.00187440e+00
1.00193674e+00
1.00198830e+00
1.00202831e+00
1.00205614e+00
1.00207136e+00
1.00207373e+00
1.00206331e+00
1.00204041e+00
1.00200563e+00
1.00195985e+00
1.00190417e+00
1.00183993e+00
1.00176855e+00
1.00169158e+00
1.00161061e+00
1.00152715e+00
1.00144263e+00
1.00135836e+00
1.00127550e+00
1.00119498e+00
1.00111757e+00
1.00104385e+00
1.00097425e+00
1.00090902e+00
1.00084827e+00
1.00079202e+00
1.00074022e+00
1.00069273e+00
1.00064930e+00
1.00060973e+00
1.00057380e+00
1.00054122e+00
1.00051166e+00
1.00048494e+00
1.00046089e+00
1.00043918e+00
1.00041952e+00
1.00040197e+00
1.00038631e+00
1.00037213e+00
1.00035935e+00
1.00034819e+00
1.00033807e+00
1.00032888e+00
1.00032077e+00
1.00031367e+00
1.00030720e+00
1.00030180e+00
1.00029679e+00
1.00029293e+00
1.00029001e+00
1.00103613e+00
1.00103048e+00
1.00102117e+00
1.00100950e+00
1.00099554e+00
1.00097879e+00
1.00096016e+00
1.00093976e+00
1.00091792e+00
1.00089486e+00
1.00087095e+00
1.00084654e+00
1.00082186e+00
1.00079701e+00
1.00077235e+00
1.00074783e+00
1.00072332e+00
1.00069879e+00
1.00067388e+00
1.00064794e+00
1.00062047e+00
1.00059086e+00
1.00055824e+00
1.00052184e+00
1.00048107e+00
1.00043530e+00
1.00038397e+00
1.00032678e+00
1.00026358e+00
1.00019432e+00
1.00011920e+00
1.00003866e+00
9.99953363e-01
9.99864180e-01
9.99772290e-01
9.99679101e-01
9.99586188e-01
9.99495291e-01
9.99408238e-01
9.99326828e-01
9.99252767e-01
9.99187611e-01
9.99132692e-01
9.99089076e-01
9.99057553e-01
9.99038647e-01
9.99032619e-01
9.99039499e-01
9.99059126e-01
9.99091173e-01
9.99135177e-01
9.99190569e-01
9.99256685e-01
9.99332789e-01
9.99418072e-01
9.99511670e-01
9.99612664e-01
9.99720094e-01
9.99832968e-01
9.99950279e-01
1.00007102e+00
1.00019420e+00
1.00031888e+00
1.00044414e+00
1.00056916e+00
1.00069318e+00
1.00081549e+00
1.00093546e+00
1.00105249e+00
1.00116601e+00
1.00127545e+00
1.00138021e+00
1.00147965e+00
1.00157308e+00
1.00165974e+00
1.00173882e+00
1.00180949e+00
1.00187091e+00
1.00192226e+00
1.00196282e+00
1.00199199e+00
1.00200932e+00
1.00201459e+00
1.00200781e+00
1.00198924e+00
1.00195941e+00
1.00191908e+00
1.00186924e+00
1.00181107e+00
1.00174588e+00
1.00167506e+00
1.00160004e+00
1.00152223e+00
1.00144296e+00
1.00136344e+00
1.00128478e+00
1.00120791e+00
1.00113360e+00
1.00106244e+00
1.00099493e+00
1.00093137e+00
1.00087194e+00
1.00081673e+00
1.00076575e+00
1.00071886e+00
1.00067590e+00
1.00063674e+00
1.00060107e+00
1.00056862e+00
1.00053922e+00
1.00051263e+00
1.00048855e+00
1.00046687e+00
1.00044744e+00
1.00043002e+00
1.00041446e+00
1.00040076e+00
1.00038857e+00
1.00037778e+00
1.00036833e+00
1.00036003e+00
1.00035257e+00
1.00034610e+00
1.00034039e+00
1.00033540e+00
1.00033082e+00
1.00032726e+00
1.00032400e+00
1.00098318e+00
1.00097726e+00
1.00096787e+00
1.00095521e+00
1.00093996e+00
1.00092210e+00
1.00090207e+00
1.00088013e+00
1.00085698e+00
1.00083270e+00
1.00080772e+00
1.00078252e+00
1.00075736e+00
1.00073237e+00
1.00070784e+00
1.00068386e+00
1.00066036e+00
1.00063708e+00
1.00061370e+00
1.00058979e+00
1.00056470e+00
1.00053765e+00
1.00050798e+00
1.00047500e+00
1.00043795e+00
1.00039627e+00
1.00034954e+00
1.00029742e+00
1.00023971e+00
1.00017639e+00
1.00010763e+00
1.00003378e+00
9.99955352e-01
9.99873161e-01
9.99788237e-01
9.99701816e-01
9.99615357e-01
9.99530500e-01
9.99448956e-01
9.99372441e-01
9.99302624e-01
9.99241031e-01
9.99188968e-01
9.99147500e-01
9.99117430e-01
9.99099283e-01
9.99093328e-01
9.99099609e-01
9.99117974e-01
9.99148109e-01
9.99189572e-01
9.99241816e-01
9.99304216e-01
9.99376077e-01
9.99456649e-01
9.99545128e-01
9.99640670e-01
9.99742391e-01
9.99849380e-01
9.99960706e-01
1.00007544e+00
1.00019265e+00
1.00031146e+00
1.00043101e+00
1.00055051e+00
1.00066923e+00
1.00078649e+00
1.00090168e+00
1.00101421e+00
1.00112353e+00
1.00122908e+00
1.00133029e+00
1.00142656e+00
1.00151721e+00
1.00160154e+00
1.00167880e+00
1.00174819e+00
1.00180893e+00
1.00186026e+00
1.00190152e+00
1.00193212e+00
1.00195167e+00
1.00195995e+00
1.00195693e+00
1.00194285e+00
1.00191815e+00
1.00188351e+00
1.00183980e+00
1.00178803e+00
1.00172938e+00
1.00166508e+00
1.00159640e+00
1.00152459e+00
1.00145089e+00
1.00137641e+00
1.00130218e+00
1.00122910e+00
1.00115796e+00
1.00108940e+00
1.00102391e+00
1.00096191e+00
1.00090366e+00
1.00084930e+00
1.00079889e+00
1.00075238e+00
1.00070970e+00
1.00067065e+00
1.00063498e+00
1.00060250e+00
1.00057302e+00
1.00054626e+00
1.00052200e+00
1.00050017e+00
1.00048064e+00
1.00046316e+00
1.00044759e+00
1.00043402e+00
1.00042214e+00
1.00041170e+00
1.00040264e+00
1.00039491e+00
1.00038806e+00
1.00038205e+00
1.00037681e+00
1.00037219e+00
1.00036798e+00
1.00036448e+00
1.00036076e+00
1.00092955e+00
1.00092316e+00
1.00091323e+00
1.00089956e+00
1.00088301e+00
1.00086382e+00
1.00084234e+00
1.00081890e+00
1.00079426e+00
1.00076875e+00
1.00074278e+00
1.00071670e+00
1.00069101e+00
1.00066593e+00
1.00064155e+00
1.00061807e+00
1.00059547e+00
1.00057343e+00
1.00055159e+00
1.00052956e+00
1.00050663e+00
1.00048205e+00
1.00045516e+00
1.00042526e+00
1.00039162e+00
1.00035373e+00
1.00031118e+00
1.00026365e+00
1.00021093e+00
1.00015305e+00
1.00009010e+00
1.00002233e+00
9.99950237e-01
9.99874503e-01
9.99796013e-01
9.99715897e-01
9.99635520e-01
9.99556391e-01
9.99480124e-01
9.99408388e-01
9.99342802e-01
9.99284842e-01
9.99235798e-01
9.99196732e-01
9.99168430e-01
9.99151405e-01
9.99145923e-01
9.99152019e-01
9.99169532e-01
9.99198147e-01
9.99237429e-01
9.99286851e-01
9.99345815e-01
9.99413675e-01
9.99489740e-01
9.99573284e-01
9.99663547e-01
9.99759738e-01
9.99861041e-01
9.99966622e-01
1.00007564e+00
1.00018724e+00
1.00030062e+00
1.00041496e+00
1.00052953e+00