# vtk DataFile Version 2.0
LBM Flow Field - Timestep 3750
ASCII
DATASET STRUCTURED_POINTS
DIMENSIONS 128 128 1
ORIGIN 0.0 0.0 0.0
SPACING 1.0 1.0 1.0
POINT_DATA 16384
SCALARS density double 1
LOOKUP_TABLE default
9.97523559e-01
9.97524134e-01
9.97525440e-01
9.97527027e-01
9.97529527e-01
9.97533166e-01
9.97537887e-01
9.97543677e-01
9.97550844e-01
9.97559444e-01
9.97569551e-01
9.97581330e-01
9.97594961e-01
9.97610510e-01
9.97628106e-01
9.97647893e-01
9.97669977e-01
9.97694450e-01
9.97721419e-01
9.97750962e-01
9.97783148e-01
9.97818035e-01
9.97855658e-01
9.97896032e-01
9.97939172e-01
9.97985061e-01
9.98033658e-01
9.98084917e-01
9.98138777e-01
9.98195149e-01
9.98253934e-01
9.98315028e-01
9.98378313e-01
9.98443656e-01
9.98510930e-01
9.98580005e-01
9.98650749e-01
9.98723036e-01
9.98796752e-01
9.98871793e-01
9.98948068e-01
9.99025505e-01
9.99104052e-01
9.99183678e-01
9.99264371e-01
9.99346146e-01
9.99429039e-01
9.99513106e-01
9.99598423e-01
9.99685085e-01
9.99773201e-01
9.99862890e-01
9.99954282e-01
1.00004751e+00
1.00014270e+00
1.00023999e+00
1.00033949e+00
1.00044131e+00
1.00054555e+00
1.00065227e+00
1.00076153e+00
1.00087335e+00
1.00098773e+00
1.00110466e+00
1.00122408e+00
1.00134590e+00
1.00147002e+00
1.00159631e+00
1.00172461e+00
1.00185474e+00
1.00198650e+00
1.00211967e+00
1.00225404e+00
1.00238934e+00
1.00252534e+00
1.00266178e+00
1.00279841e+00
1.00293497e+00
1.00307123e+00
1.00320693e+00
1.00334185e+00
1.00347578e+00
1.00360850e+00
1.00373983e+00
1.00386958e+00
1.00399759e+00
1.00412370e+00
1.00424777e+00
1.00436967e+00
1.00448927e+00
1.00460644e+00
1.00472109e+00
1.00483308e+00
1.00494231e+00
1.00504867e+00
1.00515204e+00
1.00525231e+00
1.00534937e+00
1.00544309e+00
1.00553338e+00
1.00562012e+00
1.00570319e+00
1.00578250e+00
1.00585797e+00
1.00592951e+00
1.00599704e+00
1.00606054e+00
1.00611999e+00
1.00617533e+00
1.00622659e+00
1.00627388e+00
1.00631720e+00
1.00635652e+00
1.00639216e+00
1.00642431e+00
1.00645275e+00
1.00647768e+00
1.00650003e+00
1.00651945e+00
1.00653517e+00
1.00654875e+00
1.00656172e+00
1.00657069e+00
1.00657562e+00
1.00658283e+00
1.00659036e+00
1.00658425e+00
1.00657902e+00
9.97523489e-01
9.97524064e-01
9.97525667e-01
9.97527541e-01
9.97530358e-01
9.97534116e-01
9.97539027e-01
9.97545005e-01
9.97552361e-01
9.97561113e-01
9.97571422e-01
9.97583378e-01
9.97597176e-01
9.97612894e-01
9.97630676e-01
9.97650630e-01
9.97672885e-01
9.97697531e-01
9.97724671e-01
9.97754378e-01
9.97786727e-01
9.97821769e-01
9.97859542e-01
9.97900059e-01
9.97943329e-01
9.97989337e-01
9.98038044e-01
9.98089398e-01
9.98143337e-01
9.98199775e-01
9.98258612e-01
9.98319740e-01
9.98383043e-01
9.98448393e-01
9.98515658e-01
9.98584711e-01
9.98655421e-01
9.98727665e-01
9.98801329e-01
9.98876310e-01
9.98952521e-01
9.99029890e-01
9.99108368e-01
9.99187923e-01
9.99268547e-01
9.99350254e-01
9.99433080e-01
9.99517082e-01
9.99602336e-01
9.99688937e-01
9.99776992e-01
9.99866620e-01
9.99957948e-01
1.00005111e+00
1.00014623e+00
1.00024343e+00
1.00034285e+00
1.00044457e+00
1.00054869e+00
1.00065529e+00
1.00076441e+00
1.00087607e+00
1.00099028e+00
1.00110702e+00
1.00122623e+00
1.00134782e+00
1.00147170e+00
1.00159772e+00
1.00172574e+00
1.00185558e+00
1.00198704e+00
1.00211989e+00
1.00225393e+00
1.00238889e+00
1.00252455e+00
1.00266064e+00
1.00279692e+00
1.00293314e+00
1.00306905e+00
1.00320441e+00
1.00333901e+00
1.00347261e+00
1.00360502e+00
1.00373604e+00
1.00386550e+00
1.00399324e+00
1.00411909e+00
1.00424292e+00
1.00436459e+00
1.00448398e+00
1.00460097e+00
1.00471544e+00
1.00482728e+00
1.00493637e+00
1.00504261e+00
1.00514589e+00
1.00524609e+00
1.00534309e+00
1.00543679e+00
1.00552707e+00
1.00561383e+00
1.00569695e+00
1.00577634e+00
1.00585192e+00
1.00592359e+00
1.00599129e+00
1.00605499e+00
1.00611465e+00
1.00617024e+00
1.00622180e+00
1.00626937e+00
1.00631298e+00
1.00635271e+00
1.00638875e+00
1.00642115e+00
1.00644998e+00
1.00647552e+00
1.00649817e+00
1.00651761e+00
1.00653411e+00
1.00654844e+00
1.00656090e+00
1.00656974e+00
1.00657672e+00
1.00658368e+00
1.00658875e+00
1.00658494e+00
1.00658598e+00
9.97523097e-01
9.97523805e-01
9.97525283e-01
9.97527554e-01
9.97530609e-01
9.97534405e-01
9.97539381e-01
9.97545623e-01
9.97553114e-01
9.97561973e-01
9.97572456e-01
9.97584617e-01
9.97598558e-01
9.97614447e-01
9.97632426e-01
9.97652576e-01
9.97675025e-01
9.97699882e-01
9.97727235e-01
9.97757166e-01
9.97789744e-01
9.97825013e-01
9.97863014e-01
9.97903770e-01
9.97947271e-01
9.97993497e-01
9.98042424e-01
9.98093994e-01
9.98148129e-01
9.98204750e-01
9.98263763e-01
9.98325048e-01
9.98388487e-01
9.98453956e-01
9.98521326e-01
9.98590459e-01
9.98661231e-01
9.98733519e-01
9.98807208e-01
9.98882196e-01
9.98958396e-01
9.99035741e-01
9.99114178e-01
9.99193679e-01
9.99274238e-01
9.99355869e-01
9.99438609e-01
9.99522516e-01
9.99607668e-01
9.99694158e-01
9.99782094e-01
9.99871598e-01
9.99962794e-01
1.00005581e+00
1.00015079e+00
1.00024784e+00
1.00034709e+00
1.00044864e+00
1.00055258e+00
1.00065898e+00
1.00076789e+00
1.00087934e+00
1.00099333e+00
1.00110982e+00
1.00122877e+00
1.00135010e+00
1.00147370e+00
1.00159943e+00
1.00172715e+00
1.00185667e+00
1.00198780e+00
1.00212032e+00
1.00225401e+00
1.00238863e+00
1.00252393e+00
1.00265966e+00
1.00279558e+00
1.00293144e+00
1.00306698e+00
1.00320199e+00
1.00333623e+00
1.00346948e+00
1.00360155e+00
1.00373225e+00
1.00386139e+00
1.00398882e+00
1.00411439e+00
1.00423794e+00
1.00435936e+00
1.00447850e+00
1.00459527e+00
1.00470954e+00
1.00482119e+00
1.00493013e+00
1.00503623e+00
1.00513940e+00
1.00523951e+00
1.00533645e+00
1.00543012e+00
1.00552040e+00
1.00560718e+00
1.00569037e+00
1.00576986e+00
1.00584554e+00
1.00591737e+00
1.00598528e+00
1.00604920e+00
1.00610909e+00
1.00616499e+00
1.00621689e+00
1.00626475e+00
1.00630872e+00
1.00634895e+00
1.00638534e+00
1.00641797e+00
1.00644743e+00
1.00647367e+00
1.00649622e+00
1.00651589e+00
1.00653385e+00
1.00654847e+00
1.00655924e+00
1.00656984e+00
1.00658011e+00
1.00658337e+00
1.00658442e+00
1.00659256e+00
1.00659579e+00
9.97522314e-01
9.97523103e-01
9.97524748e-01
9.97527077e-01
9.97530125e-01
9.97534124e-01
9.97539214e-01
9.97545523e-01
9.97553127e-01
9.97562172e-01
9.97572779e-01
9.97585078e-01
9.97599197e-01
9.97615278e-01
9.97633436e-01
9.97653792e-01
9.97676465e-01
9.97701558e-01
9.97729159e-01
9.97759350e-01
9.97792201e-01
9.97827758e-01
9.97866051e-01
9.97907101e-01
9.97950905e-01
9.97997438e-01
9.98046664e-01
9.98098526e-01
9.98152953e-01
9.98209853e-01
9.98269126e-01
9.98330660e-01
9.98394332e-01
9.98460013e-01
9.98527571e-01
9.98596873e-01
9.98667790e-01
9.98740199e-01
9.98813985e-01
9.98889048e-01
9.98965299e-01
9.99042672e-01
9.99121116e-01
9.99200604e-01
9.99281130e-01
9.99362709e-01
9.99445381e-01
9.99529203e-01
9.99614255e-01
9.99700630e-01
9.99788439e-01
9.99877801e-01
9.99968843e-01
1.00006170e+00
1.00015649e+00
1.00025335e+00
1.00035240e+00
1.00045374e+00
1.00055745e+00
1.00066361e+00
1.00077227e+00
1.00088346e+00
1.00099717e+00
1.00111337e+00
1.00123203e+00
1.00135304e+00
1.00147632e+00
1.00160172e+00
1.00172909e+00
1.00185826e+00
1.00198903e+00
1.00212119e+00
1.00225451e+00
1.00238875e+00
1.00252367e+00
1.00265902e+00
1.00279456e+00
1.00293004e+00
1.00306521e+00
1.00319985e+00
1.00333373e+00
1.00346663e+00
1.00359836e+00
1.00372872e+00
1.00385754e+00
1.00398467e+00
1.00410994e+00
1.00423321e+00
1.00435436e+00
1.00447326e+00
1.00458980e+00
1.00470385e+00
1.00481531e+00
1.00492406e+00
1.00503001e+00
1.00513304e+00
1.00523303e+00
1.00532988e+00
1.00542349e+00
1.00551373e+00
1.00560050e+00
1.00568370e+00
1.00576323e+00
1.00583901e+00
1.00591095e+00
1.00597900e+00
1.00604311e+00
1.00610324e+00
1.00615938e+00
1.00621155e+00
1.00625979e+00
1.00630412e+00
1.00634463e+00
1.00638146e+00
1.00641468e+00
1.00644442e+00
1.00647090e+00
1.00649427e+00
1.00651459e+00
1.00653217e+00
1.00654733e+00
1.00655984e+00
1.00656998e+00
1.00657846e+00
1.00658491e+00
1.00658866e+00
1.00659281e+00
1.00659382e+00
9.97521390e-01
9.97522039e-01
9.97523673e-01
9.97525927e-01
9.97529012e-01
9.97533164e-01
9.97538344e-01
9.97544681e-01
9.97552409e-01
9.97561617e-01
9.97572345e-01
9.97584784e-01
9.97599097e-01
9.97615371e-01
9.97633730e-01
9.97654322e-01
9.97677250e-01
9.97702612e-01
9.97730509e-01
9.97761015e-01
9.97794192e-01
9.97830097e-01
9.97868756e-01
9.97910174e-01
9.97954355e-01
9.98001278e-01
9.98050888e-01
9.98103131e-01
9.98157936e-01
9.98215205e-01
9.98274831e-01
9.98336701e-01
9.98400694e-01
9.98466670e-01
9.98534498e-01
9.98604047e-01
9.98675183e-01
9.98747781e-01
9.98821727e-01
9.98896922e-01
9.98973276e-01
9.99050722e-01
9.99129213e-01
9.99208722e-01
9.99289241e-01
9.99370791e-01
9.99453410e-01
9.99537157e-01
9.99622113e-01
9.99708374e-01
9.99796050e-01
9.99885262e-01
9.99976137e-01
1.00006881e+00
1.00016340e+00
1.00026005e+00
1.00035887e+00
1.00045996e+00
1.00056342e+00
1.00066931e+00
1.00077769e+00
1.00088857e+00
1.00100197e+00
1.00111785e+00
1.00123617e+00
1.00135683e+00
1.00147975e+00
1.00160477e+00
1.00173177e+00
1.00186054e+00
1.00199091e+00
1.00212266e+00
1.00225557e+00
1.00238939e+00
1.00252390e+00
1.00265883e+00
1.00279395e+00
1.00292901e+00
1.00306378e+00
1.00319801e+00
1.00333149e+00
1.00346400e+00
1.00359535e+00
1.00372535e+00
1.00385382e+00
1.00398060e+00
1.00410554e+00
1.00422850e+00
1.00434935e+00
1.00446797e+00
1.00458423e+00
1.00469803e+00
1.00480926e+00
1.00491780e+00
1.00502355e+00
1.00512640e+00
1.00522624e+00
1.00532296e+00
1.00541646e+00
1.00550662e+00
1.00559335e+00
1.00567654e+00
1.00575609e+00
1.00583193e+00
1.00590397e+00
1.00597215e+00
1.00603644e+00
1.00609680e+00
1.00615319e+00
1.00620564e+00
1.00625424e+00
1.00629897e+00
1.00633981e+00
1.00637707e+00
1.00641090e+00
1.00644104e+00
1.00646776e+00
1.00649190e+00
1.00651303e+00
1.00653041e+00
1.00654578e+00
1.00656010e+00
1.00657046e+00
1.00657704e+00
1.00658542e+00
1.00659237e+00
1.00659282e+00
1.00659352e+00
9.97520085e-01
9.97520425e-01
9.97521938e-01
9.97524227e-01
9.97527365e-01
9.97531451e-01
9.97536685e-01
9.97543168e-01
9.97550988e-01
9.97560258e-01
9.97571143e-01
9.97583766e-01
9.97598245e-01
9.97614711e-01
9.97633314e-01
9.97654166e-01
9.97677375e-01
9.97703046e-01
9.97731281e-01
9.97762154e-01
9.97795721e-01
9.97832032e-01
9.97871119e-01
9.97912989e-01
9.97957629e-01
9.98005014e-01
9.98055099e-01
9.98107818e-01
9.98163088e-01
9.98220815e-01
9.98280891e-01
9.98343192e-01
9.98407590e-01
9.98473951e-01
9.98542139e-01
9.98612013e-01
9.98683444e-01
9.98756304e-01
9.98830479e-01
9.98905864e-01
9.98982375e-01
9.99059943e-01
9.99138521e-01
9.99218083e-01
9.99298624e-01
9.99380164e-01
9.99462743e-01
9.99546423e-01
9.99631286e-01
9.99717428e-01
9.99804961e-01
9.99894008e-01
9.99984697e-01
1.00007716e+00
1.00017153e+00
1.00026794e+00
1.00036650e+00
1.00046731e+00
1.00057048e+00
1.00067606e+00
1.00078412e+00
1.00089466e+00
1.00100771e+00
1.00112323e+00
1.00124116e+00
1.00136144e+00
1.00148395e+00
1.00160856e+00
1.00173513e+00
1.00186347e+00
1.00199340e+00
1.00212470e+00
1.00225715e+00
1.00239052e+00
1.00252457e+00
1.00265904e+00
1.00279370e+00
1.00292831e+00
1.00306262e+00
1.00319641e+00
1.00332945e+00
1.00346154e+00
1.00359247e+00
1.00372206e+00
1.00385014e+00
1.00397654e+00
1.00410111e+00
1.00422372e+00
1.00434424e+00
1.00446253e+00
1.00457849e+00
1.00469200e+00
1.00480296e+00
1.00491124e+00
1.00501676e+00
1.00511940e+00
1.00521905e+00
1.00531562e+00
1.00540898e+00
1.00549904e+00
1.00558569e+00
1.00566885e+00
1.00574841e+00
1.00582428e+00
1.00589641e+00
1.00596473e+00
1.00602918e+00
1.00608975e+00
1.00614643e+00
1.00619921e+00
1.00624810e+00
1.00629322e+00
1.00633463e+00
1.00637228e+00
1.00640640e+00
1.00643728e+00
1.00646477e+00
1.00648891e+00
1.00651039e+00
1.00652931e+00
1.00654504e+00
1.00655815e+00
1.00656989e+00
1.00657923e+00
1.00658575e+00
1.00659083e+00
1.00659433e+00
1.00659689e+00
9.97518243e-01
9.97518454e-01
9.97519670e-01
9.97521855e-01
9.97525001e-01
9.97529091e-01
9.97534361e-01
9.97540914e-01
9.97548806e-01
9.97558177e-01
9.97569211e-01
9.97581991e-01
9.97596643e-01
9.97613336e-01
9.97632193e-01
9.97653316e-01
9.97676838e-01
9.97702865e-01
9.97731477e-01
9.97762757e-01
9.97796773e-01
9.97833556e-01
9.97873135e-01
9.97915524e-01
9.97960701e-01
9.98008632e-01
9.98059272e-01
9.98112552e-01
9.98168377e-01
9.98226652e-01
9.98287264e-01
9.98350084e-01
9.98414977e-01
9.98481808e-01
9.98550435e-01
9.98620715e-01
9.98692515e-01
9.98765708e-01
9.98840174e-01
9.98915810e-01
9.98992531e-01
9.99070269e-01
9.99148975e-01
9.99228625e-01
9.99309216e-01
9.99390769e-01
9.99473326e-01
9.99556950e-01
9.99641724e-01
9.99727747e-01
9.99815133e-01
9.99904006e-01
9.99994497e-01
1.00008674e+00
1.00018086e+00
1.00027700e+00
1.00037528e+00
1.00047579e+00
1.00057863e+00
1.00068387e+00
1.00079156e+00
1.00090174e+00
1.00101439e+00
1.00112950e+00
1.00124702e+00
1.00136686e+00
1.00148892e+00
1.00161308e+00
1.00173918e+00
1.00186705e+00
1.00199649e+00
1.00212729e+00
1.00225925e+00
1.00239211e+00
1.00252565e+00
1.00265962e+00
1.00279378e+00
1.00292788e+00
1.00306170e+00
1.00319500e+00
1.00332756e+00
1.00345918e+00
1.00358965e+00
1.00371880e+00
1.00384644e+00
1.00397242e+00
1.00409659e+00
1.00421881e+00
1.00433895e+00
1.00445689e+00
1.00457250e+00
1.00468569e+00
1.00479634e+00
1.00490434e+00
1.00500959e+00
1.00511198e+00
1.00521141e+00
1.00530778e+00
1.00540098e+00
1.00549091e+00
1.00557747e+00
1.00566056e+00
1.00574011e+00
1.00581601e+00
1.00588821e+00
1.00595666e+00
1.00602128e+00
1.00608206e+00
1.00613901e+00
1.00619214e+00
1.00624140e+00
1.00628689e+00
1.00632878e+00
1.00636701e+00
1.00640156e+00
1.00643289e+00
1.00646117e+00
1.00648593e+00
1.00650758e+00
1.00652720e+00
1.00654400e+00
1.00655717e+00
1.00656891e+00
1.00657960e+00
1.00658623e+00
1.00659081e+00
1.00659601e+00
1.00659815e+00
9.97515636e-01
9.97515641e-01
9.97516809e-01
9.97518889e-01
9.97521913e-01
9.97526036e-01
9.97531332e-01
9.97537887e-01
9.97545859e-01
9.97555365e-01
9.97566506e-01
9.97579427e-01
9.97594290e-01
9.97611217e-01
9.97630326e-01
9.97651751e-01
9.97675618e-01
9.97702025e-01
9.97731058e-01
9.97762794e-01
9.97797301e-01
9.97834616e-01
9.97874756e-01
9.97917723e-01
9.97963507e-01
9.98012067e-01
9.98063340e-01
9.98117255e-01
9.98173723e-01
9.98232634e-01
9.98293864e-01
9.98357286e-01
9.98422763e-01
9.98490145e-01
9.98559290e-01
9.98630055e-01
9.98702300e-01
9.98775892e-01
9.98850715e-01
9.98926664e-01
9.99003650e-01
9.99081605e-01
9.99160483e-01
9.99240260e-01
9.99320934e-01
9.99402526e-01
9.99485081e-01
9.99568664e-01
9.99653359e-01
9.99739269e-01
9.99826508e-01
9.99915203e-01
1.00000549e+00
1.00009749e+00
1.00019136e+00
1.00028721e+00
1.00038517e+00
1.00048535e+00
1.00058784e+00
1.00069271e+00
1.00080002e+00
1.00090978e+00
1.00102201e+00
1.00113668e+00
1.00125374e+00
1.00137310e+00
1.00149468e+00
1.00161834e+00
1.00174393e+00
1.00187127e+00
1.00200018e+00
1.00213045e+00
1.00226186e+00
1.00239417e+00
1.00252716e+00
1.00266058e+00
1.00279419e+00
1.00292775e+00
1.00306103e+00
1.00319380e+00
1.00332584e+00
1.00345695e+00
1.00358692e+00
1.00371558e+00
1.00384275e+00
1.00396827e+00
1.00409200e+00
1.00421379e+00
1.00433352e+00
1.00445106e+00
1.00456630e+00
1.00467912e+00
1.00478943e+00
1.00489711e+00
1.00500206e+00
1.00510418e+00
1.00520336e+00
1.00529951e+00
1.00539252e+00
1.00548229e+00
1.00556874e+00
1.00565175e+00
1.00573126e+00
1.00580718e+00
1.00587945e+00
1.00594799e+00
1.00601280e+00
1.00607383e+00
1.00613103e+00
1.00618447e+00
1.00623419e+00
1.00628013e+00
1.00632236e+00
1.00636115e+00
1.00639649e+00
1.00642822e+00
1.00645677e+00
1.00648259e+00
1.00650517e+00
1.00652449e+00
1.00654175e+00
1.00655685e+00
1.00656861e+00
1.00657810e+00
1.00658647e+00
1.00659261e+00
1.00659587e+00
1.00659733e+00
9.97512388e-01
9.97512188e-01
9.97513189e-01
9.97515160e-01
9.97518108e-01
9.97522214e-01
9.97527510e-01
9.97534100e-01
9.97542140e-01
9.97551733e-01
9.97562992e-01
9.97576087e-01
9.97591152e-01
9.97608302e-01
9.97627689e-01
9.97649450e-01
9.97673681e-01
9.97700490e-01
9.97729985e-01
9.97762229e-01
9.97797272e-01
9.97835165e-01
9.97875926e-01
9.97919542e-01
9.97965997e-01
9.98015251e-01
9.98067235e-01
9.98121867e-01
9.98179054e-01
9.98238678e-01
9.98300611e-01
9.98364718e-01
9.98430855e-01
9.98498869e-01
9.98568611e-01
9.98639934e-01
9.98712693e-01
9.98786755e-01
9.98861999e-01
9.98938318e-01
9.99015624e-01
9.99093848e-01
9.99172944e-01
9.99252887e-01
9.99333678e-01
9.99415339e-01
9.99497918e-01
9.99581480e-01
9.99666113e-01
9.99751920e-01
9.99839019e-01
9.99927539e-01
1.00001761e+00
1.00010938e+00
1.00020298e+00
1.00029853e+00
1.00039617e+00
1.00049600e+00
1.00059812e+00
1.00070260e+00
1.00080949e+00
1.00091881e+00
1.00103059e+00
1.00114478e+00
1.00126134e+00
1.00138020e+00
1.00150125e+00
1.00162437e+00
1.00174940e+00
1.00187618e+00
1.00200451e+00
1.00213420e+00
1.00226501e+00
1.00239673e+00
1.00252912e+00
1.00266194e+00
1.00279496e+00
1.00292793e+00
1.00306062e+00
1.00319281e+00
1.00332428e+00
1.00345482e+00
1.00358425e+00
1.00371238e+00
1.00383903e+00
1.00396405e+00
1.00408730e+00
1.00420862e+00
1.00432789e+00
1.00444500e+00
1.00455982e+00
1.00467225e+00
1.00478218e+00
1.00488950e+00
1.00499412e+00
1.00509593e+00
1.00519483e+00
1.00529073e+00
1.00538352e+00
1.00547311e+00
1.00555941e+00
1.00564233e+00
1.00572179e+00
1.00579772e+00
1.00587005e+00
1.00593871e+00
1.00600367e+00
1.00606494e+00
1.00612246e+00
1.00617621e+00
1.00622631e+00
1.00627277e+00
1.00631554e+00
1.00635475e+00
1.00639069e+00
1.00642323e+00
1.00645231e+00
1.00647850e+00
1.00650200e+00
1.00652220e+00
1.00653959e+00
1.00655515e+00
1.00656795e+00
1.00657773e+00
1.00658622e+00
1.00659281e+00
1.00659622e+00
1.00659812e+00
9.97508281e-01
9.97507875e-01
9.97508735e-01
9.97510645e-01
9.97513555e-01
9.97517579e-01
9.97522855e-01
9.97529505e-01
9.97537595e-01
9.97547257e-01
9.97558655e-01
9.97571919e-01
9.97587175e-01
9.97604575e-01
9.97624263e-01
9.97646359e-01
9.97670980e-01
9.97698235e-01
9.97728217e-01
9.97761000e-01
9.97796635e-01
9.97835156e-01
9.97876584e-01
9.97920912e-01
9.97968104e-01
9.98018114e-01
9.98070878e-01
9.98126304e-01
9.98184281e-01
9.98244693e-01
9.98307409e-01
9.98372278e-01
9.98439150e-01
9.98507872e-01
9.98578288e-01
9.98650240e-01
9.98723583e-01
9.98798183e-01
9.98873912e-01
9.98950662e-01
9.99028345e-01
9.99106890e-01
9.99186251e-01
9.99266404e-01
9.99347352e-01
9.99429117e-01
9.99511749e-01
9.99595316e-01
9.99679908e-01
9.99765631e-01
9.99852604e-01
9.99940958e-01
1.00003083e+00
1.00012236e+00
1.00021569e+00
1.00031094e+00
1.00040825e+00
1.00050772e+00
1.00060945e+00
1.00071352e+00
1.00081997e+00
1.00092884e+00
1.00104013e+00
1.00115382e+00
1.00126985e+00
1.00138817e+00
1.00150866e+00
1.00163120e+00
1.00175563e+00
1.00188180e+00
1.00200951e+00
1.00213857e+00
1.00226874e+00
1.00239982e+00
1.00253156e+00
1.00266374e+00
1.00279610e+00
1.00292843e+00
1.00306048e+00
1.00319204e+00
1.00332290e+00
1.00345284e+00
1.00358168e+00
1.00370923e+00
1.00383532e+00
1.00395980e+00
1.00408251e+00
1.00420333e+00
1.00432211e+00
1.00443874e+00
1.00455311e+00
1.00466511e+00
1.00477462e+00
1.00488156e+00
1.00498581e+00
1.00508729e+00
1.00518588e+00
1.00528150e+00
1.00537405e+00
1.00546344e+00
1.00554959e+00
1.00563240e+00
1.00571180e+00
1.00578772e+00
1.00586009e+00
1.00592889e+00
1.00599402e+00
1.00605549e+00
1.00611333e+00
1.00616750e+00
1.00621795e+00
1.00626484e+00
1.00630827e+00
1.00634808e+00
1.00638439e+00
1.00641764e+00
1.00644771e+00
1.00647431e+00
1.00649809e+00
1.00651950e+00
1.00653777e+00
1.00655302e+00
1.00656650e+00
1.00657777e+00
1.00658597e+00
1.00659203e+00
1.00659665e+00
1.00659909e+00
9.97503292e-01
9.97502784e-01
9.97503478e-01
9.97505253e-01
9.97508104e-01
9.97512106e-01
9.97517379e-01
9.97524037e-01
9.97532172e-01
9.97541935e-01
9.97553464e-01
9.97566881e-01
9.97582344e-01
9.97600014e-01
9.97620009e-01
9.97642454e-01
9.97667492e-01
9.97695223e-01
9.97725724e-01
9.97759077e-01
9.97795344e-01
9.97834545e-01
9.97876690e-01
9.97921776e-01
9.97969765e-01
9.98020599e-01
9.98074203e-01
9.98130484e-01
9.98189326e-01
9.98250599e-01
9.98314164e-01
9.98379867e-01
9.98447550e-01
9.98517052e-01
9.98588208e-01
9.98660861e-01
9.98734858e-01
9.98810059e-01
9.98886336e-01
9.98963577e-01
9.99041693e-01
9.99120612e-01
9.99200287e-01
9.99280698e-01
9.99361844e-01
9.99443753e-01
9.99526473e-01
9.99610077e-01
9.99694656e-01
9.99780318e-01
9.99867186e-01
9.99955391e-01
1.00004507e+00
1.00013638e+00
1.00022944e+00
1.00032440e+00
1.00042137e+00
1.00052048e+00
1.00062182e+00
1.00072546e+00
1.00083147e+00
1.00093986e+00
1.00105064e+00
1.00116380e+00
1.00127929e+00
1.00139703e+00
1.00151692e+00
1.00163884e+00
1.00176264e+00
1.00188816e+00
1.00201521e+00
1.00214358e+00
1.00227307e+00
1.00240345e+00
1.00253450e+00
1.00266597e+00
1.00279764e+00
1.00292927e+00
1.00306063e+00
1.00319151e+00
1.00332170e+00
1.00345098e+00
1.00357918e+00
1.00370610e+00
1.00383158e+00
1.00395547e+00
1.00407761e+00
1.00419787e+00
1.00431612e+00
1.00443224e+00
1.00454611e+00
1.00465764e+00
1.00476671e+00
1.00487322e+00
1.00497707e+00
1.00507818e+00
1.00517644e+00
1.00527176e+00
1.00536405e+00
1.00545322e+00
1.00553919e+00
1.00562187e+00
1.00570121e+00
1.00577711e+00
1.00584953e+00
1.00591843e+00
1.00598376e+00
1.00604548e+00
1.00610359e+00
1.00615815e+00
1.00620910e+00
1.00625644e+00
1.00630033e+00
1.00634086e+00
1.00637789e+00
1.00641158e+00
1.00644231e+00
1.00646993e+00
1.00649430e+00
1.00651600e+00
1.00653519e+00
1.00655137e+00
1.00656501e+00
1.00657657e+00
1.00658550e+00
1.00659209e+00
1.00659680e+00
1.00659898e+00
9.97497361e-01
9.97496688e-01
9.97497320e-01
9.97499012e-01
9.97501771e-01
9.97505745e-01
9.97511013e-01
9.97517677e-01
9.97525872e-01
9.97535730e-01
9.97547373e-01
9.97560963e-01
9.97576653e-01
9.97594582e-01
9.97614893e-01
9.97637725e-01
9.97663195e-01
9.97691411e-01
9.97722468e-01
9.97756433e-01
9.97793358e-01
9.97833277e-01
9.97876191e-01
9.97922082e-01
9.97970916e-01
9.98022630e-01
9.98077135e-01
9.98134330e-01
9.98194098e-01
9.98256298e-01
9.98320777e-01
9.98387381e-01
9.98455943e-01
9.98526290e-01
9.98598255e-01
9.98671674e-01
9.98746390e-01
9.98822256e-01
9.98899141e-01
9.98976934e-01
9.99055540e-01
9.99134887e-01
9.99214930e-01
9.99295647e-01
9.99377038e-01
9.99459133e-01
9.99541983e-01
9.99625661e-01
9.99710261e-01
9.99795893e-01
9.99882683e-01
9.99970765e-01
1.00006028e+00
1.00015137e+00
1.00024419e+00
1.00033886e+00
1.00043551e+00
1.00053426e+00
1.00063521e+00
1.00073843e+00
1.00084397e+00
1.00095187e+00
1.00106214e+00
1.00117475e+00
1.00128966e+00
1.00140680e+00
1.00152606e+00
1.00164733e+00
1.00177046e+00
1.00189528e+00
1.00202162e+00
1.00214927e+00
1.00227802e+00
1.00240766e+00
1.00253795e+00
1.00266867e+00
1.00279959e+00
1.00293047e+00
1.00306109e+00
1.00319124e+00
1.00332071e+00
1.00344928e+00
1.00357679e+00
1.00370303e+00
1.00382786e+00
1.00395111e+00
1.00407263e+00
1.00419229e+00
1.00430997e+00
1.00442554e+00
1.00453888e+00
1.00464990e+00
1.00475849e+00
1.00486455e+00
1.00496798e+00
1.00506869e+00
1.00516659e+00
1.00526159e+00
1.00535359e+00
1.00544253e+00
1.00552832e+00
1.00561087e+00
1.00569012e+00
1.00576602e+00
1.00583849e+00
1.00590748e+00
1.00597299e+00
1.00603500e+00
1.00609343e+00
1.00614831e+00
1.00619975e+00
1.00624768e+00
1.00629205e+00
1.00633311e+00
1.00637096e+00
1.00640539e+00
1.00643656e+00
1.00646495e+00
1.00649035e+00
1.00651249e+00
1.00653208e+00
1.00654933e+00
1.00656357e+00
1.00657511e+00
1.00658474e+00
1.00659201e+00
1.00659639e+00
1.00659863e+00
9.97490536e-01
9.97489730e-01
9.97490215e-01
9.97491823e-01
9.97494530e-01
9.97498468e-01
9.97503722e-01
9.97510414e-01
9.97518669e-01
9.97528609e-01
9.97540380e-01
9.97554155e-01
9.97570071e-01
9.97588269e-01
9.97608913e-01
9.97632143e-01
9.97658064e-01
9.97686790e-01
9.97718425e-01
9.97753031e-01
9.97790651e-01
9.97831318e-01
9.97875038e-01
9.97921783e-01
9.97971506e-01
9.98024143e-01
9.98079601e-01
9.98137768e-01
9.98198514e-01
9.98261695e-01
9.98327153e-01
9.98394718e-01
9.98464217e-01
9.98535472e-01
9.98608309e-01
9.98682556e-01
9.98758050e-01
9.98834642e-01
9.98912197e-01
9.98990598e-01
9.99069750e-01
9.99149582e-01
9.99230046e-01
9.99311119e-01
9.99392806e-01
9.99475135e-01
9.99558159e-01
9.99641953e-01
9.99726615e-01
9.99812256e-01
9.99899003e-01
9.99986994e-01
1.00007637e+00
1.00016728e+00
1.00025987e+00
1.00035427e+00
1.00045062e+00
1.00054902e+00
1.00064958e+00
1.00075238e+00
1.00085746e+00
1.00096487e+00
1.00107461e+00
1.00118666e+00
1.00130097e+00
1.00141748e+00
1.00153609e+00
1.00165667e+00
1.00177909e+00
1.00190318e+00
1.00202877e+00
1.00215565e+00
1.00228362e+00
1.00241246e+00
1.00254195e+00
1.00267186e+00
1.00280197e+00
1.00293204e+00
1.00306187e+00
1.00319123e+00
1.00331992e+00
1.00344773e+00
1.00357449e+00
1.00370001e+00
1.00382413e+00
1.00394669e+00
1.00406755e+00
1.00418657e+00
1.00430362e+00
1.00441859e+00
1.00453137e+00
1.00464184e+00
1.00474991e+00
1.00485549e+00
1.00495846e+00
1.00505875e+00
1.00515626e+00
1.00525092e+00
1.00534263e+00
1.00543131e+00
1.00551689e+00
1.00559930e+00
1.00567847e+00
1.00575434e+00
1.00582686e+00
1.00589599e+00
1.00596167e+00
1.00602391e+00
1.00608272e+00
1.00613801e+00
1.00618984e+00
1.00623831e+00
1.00628338e+00
1.00632500e+00
1.00636341e+00
1.00639870e+00
1.00643070e+00
1.00645956e+00
1.00648566e+00
1.00650884e+00
1.00652900e+00
1.00654657e+00
1.00656160e+00
1.00657389e+00
1.00658369e+00
1.00659112e+00
1.00659607e+00
1.00659866e+00
9.97482693e-01
9.97481766e-01
9.97482157e-01
9.97483700e-01
9.97486359e-01
9.97490255e-01
9.97495505e-01
9.97502231e-01
9.97510536e-01
9.97520570e-01
9.97532488e-01
9.97546438e-01
9.97562578e-01
9.97581074e-01
9.97602065e-01
9.97625689e-01
9.97652081e-01
9.97681348e-01
9.97713574e-01
9.97748837e-01
9.97787186e-01
9.97828636e-01
9.97873188e-01
9.97920820e-01
9.97971475e-01
9.98025076e-01
9.98081529e-01
9.98140714e-01
9.98202488e-01
9.98266700e-01
9.98333187e-01
9.98401766e-01
9.98472256e-01
9.98544476e-01
9.98618241e-01
9.98693372e-01
9.98769702e-01
9.98847078e-01
9.98925359e-01
9.99004425e-01
9.99084182e-01
9.99164554e-01
9.99245493e-01
9.99326977e-01
9.99409012e-01
9.99491626e-01
9.99574874e-01
9.99658834e-01
9.99743603e-01
9.99829297e-01
9.99916044e-01
1.00000398e+00
1.00009326e+00
1.00018402e+00
1.00027641e+00
1.00037058e+00
1.00046664e+00
1.00056471e+00
1.00066490e+00
1.00076728e+00
1.00087191e+00
1.00097883e+00
1.00108803e+00
1.00119951e+00
1.00131321e+00
1.00142908e+00
1.00154700e+00
1.00166688e+00
1.00178855e+00
1.00191187e+00
1.00203667e+00
1.00216273e+00
1.00228987e+00
1.00241787e+00
1.00254650e+00
1.00267556e+00
1.00280480e+00
1.00293402e+00
1.00306299e+00
1.00319151e+00
1.00331937e+00
1.00344637e+00
1.00357233e+00
1.00369707e+00
1.00382043e+00
1.00394226e+00
1.00406241e+00
1.00418074e+00
1.00429714e+00
1.00441148e+00
1.00452365e+00
1.00463355e+00
1.00474107e+00
1.00484613e+00
1.00494862e+00
1.00504847e+00
1.00514558e+00
1.00523987e+00
1.00533127e+00
1.00541969e+00
1.00550506e+00
1.00558732e+00
1.00566641e+00
1.00574225e+00
1.00581482e+00
1.00588408e+00
1.00594997e+00
1.00601245e+00
1.00607158e+00
1.00612733e+00
1.00617964e+00
1.00622858e+00
1.00627427e+00
1.00631664e+00
1.00635564e+00
1.00639155e+00
1.00642445e+00
1.00645409e+00
1.00648071e+00
1.00650467e+00
1.00652571e+00
1.00654374e+00
1.00655927e+00
1.00657230e+00
1.00658246e+00
1.00659007e+00
1.00659544e+00
1.00659822e+00
9.97473870e-01
9.97472863e-01
9.97473151e-01
9.97474608e-01
9.97477220e-01
9.97481102e-01
9.97486359e-01
9.97493112e-01
9.97501476e-01
9.97511615e-01
9.97523678e-01
9.97537813e-01
9.97554192e-01
9.97572986e-01
9.97594332e-01
9.97618371e-01
9.97645244e-01
9.97675061e-01
9.97707903e-01
9.97743844e-01
9.97782936e-01
9.97825195e-01
9.97870609e-01
9.97919153e-01
9.97970769e-01
9.98025372e-01
9.98082854e-01
9.98143090e-01
9.98205934e-01
9.98271222e-01
9.98338778e-01
9.98408417e-01
9.98479950e-01
9.98553182e-01
9.98627923e-01
9.98703991e-01
9.98781211e-01
9.98859423e-01
9.98938483e-01
9.99018271e-01
9.99098687e-01
9.99179653e-01
9.99261123e-01
9.99343075e-01
9.99425512e-01
9.99508465e-01
9.99591992e-01
9.99676171e-01
9.99761100e-01
9.99846897e-01
9.99933692e-01
1.00002163e+00
1.00011085e+00
1.00020150e+00
1.00029374e+00
1.00038769e+00
1.00048350e+00
1.00058127e+00
1.00068111e+00
1.00078310e+00
1.00088729e+00
1.00099372e+00
1.00110239e+00
1.00121329e+00
1.00132637e+00
1.00144157e+00
1.00155880e+00
1.00167794e+00
1.00179884e+00
1.00192136e+00
1.00204532e+00
1.00217052e+00
1.00229679e+00
1.00242389e+00
1.00255162e+00
1.00267976e+00
1.00280809e+00
1.00293640e+00
1.00306446e+00
1.00319208e+00
1.00331905e+00
1.00344518e+00
1.00357029e+00
1.00369420e+00
1.00381675e+00
1.00393780e+00
1.00405719e+00
1.00417479e+00
1.00429048e+00
1.00440415e+00
1.00451568e+00
1.00462496e+00
1.00473191e+00
1.00483642e+00
1.00493840e+00
1.00503778e+00
1.00513447e+00
1.00522838e+00
1.00531944e+00
1.00540759e+00
1.00549275e+00
1.00557485e+00
1.00565384e+00
1.00572968e+00
1.00580229e+00
1.00587165e+00
1.00593775e+00
1.00600054e+00
1.00605998e+00
1.00611612e+00
1.00616899e+00
1.00621849e+00
1.00626469e+00
1.00630774e+00
1.00634757e+00
1.00638412e+00
1.00641763e+00
1.00644820e+00
1.00647564e+00
1.00650010e+00
1.00652185e+00
1.00654075e+00
1.00655677e+00
1.00657012e+00
1.00658088e+00
1.00658900e+00
1.00659449e+00
1.00659730e+00
9.97464046e-01
9.97462934e-01
9.97463161e-01
9.97464570e-01
9.97467142e-01
9.97471009e-01
9.97476272e-01
9.97483061e-01
9.97491505e-01
9.97501750e-01
9.97513951e-01
9.97528290e-01
9.97544923e-01
9.97564009e-01
9.97585717e-01
9.97610193e-01
9.97637555e-01
9.97667924e-01
9.97701398e-01
9.97738039e-01
9.97777886e-01
9.97820965e-01
9.97867266e-01
9.97916744e-01
9.97969340e-01
9.98024968e-01
9.98083508e-01
9.98144826e-01
9.98208770e-01
9.98275166e-01
9.98343828e-01
9.98414565e-01
9.98487178e-01
9.98561464e-01
9.98637227e-01
9.98714277e-01
9.98792433e-01
9.98871530e-01
9.98951422e-01
9.99031984e-01
9.99113111e-01
9.99194728e-01
9.99276785e-01
9.99359260e-01
9.99442157e-01
9.99525508e-01
9.99609371e-01
9.99693825e-01
9.99778972e-01
9.99864928e-01
9.99951827e-01
1.00003981e+00
1.00012902e+00
1.00021962e+00
1.00031174e+00
1.00040554e+00
1.00050113e+00
1.00059863e+00
1.00069816e+00
1.00079977e+00
1.00090354e+00
1.00100949e+00
1.00111764e+00
1.00122796e+00
1.00134042e+00