# vtk DataFile Version 2.0
LBM Flow Field - Timestep 2080
ASCII
DATASET STRUCTURED_POINTS
DIMENSIONS 128 128 1
ORIGIN 0.0 0.0 0.0
SPACING 1.0 1.0 1.0
POINT_DATA 16384
SCALARS density double 1
LOOKUP_TABLE default
1.00016631e+00
1.00016340e+00
1.00015841e+00
1.00018207e+00
1.00020727e+00
1.00022447e+00
1.00025098e+00
1.00028611e+00
1.00031817e+00
1.00035078e+00
1.00038794e+00
1.00042603e+00
1.00046259e+00
1.00050021e+00
1.00053853e+00
1.00057640e+00
1.00061382e+00
1.00065158e+00
1.00068920e+00
1.00072672e+00
1.00076419e+00
1.00080169e+00
1.00083904e+00
1.00087621e+00
1.00091296e+00
1.00094912e+00
1.00098443e+00
1.00101861e+00
1.00105128e+00
1.00108217e+00
1.00111094e+00
1.00113724e+00
1.00116079e+00
1.00118134e+00
1.00119868e+00
1.00121263e+00
1.00122313e+00
1.00123016e+00
1.00123379e+00
1.00123418e+00
1.00123158e+00
1.00122633e+00
1.00121882e+00
1.00120954e+00
1.00119904e+00
1.00118788e+00
1.00117667e+00
1.00116601e+00
1.00115649e+00
1.00114864e+00
1.00114299e+00
1.00113995e+00
1.00113990e+00
1.00114311e+00
1.00114979e+00
1.00116003e+00
1.00117387e+00
1.00119126e+00
1.00121205e+00
1.00123604e+00
1.00126297e+00
1.00129250e+00
1.00132426e+00
1.00135781e+00
1.00139269e+00
1.00142838e+00
1.00146437e+00
1.00150009e+00
1.00153497e+00
1.00156845e+00
1.00159994e+00
1.00162890e+00
1.00165479e+00
1.00167712e+00
1.00169543e+00
1.00170934e+00
1.00171855e+00
1.00172284e+00
1.00172206e+00
1.00171620e+00
1.00170533e+00
1.00168964e+00
1.00166942e+00
1.00164503e+00
1.00161695e+00
1.00158567e+00
1.00155178e+00
1.00151585e+00
1.00147846e+00
1.00144021e+00
1.00140161e+00
1.00136319e+00
1.00132534e+00
1.00128847e+00
1.00125290e+00
1.00121886e+00
1.00118655e+00
1.00115617e+00
1.00112783e+00
1.00110163e+00
1.00107766e+00
1.00105608e+00
1.00103693e+00
1.00102033e+00
1.00100637e+00
1.00099520e+00
1.00098684e+00
1.00098145e+00
1.00097892e+00
1.00097932e+00
1.00098273e+00
1.00098893e+00
1.00099724e+00
1.00100823e+00
1.00102170e+00
1.00103612e+00
1.00105102e+00
1.00106863e+00
1.00108649e+00
1.00110134e+00
1.00111674e+00
1.00113561e+00
1.00114829e+00
1.00115463e+00
1.00116849e+00
1.00118235e+00
1.00117450e+00
1.00116987e+00
1.00016928e+00
1.00017859e+00
1.00017720e+00
1.00019356e+00
1.00021828e+00
1.00024014e+00
1.00026465e+00
1.00029697e+00
1.00032999e+00
1.00036355e+00
1.00039891e+00
1.00043647e+00
1.00047343e+00
1.00051091e+00
1.00054852e+00
1.00058643e+00
1.00062389e+00
1.00066152e+00
1.00069896e+00
1.00073651e+00
1.00077389e+00
1.00081130e+00
1.00084849e+00
1.00088550e+00
1.00092203e+00
1.00095793e+00
1.00099291e+00
1.00102671e+00
1.00105895e+00
1.00108935e+00
1.00111755e+00
1.00114326e+00
1.00116618e+00
1.00118606e+00
1.00120271e+00
1.00121600e+00
1.00122584e+00
1.00123227e+00
1.00123535e+00
1.00123528e+00
1.00123232e+00
1.00122680e+00
1.00121916e+00
1.00120986e+00
1.00119945e+00
1.00118850e+00
1.00117759e+00
1.00116731e+00
1.00115823e+00
1.00115087e+00
1.00114572e+00
1.00114318e+00
1.00114361e+00
1.00114726e+00
1.00115431e+00
1.00116486e+00
1.00117891e+00
1.00119641e+00
1.00121720e+00
1.00124108e+00
1.00126778e+00
1.00129697e+00
1.00132827e+00
1.00136126e+00
1.00139547e+00
1.00143042e+00
1.00146558e+00
1.00150041e+00
1.00153436e+00
1.00156688e+00
1.00159740e+00
1.00162539e+00
1.00165033e+00
1.00167174e+00
1.00168919e+00
1.00170231e+00
1.00171080e+00
1.00171446e+00
1.00171315e+00
1.00170686e+00
1.00169566e+00
1.00167975e+00
1.00165940e+00
1.00163498e+00
1.00160692e+00
1.00157575e+00
1.00154201e+00
1.00150627e+00
1.00146910e+00
1.00143107e+00
1.00139270e+00
1.00135449e+00
1.00131687e+00
1.00128021e+00
1.00124482e+00
1.00121096e+00
1.00117883e+00
1.00114862e+00
1.00112044e+00
1.00109441e+00
1.00107062e+00
1.00104922e+00
1.00103022e+00
1.00101378e+00
1.00099995e+00
1.00098891e+00
1.00098061e+00
1.00097525e+00
1.00097270e+00
1.00097316e+00
1.00097633e+00
1.00098227e+00
1.00099051e+00
1.00100144e+00
1.00101407e+00
1.00102820e+00
1.00104341e+00
1.00106048e+00
1.00107673e+00
1.00109238e+00
1.00110865e+00
1.00112531e+00
1.00113650e+00
1.00114668e+00
1.00116015e+00
1.00116847e+00
1.00116375e+00
1.00116894e+00
1.00017774e+00
1.00019175e+00
1.00021546e+00
1.00022229e+00
1.00023488e+00
1.00026477e+00
1.00029362e+00
1.00031876e+00
1.00035080e+00
1.00038725e+00
1.00042155e+00
1.00045654e+00
1.00049401e+00
1.00053150e+00
1.00056816e+00
1.00060538e+00
1.00064282e+00
1.00067997e+00
1.00071700e+00
1.00075415e+00
1.00079122e+00
1.00082820e+00
1.00086500e+00
1.00090152e+00
1.00093756e+00
1.00097293e+00
1.00100730e+00
1.00104040e+00
1.00107193e+00
1.00110154e+00
1.00112888e+00
1.00115367e+00
1.00117565e+00
1.00119456e+00
1.00121022e+00
1.00122253e+00
1.00123145e+00
1.00123699e+00
1.00123928e+00
1.00123852e+00
1.00123498e+00
1.00122903e+00
1.00122109e+00
1.00121165e+00
1.00120123e+00
1.00119041e+00
1.00117976e+00
1.00116983e+00
1.00116118e+00
1.00115432e+00
1.00114969e+00
1.00114770e+00
1.00114864e+00
1.00115276e+00
1.00116022e+00
1.00117108e+00
1.00118535e+00
1.00120294e+00
1.00122369e+00
1.00124740e+00
1.00127379e+00
1.00130252e+00
1.00133323e+00
1.00136550e+00
1.00139888e+00
1.00143288e+00
1.00146701e+00
1.00150073e+00
1.00153352e+00
1.00156483e+00
1.00159412e+00
1.00162088e+00
1.00164461e+00
1.00166484e+00
1.00168116e+00
1.00169321e+00
1.00170070e+00
1.00170345e+00
1.00170132e+00
1.00169430e+00
1.00168249e+00
1.00166605e+00
1.00164527e+00
1.00162050e+00
1.00159218e+00
1.00156082e+00
1.00152695e+00
1.00149112e+00
1.00145391e+00
1.00141588e+00
1.00137753e+00
1.00133935e+00
1.00130178e+00
1.00126518e+00
1.00122986e+00
1.00119609e+00
1.00116408e+00
1.00113397e+00
1.00110590e+00
1.00108002e+00
1.00105639e+00
1.00103508e+00
1.00101622e+00
1.00099991e+00
1.00098618e+00
1.00097517e+00
1.00096691e+00
1.00096147e+00
1.00095890e+00
1.00095920e+00
1.00096206e+00
1.00096766e+00
1.00097603e+00
1.00098631e+00
1.00099798e+00
1.00101225e+00
1.00102802e+00
1.00104274e+00
1.00105809e+00
1.00107645e+00
1.00109199e+00
1.00110273e+00
1.00111763e+00
1.00113450e+00
1.00113847e+00
1.00113911e+00
1.00115466e+00
1.00116391e+00
1.00022673e+00
1.00023345e+00
1.00024584e+00
1.00025939e+00
1.00027788e+00
1.00030079e+00
1.00032701e+00
1.00035533e+00
1.00038675e+00
1.00041959e+00
1.00045379e+00
1.00048899e+00
1.00052495e+00
1.00056097e+00
1.00059737e+00
1.00063384e+00
1.00067026e+00
1.00070660e+00
1.00074302e+00
1.00077936e+00
1.00081562e+00
1.00085179e+00
1.00088779e+00
1.00092342e+00
1.00095854e+00
1.00099290e+00
1.00102625e+00
1.00105826e+00
1.00108863e+00
1.00111703e+00
1.00114316e+00
1.00116670e+00
1.00118742e+00
1.00120508e+00
1.00121955e+00
1.00123071e+00
1.00123857e+00
1.00124316e+00
1.00124463e+00
1.00124319e+00
1.00123913e+00
1.00123282e+00
1.00122469e+00
1.00121521e+00
1.00120491e+00
1.00119433e+00
1.00118403e+00
1.00117455e+00
1.00116641e+00
1.00116008e+00
1.00115599e+00
1.00115451e+00
1.00115592e+00
1.00116044e+00
1.00116819e+00
1.00117923e+00
1.00119355e+00
1.00121106e+00
1.00123158e+00
1.00125490e+00
1.00128075e+00
1.00130880e+00
1.00133868e+00
1.00136999e+00
1.00140229e+00
1.00143512e+00
1.00146797e+00
1.00150035e+00
1.00153175e+00
1.00156162e+00
1.00158947e+00
1.00161478e+00
1.00163708e+00
1.00165592e+00
1.00167090e+00
1.00168167e+00
1.00168797e+00
1.00168960e+00
1.00168645e+00
1.00167852e+00
1.00166588e+00
1.00164873e+00
1.00162732e+00
1.00160202e+00
1.00157326e+00
1.00154152e+00
1.00150733e+00
1.00147124e+00
1.00143381e+00
1.00139559e+00
1.00135708e+00
1.00131877e+00
1.00128108e+00
1.00124439e+00
1.00120900e+00
1.00117517e+00
1.00114312e+00
1.00111300e+00
1.00108496e+00
1.00105909e+00
1.00103549e+00
1.00101424e+00
1.00099543e+00
1.00097914e+00
1.00096542e+00
1.00095436e+00
1.00094605e+00
1.00094047e+00
1.00093766e+00
1.00093762e+00
1.00094031e+00
1.00094547e+00
1.00095307e+00
1.00096286e+00
1.00097455e+00
1.00098765e+00
1.00100213e+00
1.00101724e+00
1.00103278e+00
1.00104820e+00
1.00106330e+00
1.00107697e+00
1.00109004e+00
1.00110137e+00
1.00111029e+00
1.00111650e+00
1.00112311e+00
1.00112671e+00
1.00028441e+00
1.00028921e+00
1.00029012e+00
1.00030959e+00
1.00033242e+00
1.00034845e+00
1.00037212e+00
1.00040366e+00
1.00043340e+00
1.00046270e+00
1.00049659e+00
1.00053155e+00
1.00056541e+00
1.00060001e+00
1.00063570e+00
1.00067098e+00
1.00070605e+00
1.00074139e+00
1.00077675e+00
1.00081193e+00
1.00084709e+00
1.00088213e+00
1.00091692e+00
1.00095133e+00
1.00098517e+00
1.00101817e+00
1.00105011e+00
1.00108067e+00
1.00110952e+00
1.00113635e+00
1.00116089e+00
1.00118283e+00
1.00120194e+00
1.00121805e+00
1.00123101e+00
1.00124076e+00
1.00124731e+00
1.00125075e+00
1.00125123e+00
1.00124898e+00
1.00124431e+00
1.00123760e+00
1.00122926e+00
1.00121977e+00
1.00120963e+00
1.00119937e+00
1.00118952e+00
1.00118058e+00
1.00117305e+00
1.00116736e+00
1.00116392e+00
1.00116303e+00
1.00116497e+00
1.00116992e+00
1.00117799e+00
1.00118921e+00
1.00120355e+00
1.00122089e+00
1.00124108e+00
1.00126388e+00
1.00128903e+00
1.00131621e+00
1.00134506e+00
1.00137518e+00
1.00140615e+00
1.00143753e+00
1.00146883e+00
1.00149958e+00
1.00152928e+00
1.00155743e+00
1.00158354e+00
1.00160711e+00
1.00162769e+00
1.00164486e+00
1.00165823e+00
1.00166746e+00
1.00167231e+00
1.00167260e+00
1.00166821e+00
1.00165915e+00
1.00164551e+00
1.00162745e+00
1.00160525e+00
1.00157926e+00
1.00154990e+00
1.00151764e+00
1.00148300e+00
1.00144652e+00
1.00140875e+00
1.00137021e+00
1.00133143e+00
1.00129287e+00
1.00125496e+00
1.00121806e+00
1.00118250e+00
1.00114852e+00
1.00111633e+00
1.00108612e+00
1.00105801e+00
1.00103208e+00
1.00100843e+00
1.00098717e+00
1.00096833e+00
1.00095196e+00
1.00093818e+00
1.00092700e+00
1.00091848e+00
1.00091268e+00
1.00090953e+00
1.00090899e+00
1.00091124e+00
1.00091589e+00
1.00092255e+00
1.00093159e+00
1.00094296e+00
1.00095493e+00
1.00096776e+00
1.00098303e+00
1.00099847e+00
1.00101101e+00
1.00102509e+00
1.00104175e+00
1.00105282e+00
1.00105884e+00
1.00107163e+00
1.00108282e+00
1.00108035e+00
1.00108253e+00
1.00034165e+00
1.00035094e+00
1.00036010e+00
1.00037204e+00
1.00038778e+00
1.00040971e+00
1.00043447e+00
1.00045966e+00
1.00048750e+00
1.00051861e+00
1.00055031e+00
1.00058207e+00
1.00061513e+00
1.00064900e+00
1.00068258e+00
1.00071618e+00
1.00075015e+00
1.00078412e+00
1.00081789e+00
1.00085166e+00
1.00088543e+00
1.00091899e+00
1.00095224e+00
1.00098507e+00
1.00101728e+00
1.00104859e+00
1.00107875e+00
1.00110746e+00
1.00113443e+00
1.00115935e+00
1.00118192e+00
1.00120191e+00
1.00121911e+00
1.00123335e+00
1.00124452e+00
1.00125261e+00
1.00125766e+00
1.00125976e+00
1.00125910e+00
1.00125595e+00
1.00125060e+00
1.00124343e+00
1.00123487e+00
1.00122538e+00
1.00121544e+00
1.00120555e+00
1.00119620e+00
1.00118787e+00
1.00118101e+00
1.00117602e+00
1.00117326e+00
1.00117301e+00
1.00117550e+00
1.00118089e+00
1.00118925e+00
1.00120060e+00
1.00121489e+00
1.00123199e+00
1.00125173e+00
1.00127389e+00
1.00129820e+00
1.00132433e+00
1.00135196e+00
1.00138069e+00
1.00141012e+00
1.00143982e+00
1.00146935e+00
1.00149824e+00
1.00152601e+00
1.00155219e+00
1.00157631e+00
1.00159791e+00
1.00161654e+00
1.00163180e+00
1.00164333e+00
1.00165082e+00
1.00165401e+00
1.00165274e+00
1.00164692e+00
1.00163654e+00
1.00162170e+00
1.00160257e+00
1.00157941e+00
1.00155257e+00
1.00152245e+00
1.00148952e+00
1.00145429e+00
1.00141727e+00
1.00137902e+00
1.00134005e+00
1.00130086e+00
1.00126193e+00
1.00122368e+00
1.00118648e+00
1.00115063e+00
1.00111640e+00
1.00108401e+00
1.00105361e+00
1.00102533e+00
1.00099928e+00
1.00097553e+00
1.00095415e+00
1.00093518e+00
1.00091869e+00
1.00090474e+00
1.00089334e+00
1.00088449e+00
1.00087829e+00
1.00087474e+00
1.00087367e+00
1.00087502e+00
1.00087894e+00
1.00088511e+00
1.00089299e+00
1.00090270e+00
1.00091435e+00
1.00092685e+00
1.00093953e+00
1.00095325e+00
1.00096768e+00
1.00098057e+00
1.00099212e+00
1.00100431e+00
1.00101552e+00
1.00102282e+00
1.00102810e+00
1.00103256e+00
1.00103857e+00
1.00041586e+00
1.00042312e+00
1.00043606e+00
1.00044513e+00
1.00045850e+00
1.00048143e+00
1.00050392e+00
1.00052610e+00
1.00055361e+00
1.00058352e+00
1.00061221e+00
1.00064225e+00
1.00067427e+00
1.00070603e+00
1.00073749e+00
1.00076968e+00
1.00080203e+00
1.00083407e+00
1.00086616e+00
1.00089834e+00
1.00093030e+00
1.00096204e+00
1.00099348e+00
1.00102441e+00
1.00105462e+00
1.00108389e+00
1.00111193e+00
1.00113845e+00
1.00116317e+00
1.00118581e+00
1.00120608e+00
1.00122378e+00
1.00123873e+00
1.00125080e+00
1.00125991e+00
1.00126610e+00
1.00126941e+00
1.00126999e+00
1.00126806e+00
1.00126387e+00
1.00125776e+00
1.00125011e+00
1.00124131e+00
1.00123183e+00
1.00122212e+00
1.00121264e+00
1.00120385e+00
1.00119619e+00
1.00119006e+00
1.00118583e+00
1.00118380e+00
1.00118422e+00
1.00118729e+00
1.00119311e+00
1.00120175e+00
1.00121319e+00
1.00122736e+00
1.00124413e+00
1.00126332e+00
1.00128471e+00
1.00130802e+00
1.00133296e+00
1.00135918e+00
1.00138633e+00
1.00141402e+00
1.00144184e+00
1.00146937e+00
1.00149617e+00
1.00152180e+00
1.00154579e+00
1.00156771e+00
1.00158711e+00
1.00160359e+00
1.00161675e+00
1.00162624e+00
1.00163178e+00
1.00163314e+00
1.00163015e+00
1.00162273e+00
1.00161088e+00
1.00159470e+00
1.00157436e+00
1.00155011e+00
1.00152228e+00
1.00149128e+00
1.00145757e+00
1.00142162e+00
1.00138396e+00
1.00134511e+00
1.00130560e+00
1.00126590e+00
1.00122650e+00
1.00118780e+00
1.00115018e+00
1.00111394e+00
1.00107936e+00
1.00104666e+00
1.00101597e+00
1.00098744e+00
1.00096117e+00
1.00093722e+00
1.00091562e+00
1.00089646e+00
1.00087975e+00
1.00086549e+00
1.00085375e+00
1.00084453e+00
1.00083777e+00
1.00083354e+00
1.00083185e+00
1.00083238e+00
1.00083513e+00
1.00084034e+00
1.00084734e+00
1.00085550e+00
1.00086566e+00
1.00087750e+00
1.00088887e+00
1.00090042e+00
1.00091419e+00
1.00092685e+00
1.00093617e+00
1.00094705e+00
1.00095929e+00
1.00096476e+00
1.00096800e+00
1.00097578e+00
1.00098046e+00
1.00050639e+00
1.00051034e+00
1.00051563e+00
1.00052794e+00
1.00054435e+00
1.00056061e+00
1.00058010e+00
1.00060471e+00
1.00063001e+00
1.00065516e+00
1.00068285e+00
1.00071232e+00
1.00074130e+00
1.00077044e+00
1.00080061e+00
1.00083094e+00
1.00086090e+00
1.00089101e+00
1.00092131e+00
1.00095142e+00
1.00098129e+00
1.00101098e+00
1.00104029e+00
1.00106899e+00
1.00109689e+00
1.00112376e+00
1.00114933e+00
1.00117332e+00
1.00119544e+00
1.00121543e+00
1.00123307e+00
1.00124816e+00
1.00126054e+00
1.00127015e+00
1.00127695e+00
1.00128098e+00
1.00128236e+00
1.00128126e+00
1.00127791e+00
1.00127259e+00
1.00126565e+00
1.00125746e+00
1.00124842e+00
1.00123894e+00
1.00122948e+00
1.00122045e+00
1.00121226e+00
1.00120532e+00
1.00119997e+00
1.00119653e+00
1.00119526e+00
1.00119637e+00
1.00120001e+00
1.00120625e+00
1.00121513e+00
1.00122661e+00
1.00124060e+00
1.00125695e+00
1.00127548e+00
1.00129597e+00
1.00131815e+00
1.00134174e+00
1.00136640e+00
1.00139180e+00
1.00141758e+00
1.00144334e+00
1.00146869e+00
1.00149323e+00
1.00151652e+00
1.00153815e+00
1.00155769e+00
1.00157473e+00
1.00158888e+00
1.00159978e+00
1.00160709e+00
1.00161055e+00
1.00160993e+00
1.00160508e+00
1.00159594e+00
1.00158251e+00
1.00156487e+00
1.00154320e+00
1.00151775e+00
1.00148885e+00
1.00145687e+00
1.00142226e+00
1.00138551e+00
1.00134711e+00
1.00130757e+00
1.00126741e+00
1.00122711e+00
1.00118713e+00
1.00114788e+00
1.00110975e+00
1.00107304e+00
1.00103801e+00
1.00100487e+00
1.00097381e+00
1.00094494e+00
1.00091833e+00
1.00089405e+00
1.00087216e+00
1.00085268e+00
1.00083561e+00
1.00082094e+00
1.00080872e+00
1.00079896e+00
1.00079157e+00
1.00078649e+00
1.00078383e+00
1.00078353e+00
1.00078517e+00
1.00078869e+00
1.00079446e+00
1.00080190e+00
1.00081000e+00
1.00081940e+00
1.00083059e+00
1.00084156e+00
1.00085145e+00
1.00086252e+00
1.00087425e+00
1.00088286e+00
1.00088974e+00
1.00089805e+00
1.00090432e+00
1.00090596e+00
1.00090816e+00
1.00060063e+00
1.00060500e+00
1.00060917e+00
1.00062060e+00
1.00063494e+00
1.00064925e+00
1.00066835e+00
1.00069065e+00
1.00071258e+00
1.00073632e+00
1.00076270e+00
1.00078906e+00
1.00081538e+00
1.00084300e+00
1.00087104e+00
1.00089865e+00
1.00092650e+00
1.00095469e+00
1.00098265e+00
1.00101039e+00
1.00103808e+00
1.00106544e+00
1.00109226e+00
1.00111843e+00
1.00114375e+00
1.00116791e+00
1.00119068e+00
1.00121179e+00
1.00123098e+00
1.00124801e+00
1.00126268e+00
1.00127483e+00
1.00128435e+00
1.00129121e+00
1.00129542e+00
1.00129707e+00
1.00129630e+00
1.00129334e+00
1.00128842e+00
1.00128186e+00
1.00127400e+00
1.00126522e+00
1.00125589e+00
1.00124643e+00
1.00123722e+00
1.00122865e+00
1.00122111e+00
1.00121491e+00
1.00121038e+00
1.00120777e+00
1.00120729e+00
1.00120911e+00
1.00121332e+00
1.00121997e+00
1.00122907e+00
1.00124054e+00
1.00125427e+00
1.00127013e+00
1.00128791e+00
1.00130740e+00
1.00132833e+00
1.00135043e+00
1.00137339e+00
1.00139689e+00
1.00142059e+00
1.00144414e+00
1.00146716e+00
1.00148927e+00
1.00151007e+00
1.00152918e+00
1.00154620e+00
1.00156074e+00
1.00157243e+00
1.00158094e+00
1.00158595e+00
1.00158721e+00
1.00158451e+00
1.00157772e+00
1.00156677e+00
1.00155167e+00
1.00153250e+00
1.00150944e+00
1.00148272e+00
1.00145267e+00
1.00141965e+00
1.00138410e+00
1.00134647e+00
1.00130726e+00
1.00126696e+00
1.00122608e+00
1.00118509e+00
1.00114446e+00
1.00110458e+00
1.00106584e+00
1.00102855e+00
1.00099298e+00
1.00095932e+00
1.00092777e+00
1.00089844e+00
1.00087139e+00
1.00084669e+00
1.00082437e+00
1.00080443e+00
1.00078686e+00
1.00077170e+00
1.00075885e+00
1.00074830e+00
1.00074013e+00
1.00073421e+00
1.00073033e+00
1.00072869e+00
1.00072924e+00
1.00073137e+00
1.00073512e+00
1.00074096e+00
1.00074795e+00
1.00075529e+00
1.00076406e+00
1.00077398e+00
1.00078281e+00
1.00079144e+00
1.00080144e+00
1.00080974e+00
1.00081535e+00
1.00082234e+00
1.00082794e+00
1.00082878e+00
1.00083163e+00
1.00070174e+00
1.00070663e+00
1.00071344e+00
1.00072088e+00
1.00073143e+00
1.00074739e+00
1.00076502e+00
1.00078244e+00
1.00080295e+00
1.00082612e+00
1.00084893e+00
1.00087212e+00
1.00089708e+00
1.00092245e+00
1.00094738e+00
1.00097272e+00
1.00099854e+00
1.00102415e+00
1.00104954e+00
1.00107495e+00
1.00110014e+00
1.00112483e+00
1.00114897e+00
1.00117237e+00
1.00119477e+00
1.00121592e+00
1.00123558e+00
1.00125350e+00
1.00126944e+00
1.00128319e+00
1.00129456e+00
1.00130347e+00
1.00130985e+00
1.00131369e+00
1.00131506e+00
1.00131410e+00
1.00131101e+00
1.00130600e+00
1.00129939e+00
1.00129148e+00
1.00128262e+00
1.00127319e+00
1.00126354e+00
1.00125407e+00
1.00124511e+00
1.00123703e+00
1.00123013e+00
1.00122471e+00
1.00122101e+00
1.00121924e+00
1.00121956e+00
1.00122208e+00
1.00122685e+00
1.00123389e+00
1.00124315e+00
1.00125456e+00
1.00126798e+00
1.00128326e+00
1.00130020e+00
1.00131857e+00
1.00133814e+00
1.00135864e+00
1.00137978e+00
1.00140126e+00
1.00142277e+00
1.00144397e+00
1.00146453e+00
1.00148410e+00
1.00150231e+00
1.00151879e+00
1.00153318e+00
1.00154512e+00
1.00155427e+00
1.00156031e+00
1.00156295e+00
1.00156195e+00
1.00155712e+00
1.00154834e+00
1.00153553e+00
1.00151872e+00
1.00149799e+00
1.00147350e+00
1.00144549e+00
1.00141425e+00
1.00138016e+00
1.00134361e+00
1.00130507e+00
1.00126500e+00
1.00122389e+00
1.00118224e+00
1.00114050e+00
1.00109914e+00
1.00105856e+00
1.00101914e+00
1.00098117e+00
1.00094496e+00
1.00091070e+00
1.00087855e+00
1.00084862e+00
1.00082103e+00
1.00079578e+00
1.00077289e+00
1.00075237e+00
1.00073418e+00
1.00071831e+00
1.00070471e+00
1.00069329e+00
1.00068405e+00
1.00067703e+00
1.00067201e+00
1.00066880e+00
1.00066762e+00
1.00066844e+00
1.00067050e+00
1.00067379e+00
1.00067903e+00
1.00068534e+00
1.00069140e+00
1.00069840e+00
1.00070696e+00
1.00071444e+00
1.00072037e+00
1.00072771e+00
1.00073499e+00
1.00073883e+00
1.00074120e+00
1.00074465e+00
1.00074811e+00
1.00081314e+00
1.00081577e+00
1.00082104e+00
1.00082802e+00
1.00083804e+00
1.00085152e+00
1.00086589e+00
1.00088217e+00
1.00090124e+00
1.00092079e+00
1.00094073e+00
1.00096245e+00
1.00098487e+00
1.00100693e+00
1.00102951e+00
1.00105278e+00
1.00107581e+00
1.00109862e+00
1.00112162e+00
1.00114446e+00
1.00116678e+00
1.00118865e+00
1.00120993e+00
1.00123028e+00
1.00124948e+00
1.00126736e+00
1.00128365e+00
1.00129808e+00
1.00131046e+00
1.00132062e+00
1.00132843e+00
1.00133382e+00
1.00133676e+00
1.00133733e+00
1.00133563e+00
1.00133185e+00
1.00132622e+00
1.00131902e+00
1.00131056e+00
1.00130119e+00
1.00129124e+00
1.00128108e+00
1.00127108e+00
1.00126155e+00
1.00125284e+00
1.00124523e+00
1.00123899e+00
1.00123434e+00
1.00123148e+00
1.00123056e+00
1.00123167e+00
1.00123488e+00
1.00124020e+00
1.00124759e+00
1.00125699e+00
1.00126829e+00
1.00128134e+00
1.00129597e+00
1.00131199e+00
1.00132917e+00
1.00134729e+00
1.00136609e+00
1.00138530e+00
1.00140466e+00
1.00142387e+00
1.00144264e+00
1.00146065e+00
1.00147758e+00
1.00149311e+00
1.00150689e+00
1.00151859e+00
1.00152787e+00
1.00153443e+00
1.00153796e+00
1.00153820e+00
1.00153491e+00
1.00152794e+00
1.00151714e+00
1.00150248e+00
1.00148396e+00
1.00146167e+00
1.00143576e+00
1.00140645e+00
1.00137404e+00
1.00133887e+00
1.00130134e+00
1.00126187e+00
1.00122093e+00
1.00117899e+00
1.00113653e+00
1.00109401e+00
1.00105187e+00
1.00101053e+00
1.00097035e+00
1.00093165e+00
1.00089470e+00
1.00085972e+00
1.00082687e+00
1.00079627e+00
1.00076799e+00
1.00074205e+00
1.00071846e+00
1.00069722e+00
1.00067826e+00
1.00066150e+00
1.00064695e+00
1.00063458e+00
1.00062414e+00
1.00061565e+00
1.00060926e+00
1.00060464e+00
1.00060149e+00
1.00060017e+00
1.00060064e+00
1.00060203e+00
1.00060445e+00
1.00060854e+00
1.00061332e+00
1.00061791e+00
1.00062340e+00
1.00062959e+00
1.00063467e+00
1.00063945e+00
1.00064459e+00
1.00064808e+00
1.00065031e+00
1.00065246e+00
1.00065411e+00
1.00093025e+00
1.00093169e+00
1.00093407e+00
1.00094101e+00
1.00095040e+00
1.00096027e+00
1.00097272e+00
1.00098823e+00
1.00100399e+00
1.00102028e+00
1.00103872e+00
1.00105797e+00
1.00107689e+00
1.00109653e+00
1.00111700e+00
1.00113728e+00
1.00115742e+00
1.00117783e+00
1.00119813e+00
1.00121798e+00
1.00123744e+00
1.00125639e+00
1.00127449e+00
1.00129156e+00
1.00130740e+00
1.00132175e+00
1.00133437e+00
1.00134506e+00
1.00135362e+00
1.00135993e+00
1.00136390e+00
1.00136550e+00
1.00136477e+00
1.00136182e+00
1.00135684e+00
1.00135004e+00
1.00134171e+00
1.00133215e+00
1.00132172e+00
1.00131076e+00
1.00129963e+00
1.00128869e+00
1.00127825e+00
1.00126864e+00
1.00126014e+00
1.00125298e+00
1.00124737e+00
1.00124349e+00
1.00124147e+00
1.00124138e+00
1.00124327e+00
1.00124715e+00
1.00125298e+00
1.00126069e+00
1.00127018e+00
1.00128132e+00
1.00129393e+00
1.00130785e+00
1.00132288e+00
1.00133880e+00
1.00135538e+00
1.00137240e+00
1.00138962e+00
1.00140678e+00
1.00142363e+00
1.00143990e+00
1.00145530e+00
1.00146955e+00
1.00148235e+00
1.00149340e+00
1.00150238e+00
1.00150900e+00
1.00151296e+00
1.00151398e+00
1.00151183e+00
1.00150628e+00
1.00149719e+00
1.00148442e+00
1.00146794e+00
1.00144776e+00
1.00142395e+00
1.00139666e+00
1.00136610e+00
1.00133256e+00
1.00129634e+00
1.00125784e+00
1.00121747e+00
1.00117568e+00
1.00113291e+00
1.00108963e+00
1.00104631e+00
1.00100337e+00
1.00096122e+00
1.00092022e+00
1.00088072e+00
1.00084296e+00
1.00080716e+00
1.00077351e+00
1.00074211e+00
1.00071301e+00
1.00068626e+00
1.00066184e+00
1.00063970e+00
1.00061981e+00
1.00060207e+00
1.00058639e+00
1.00057274e+00
1.00056104e+00
1.00055109e+00
1.00054286e+00
1.00053649e+00
1.00053165e+00
1.00052801e+00
1.00052598e+00
1.00052556e+00
1.00052577e+00
1.00052671e+00
1.00052929e+00
1.00053244e+00
1.00053494e+00
1.00053828e+00
1.00054273e+00
1.00054576e+00
1.00054777e+00
1.00055090e+00
1.00055322e+00
1.00055281e+00
1.00055350e+00
1.00104964e+00
1.00105091e+00
1.00105339e+00
1.00105837e+00
1.00106527e+00
1.00107405e+00
1.00108517e+00
1.00109735e+00
1.00111028e+00
1.00112509e+00
1.00114090e+00
1.00115663e+00
1.00117316e+00
1.00119066e+00
1.00120805e+00
1.00122534e+00
1.00124306e+00
1.00126078e+00
1.00127802e+00
1.00129494e+00
1.00131150e+00
1.00132726e+00
1.00134202e+00
1.00135567e+00
1.00136793e+00
1.00137853e+00
1.00138728e+00
1.00139399e+00
1.00139850e+00
1.00140072e+00
1.00140061e+00
1.00139819e+00
1.00139357e+00
1.00138691e+00
1.00137844e+00
1.00136843e+00
1.00135723e+00
1.00134517e+00
1.00133262e+00
1.00131997e+00
1.00130756e+00
1.00129573e+00
1.00128480e+00
1.00127505e+00
1.00126670e+00
1.00125995e+00
1.00125495e+00
1.00125180e+00
1.00125057e+00
1.00125129e+00
1.00125393e+00
1.00125845e+00
1.00126477e+00
1.00127277e+00
1.00128231e+00
1.00129323e+00
1.00130537e+00
1.00131852e+00
1.00133250e+00
1.00134710e+00
1.00136210e+00
1.00137730e+00
1.00139247e+00
1.00140739e+00
1.00142183e+00
1.00143556e+00
1.00144833e+00
1.00145988e+00
1.00146995e+00
1.00147826e+00
1.00148454e+00
1.00148851e+00
1.00148991e+00
1.00148847e+00
1.00148398e+00
1.00147623e+00
1.00146508e+00
1.00145042e+00
1.00143220e+00
1.00141043e+00
1.00138519e+00
1.00135660e+00
1.00132487e+00
1.00129026e+00
1.00125308e+00
1.00121368e+00
1.00117246e+00
1.00112984e+00
1.00108628e+00
1.00104221e+00
1.00099808e+00
1.00095433e+00
1.00091135e+00
1.00086951e+00
1.00082913e+00
1.00079049e+00
1.00075381e+00
1.00071925e+00
1.00068693e+00
1.00065691e+00
1.00062921e+00
1.00060381e+00
1.00058063e+00
1.00055962e+00
1.00054074e+00
1.00052381e+00
1.00050870e+00
1.00049545e+00
1.00048395e+00
1.00047388e+00
1.00046530e+00
1.00045842e+00
1.00045281e+00
1.00044812e+00
1.00044486e+00
1.00044302e+00
1.00044163e+00
1.00044088e+00
1.00044146e+00
1.00044249e+00
1.00044323e+00
1.00044457e+00
1.00044631e+00
1.00044744e+00
1.00044832e+00
1.00044880e+00
1.00044858e+00
1.00044921e+00
1.00117270e+00
1.00117317e+00
1.00117533e+00
1.00117846e+00
1.00118354e+00
1.00119124e+00
1.00119989e+00
1.00120919e+00
1.00122043e+00
1.00123285e+00
1.00124526e+00
1.00125856e+00
1.00127294e+00
1.00128732e+00
1.00130171e+00
1.00131665e+00
1.00133165e+00
1.00134624e+00
1.00136063e+00
1.00137472e+00
1.00138807e+00
1.00140049e+00
1.00141189e+00
1.00142197e+00
1.00143044e+00
1.00143713e+00
1.00144184e+00
1.00144437e+00
1.00144463e+00
1.00144256e+00
1.00143816e+00
1.00143154e+00
1.00142283e+00
1.00141227e+00
1.00140014e+00
1.00138678e+00
1.00137255e+00
1.00135785e+00
1.00134307e+00
1.00132860e+00
1.00131481e+00
1.00130201e+00
1.00129051e+00
1.00128053e+00
1.00127227e+00
1.00126587e+00
1.00126142e+00
1.00125896e+00
1.00125849e+00
1.00125996e+00
1.00126331e+00
1.00126843e+00
1.00127518e+00
1.00128342e+00
1.00129296e+00
1.00130364e+00
1.00131524e+00
1.00132759e+00
1.00134048e+00
1.00135372e+00
1.00136711e+00
1.00138044e+00
1.00139354e+00
1.00140621e+00
1.00141824e+00
1.00142944e+00
1.00143959e+00
1.00144846e+00
1.00145583e+00
1.00146145e+00
1.00146508e+00
1.00146647e+00
1.00146537e+00
1.00146156e+00
1.00145481e+00
1.00144497e+00
1.00143187e+00
1.00141542e+00
1.00139558e+00
1.00137234e+00
1.00134577e+00
1.00131601e+00
1.00128322e+00
1.00124765e+00
1.00120960e+00
1.00116939e+00
1.00112740e+00
1.00108404e+00
1.00103973e+00
1.00099491e+00
1.00095001e+00
1.00090545e+00
1.00086163e+00
1.00081892e+00
1.00077764e+00
1.00073806e+00
1.00070041e+00
1.00066486e+00
1.00063152e+00
1.00060045e+00
1.00057167e+00
1.00054513e+00
1.00052080e+00
1.00049856e+00
1.00047829e+00
1.00045994e+00
1.00044335e+00
1.00042832e+00
1.00041489e+00
1.00040300e+00
1.00039232e+00
1.00038284e+00
1.00037485e+00
1.00036796e+00
1.00036178e+00
1.00035686e+00
1.00035323e+00
1.00034990e+00
1.00034714e+00
1.00034575e+00
1.00034465e+00
1.00034317e+00
1.00034259e+00
1.00034263e+00
1.00034171e+00
1.00034047e+00
1.00034000e+00
1.00033984e+00
1.00129797e+00
1.00129712e+00
1.00129790e+00
1.00130034e+00
1.00130432e+00
1.00130954e+00
1.00131576e+00
1.00132354e+00
1.00133244e+00
1.00134162e+00
1.00135166e+00
1.00136284e+00
1.00137418e+00
1.00138559e+00
1.00139765e+00
1.00140992e+00
1.00142185e+00
1.00143363e+00
1.00144527e+00
1.00145624e+00
1.00146631e+00
1.00147547e+00
1.00148339e+00
1.00148973e+00
1.00149433e+00
1.00149699e+00
1.00149750e+00
1.00149570e+00
1.00149155e+00
1.00148503e+00
1.00147621e+00
1.00146521e+00
1.00145226e+00
1.00143765e+00
1.00142172e+00
1.00140486e+00
1.00138747e+00
1.00137000e+00
1.00135288e+00
1.00133648e+00
1.00132119e+00
1.00130733e+00
1.00129515e+00
1.00128486e+00
1.00127661e+00
1.00127048e+00
1.00126650e+00
1.00126465e+00
1.00126486e+00
1.00126704e+00
1.00127104e+00
1.00127670e+00
1.00128384e+00
1.00129227e+00
1.00130177e+00
1.00131216e+00
1.00132320e+00
1.00133472e+00
1.00134650e+00
1.00135836e+00
1.00137011e+00
1.00138159e+00
1.00139263e+00
1.00140305e+00
1.00141270e+00
1.00142140e+00
1.00142897e+00
1.00143522e+00
1.00143996e+00
1.00144297e+00
1.00144403e+00
1.00144293e+00
1.00143944e+00
1.00143337e+00
1.00142450e+00
1.00141268e+00
1.00139778e+00
1.00137969e+00
1.00135836e+00
1.00133381e+00
1.00130607e+00
1.00127527e+00
1.00124157e+00
1.00120519e+00
1.00116639e+00
1.00112549e+00
1.00108285e+00
1.00103884e+00
1.00099387e+00
1.00094836e+00
1.00090274e+00
1.00085741e+00
1.00081277e+00
1.00076918e+00
1.00072697e+00
1.00068641e+00
1.00064773e+00
1.00061110e+00
1.00057665e+00
1.00054443e+00
1.00051444e+00
1.00048664e+00
1.00046099e+00
1.00043737e+00
1.00041561e+00
1.00039563e+00
1.00037736e+00
1.00036054e+00
1.00034503e+00
1.00033092e+00
1.00031811e+00
1.00030622e+00
1.00029536e+00
1.00028584e+00
1.00027721e+00
1.00026917e+00
1.00026231e+00
1.00025660e+00
1.00025122e+00
1.00024644e+00
1.00024282e+00
1.00023969e+00
1.00023662e+00
1.00023408e+00
1.00023204e+00
1.00023014e+00
1.00022816e+00
1.00022663e+00
1.00142291e+00
1.00142144e+00
1.00142118e+00
1.00142252e+00
1.00142491e+00
1.00142809e+00
1.00143262e+00
1.00143832e+00
1.00144435e+00
1.00145120e+00
1.00145918e+00
1.00146743e+00
1.00147588e+00
1.00148506e+00
1.00149453e+00
1.00150376e+00
1.00151301e+00
1.00152220e+00
1.00153079e+00
1.00153860e+00
1.00154559e+00
1.00155141e+00
1.00155569e+00
1.00155828e+00
1.00155898e+00
1.00155749e+00
1.00155369e+00
1.00154748e+00
1.00153882e+00
1.00152773e+00
1.00151436e+00
1.00149888e+00
1.00148158e+00
1.00146280e+00
1.00144296e+00
1.00142248e+00
1.00140183e+00
1.00138149e+00
1.00136190e+00
1.00134347e+00
1.00132658e+00
1.00131154e+00
1.00129857e+00
1.00128787e+00
1.00127952e+00
1.00127355e+00
1.00126995e+00
1.00126862e+00
1.00126943e+00
1.00127223e+00
1.00127680e+00
1.00128294e+00
1.00129041e+00
1.00129897e+00
1.00130840e+00
1.00131845e+00
1.00132891e+00
1.00133957e+00
1.00135023e+00
1.00136071e+00
1.00137085e+00
1.00138049e+00
1.00138950e+00
1.00139773e+00
1.00140505e+00