# vtk DataFile Version 2.0
LBM Flow Field - Timestep 930
ASCII
DATASET STRUCTURED_POINTS
DIMENSIONS 128 128 1
ORIGIN 0.0 0.0 0.0
SPACING 1.0 1.0 1.0
POINT_DATA 16384
SCALARS density double 1
LOOKUP_TABLE default
9.95721274e-01
9.95752522e-01
9.95804259e-01
9.95903139e-01
9.96025747e-01
9.96153695e-01
9.96306569e-01
9.96480346e-01
9.96656976e-01
9.96837950e-01
9.97028001e-01
9.97219352e-01
9.97407477e-01
9.97594310e-01
9.97778730e-01
9.97957748e-01
9.98130953e-01
9.98298589e-01
9.98459833e-01
9.98614237e-01
9.98761968e-01
9.98903090e-01
9.99037501e-01
9.99165252e-01
9.99286376e-01
9.99400799e-01
9.99508386e-01
9.99609001e-01
9.99702484e-01
9.99788683e-01
9.99867487e-01
9.99938862e-01
1.00000285e+00
1.00005959e+00
1.00010934e+00
1.00015245e+00
1.00018937e+00
1.00022064e+00
1.00024687e+00
1.00026872e+00
1.00028687e+00
1.00030201e+00
1.00031479e+00
1.00032583e+00
1.00033567e+00
1.00034476e+00
1.00035350e+00
1.00036217e+00
1.00037098e+00
1.00038007e+00
1.00038951e+00
1.00039934e+00
1.00040954e+00
1.00042007e+00
1.00043090e+00
1.00044193e+00
1.00045308e+00
1.00046424e+00
1.00047525e+00
1.00048596e+00
1.00049614e+00
1.00050559e+00
1.00051406e+00
1.00052134e+00
1.00052725e+00
1.00053168e+00
1.00053464e+00
1.00053625e+00
1.00053682e+00
1.00053676e+00
1.00053665e+00
1.00053716e+00
1.00053900e+00
1.00054287e+00
1.00054940e+00
1.00055904e+00
1.00057205e+00
1.00058843e+00
1.00060794e+00
1.00063008e+00
1.00065413e+00
1.00067924e+00
1.00070451e+00
1.00072904e+00
1.00075208e+00
1.00077306e+00
1.00079171e+00
1.00080801e+00
1.00082228e+00
1.00083509e+00
1.00084721e+00
1.00085957e+00
1.00087310e+00
1.00088871e+00
1.00090715e+00
1.00092902e+00
1.00095472e+00
1.00098449e+00
1.00101846e+00
1.00105675e+00
1.00109958e+00
1.00114735e+00
1.00120073e+00
1.00126074e+00
1.00132873e+00
1.00140633e+00
1.00149544e+00
1.00159801e+00
1.00171590e+00
1.00185081e+00
1.00200418e+00
1.00217683e+00
1.00236882e+00
1.00258034e+00
1.00281076e+00
1.00305751e+00
1.00331824e+00
1.00359277e+00
1.00387561e+00
1.00415687e+00
1.00443735e+00
1.00471778e+00
1.00497199e+00
1.00518787e+00
1.00539658e+00
1.00557422e+00
1.00565106e+00
1.00569095e+00
9.95737816e-01
9.95774541e-01
9.95831169e-01
9.95920864e-01
9.96039931e-01
9.96170543e-01
9.96319154e-01
9.96486591e-01
9.96663182e-01
9.96844147e-01
9.97031084e-01
9.97221022e-01
9.97409816e-01
9.97596328e-01
9.97779954e-01
9.97959111e-01
9.98132553e-01
9.98299945e-01
9.98460925e-01
9.98615161e-01
9.98762489e-01
9.98902984e-01
9.99036656e-01
9.99163536e-01
9.99283625e-01
9.99396923e-01
9.99503351e-01
9.99602815e-01
9.99695204e-01
9.99780426e-01
9.99858410e-01
9.99929153e-01
9.99992723e-01
1.00004928e+00
1.00009907e+00
1.00014244e+00
1.00017982e+00
1.00021174e+00
1.00023877e+00
1.00026153e+00
1.00028066e+00
1.00029679e+00
1.00031056e+00
1.00032253e+00
1.00033321e+00
1.00034306e+00
1.00035244e+00
1.00036163e+00
1.00037085e+00
1.00038024e+00
1.00038988e+00
1.00039982e+00
1.00041006e+00
1.00042058e+00
1.00043132e+00
1.00044223e+00
1.00045322e+00
1.00046418e+00
1.00047498e+00
1.00048545e+00
1.00049541e+00
1.00050465e+00
1.00051296e+00
1.00052014e+00
1.00052605e+00
1.00053059e+00
1.00053378e+00
1.00053577e+00
1.00053682e+00
1.00053734e+00
1.00053787e+00
1.00053902e+00
1.00054144e+00
1.00054580e+00
1.00055263e+00
1.00056237e+00
1.00057525e+00
1.00059127e+00
1.00061021e+00
1.00063161e+00
1.00065482e+00
1.00067908e+00
1.00070355e+00
1.00072743e+00
1.00075003e+00
1.00077086e+00
1.00078964e+00
1.00080639e+00
1.00082140e+00
1.00083518e+00
1.00084848e+00
1.00086211e+00
1.00087697e+00
1.00089387e+00
1.00091355e+00
1.00093655e+00
1.00096328e+00
1.00099397e+00
1.00102879e+00
1.00106789e+00
1.00111148e+00
1.00115999e+00
1.00121409e+00
1.00127476e+00
1.00134328e+00
1.00142125e+00
1.00151043e+00
1.00161272e+00
1.00172995e+00
1.00186381e+00
1.00201561e+00
1.00218628e+00
1.00237620e+00
1.00258539e+00
1.00281276e+00
1.00305679e+00
1.00331563e+00
1.00358680e+00
1.00386467e+00
1.00414456e+00
1.00442414e+00
1.00469571e+00
1.00494329e+00
1.00516604e+00
1.00537119e+00
1.00552867e+00
1.00561310e+00
1.00567944e+00
9.95756618e-01
9.95795919e-01
9.95867675e-01
9.95946481e-01
9.96050330e-01
9.96189969e-01
9.96341357e-01
9.96497683e-01
9.96671477e-01
9.96856434e-01
9.97041214e-01
9.97227745e-01
9.97417257e-01
9.97604439e-01
9.97786972e-01
9.97965571e-01
9.98139086e-01
9.98305960e-01
9.98466043e-01
9.98619380e-01
9.98765620e-01
9.98904686e-01
9.99036736e-01
9.99161843e-01
9.99280018e-01
9.99391311e-01
9.99495745e-01
9.99593286e-01
9.99683892e-01
9.99767536e-01
9.99844211e-01
9.99913951e-01
9.99976852e-01
1.00003309e+00
1.00008291e+00
1.00012665e+00
1.00016472e+00
1.00019760e+00
1.00022580e+00
1.00024989e+00
1.00027046e+00
1.00028808e+00
1.00030331e+00
1.00031668e+00
1.00032867e+00
1.00033968e+00
1.00035005e+00
1.00036008e+00
1.00036997e+00
1.00037987e+00
1.00038988e+00
1.00040006e+00
1.00041042e+00
1.00042096e+00
1.00043165e+00
1.00044243e+00
1.00045324e+00
1.00046398e+00
1.00047452e+00
1.00048473e+00
1.00049443e+00
1.00050345e+00
1.00051159e+00
1.00051869e+00
1.00052462e+00
1.00052933e+00
1.00053283e+00
1.00053526e+00
1.00053690e+00
1.00053810e+00
1.00053937e+00
1.00054126e+00
1.00054437e+00
1.00054927e+00
1.00055648e+00
1.00056636e+00
1.00057914e+00
1.00059480e+00
1.00061314e+00
1.00063376e+00
1.00065607e+00
1.00067939e+00
1.00070298e+00
1.00072613e+00
1.00074825e+00
1.00076889e+00
1.00078784e+00
1.00080515e+00
1.00082110e+00
1.00083618e+00
1.00085106e+00
1.00086653e+00
1.00088338e+00
1.00090238e+00
1.00092416e+00
1.00094922e+00
1.00097791e+00
1.00101044e+00
1.00104693e+00
1.00108750e+00
1.00113235e+00
1.00118188e+00
1.00123671e+00
1.00129777e+00
1.00136630e+00
1.00144382e+00
1.00153204e+00
1.00163282e+00
1.00174800e+00
1.00187926e+00
1.00202788e+00
1.00219501e+00
1.00238130e+00
1.00258634e+00
1.00280923e+00
1.00304974e+00
1.00330538e+00
1.00357073e+00
1.00384412e+00
1.00412519e+00
1.00440012e+00
1.00465767e+00
1.00490998e+00
1.00514712e+00
1.00532502e+00
1.00546083e+00
1.00559758e+00
1.00567102e+00
9.95797442e-01
9.95828424e-01
9.95893080e-01
9.95979758e-01
9.96085832e-01
9.96214372e-01
9.96361121e-01
9.96521190e-01
9.96692667e-01
9.96871984e-01
9.97056243e-01
9.97243368e-01
9.97430732e-01
9.97616180e-01
9.97798494e-01
9.97976250e-01
9.98148235e-01
9.98313824e-01
9.98472582e-01
9.98624112e-01
9.98768302e-01
9.98905186e-01
9.99034822e-01
9.99157309e-01
9.99272790e-01
9.99381374e-01
9.99483146e-01
9.99578172e-01
9.99666501e-01
9.99748176e-01
9.99823251e-01
9.99891813e-01
9.99953991e-01
1.00000997e+00
1.00005999e+00
1.00010438e+00
1.00014348e+00
1.00017774e+00
1.00020759e+00
1.00023355e+00
1.00025610e+00
1.00027575e+00
1.00029298e+00
1.00030826e+00
1.00032200e+00
1.00033459e+00
1.00034633e+00
1.00035751e+00
1.00036832e+00
1.00037894e+00
1.00038947e+00
1.00040000e+00
1.00041057e+00
1.00042120e+00
1.00043186e+00
1.00044253e+00
1.00045315e+00
1.00046363e+00
1.00047387e+00
1.00048376e+00
1.00049313e+00
1.00050185e+00
1.00050976e+00
1.00051674e+00
1.00052268e+00
1.00052756e+00
1.00053142e+00
1.00053441e+00
1.00053676e+00
1.00053883e+00
1.00054104e+00
1.00054390e+00
1.00054791e+00
1.00055358e+00
1.00056134e+00
1.00057150e+00
1.00058424e+00
1.00059954e+00
1.00061722e+00
1.00063691e+00
1.00065813e+00
1.00068029e+00
1.00070275e+00
1.00072496e+00
1.00074641e+00
1.00076678e+00
1.00078594e+00
1.00080397e+00
1.00082115e+00
1.00083798e+00
1.00085507e+00
1.00087312e+00
1.00089282e+00
1.00091483e+00
1.00093968e+00
1.00096778e+00
1.00099938e+00
1.00103460e+00
1.00107353e+00
1.00111623e+00
1.00116287e+00
1.00121379e+00
1.00126957e+00
1.00133109e+00
1.00139954e+00
1.00147637e+00
1.00156327e+00
1.00166203e+00
1.00177445e+00
1.00190223e+00
1.00204684e+00
1.00220929e+00
1.00239023e+00
1.00258984e+00
1.00280741e+00
1.00304152e+00
1.00329058e+00
1.00355150e+00
1.00381960e+00
1.00409110e+00
1.00436115e+00
1.00462020e+00
1.00486226e+00
1.00508315e+00
1.00527080e+00
1.00541804e+00
1.00553061e+00
1.00558862e+00
9.95850481e-01
9.95881619e-01
9.95929472e-01
9.96018088e-01
9.96128995e-01
9.96247960e-01
9.96389082e-01
9.96551707e-01
9.96720033e-01
9.96893737e-01
9.97077392e-01
9.97264203e-01
9.97448837e-01
9.97632466e-01
9.97814007e-01
9.97990161e-01
9.98160085e-01
9.98323820e-01
9.98480485e-01
9.98629480e-01
9.98770919e-01
9.98904877e-01
9.99031348e-01
9.99150507e-01
9.99262602e-01
9.99367818e-01
9.99466325e-01
9.99558297e-01
9.99643883e-01
9.99723203e-01
9.99796383e-01
9.99863560e-01
9.99924897e-01
9.99980587e-01
1.00003087e+00
1.00007602e+00
1.00011637e+00
1.00015227e+00
1.00018410e+00
1.00021228e+00
1.00023720e+00
1.00025929e+00
1.00027894e+00
1.00029654e+00
1.00031245e+00
1.00032700e+00
1.00034047e+00
1.00035313e+00
1.00036517e+00
1.00037676e+00
1.00038805e+00
1.00039913e+00
1.00041007e+00
1.00042089e+00
1.00043161e+00
1.00044222e+00
1.00045267e+00
1.00046290e+00
1.00047283e+00
1.00048236e+00
1.00049138e+00
1.00049978e+00
1.00050745e+00
1.00051430e+00
1.00052029e+00
1.00052543e+00
1.00052976e+00
1.00053345e+00
1.00053672e+00
1.00053986e+00
1.00054325e+00
1.00054730e+00
1.00055242e+00
1.00055902e+00
1.00056745e+00
1.00057793e+00
1.00059061e+00
1.00060546e+00
1.00062233e+00
1.00064092e+00
1.00066085e+00
1.00068165e+00
1.00070285e+00
1.00072402e+00
1.00074483e+00
1.00076505e+00
1.00078466e+00
1.00080377e+00
1.00082269e+00
1.00084187e+00
1.00086183e+00
1.00088318e+00
1.00090649e+00
1.00093228e+00
1.00096096e+00
1.00099280e+00
1.00102796e+00
1.00106649e+00
1.00110838e+00
1.00115366e+00
1.00120244e+00
1.00125501e+00
1.00131190e+00
1.00137393e+00
1.00144221e+00
1.00151811e+00
1.00160326e+00
1.00169940e+00
1.00180827e+00
1.00193158e+00
1.00207093e+00
1.00222740e+00
1.00240154e+00
1.00259398e+00
1.00280453e+00
1.00303088e+00
1.00327128e+00
1.00352549e+00
1.00378761e+00
1.00404829e+00
1.00430925e+00
1.00456866e+00
1.00480296e+00
1.00500493e+00
1.00519643e+00
1.00535360e+00
1.00544005e+00
1.00549412e+00
9.95896566e-01
9.95931630e-01
9.95988440e-01
9.96066766e-01
9.96168531e-01
9.96292713e-01
9.96433005e-01
9.96585527e-01
9.96750594e-01
9.96926152e-01
9.97106357e-01
9.97288329e-01
9.97471929e-01
9.97654538e-01
9.97833003e-01
9.98006503e-01
9.98174473e-01
9.98335551e-01
9.98489025e-01
9.98634890e-01
9.98773019e-01
9.98903312e-01
9.99025974e-01
9.99141289e-01
9.99249500e-01
9.99350888e-01
9.99445756e-01
9.99534366e-01
9.99616945e-01
9.99693706e-01
9.99764841e-01
9.99830534e-01
9.99890971e-01
9.99946357e-01
9.99996917e-01
1.00004290e+00
1.00008457e+00
1.00012223e+00
1.00015617e+00
1.00018673e+00
1.00021421e+00
1.00023894e+00
1.00026124e+00
1.00028141e+00
1.00029975e+00
1.00031653e+00
1.00033201e+00
1.00034641e+00
1.00035995e+00
1.00037279e+00
1.00038507e+00
1.00039691e+00
1.00040840e+00
1.00041960e+00
1.00043052e+00
1.00044119e+00
1.00045156e+00
1.00046161e+00
1.00047128e+00
1.00048051e+00
1.00048921e+00
1.00049733e+00
1.00050480e+00
1.00051159e+00
1.00051770e+00
1.00052318e+00
1.00052810e+00
1.00053262e+00
1.00053693e+00
1.00054129e+00
1.00054600e+00
1.00055136e+00
1.00055771e+00
1.00056533e+00
1.00057448e+00
1.00058532e+00
1.00059794e+00
1.00061231e+00
1.00062832e+00
1.00064574e+00
1.00066432e+00
1.00068373e+00
1.00070367e+00
1.00072387e+00
1.00074415e+00
1.00076443e+00
1.00078476e+00
1.00080532e+00
1.00082641e+00
1.00084843e+00
1.00087183e+00
1.00089708e+00
1.00092462e+00
1.00095480e+00
1.00098788e+00
1.00102402e+00
1.00106324e+00
1.00110549e+00
1.00115071e+00
1.00119883e+00
1.00124992e+00
1.00130422e+00
1.00136219e+00
1.00142459e+00
1.00149247e+00
1.00156711e+00
1.00165006e+00
1.00174299e+00
1.00184770e+00
1.00196580e+00
1.00209886e+00
1.00224829e+00
1.00241490e+00
1.00259871e+00
1.00279991e+00
1.00301800e+00
1.00324986e+00
1.00349243e+00
1.00374483e+00
1.00400137e+00
1.00425197e+00
1.00449389e+00
1.00472558e+00
1.00493279e+00
1.00510576e+00
1.00524500e+00
1.00534526e+00
1.00540743e+00
9.95958984e-01
9.95991101e-01
9.96051913e-01
9.96125664e-01
9.96220996e-01
9.96343945e-01
9.96480551e-01
9.96627693e-01
9.96790741e-01
9.96963710e-01
9.97139253e-01
9.97318503e-01
9.97500379e-01
9.97679714e-01
9.97854784e-01
9.98025676e-01
9.98190579e-01
9.98347966e-01
9.98497798e-01
9.98639945e-01
9.98774016e-01
9.98900096e-01
9.99018529e-01
9.99129576e-01
9.99233546e-01
9.99330847e-01
9.99421869e-01
9.99506951e-01
9.99586411e-01
9.99660539e-01
9.99729581e-01
9.99793759e-01
9.99853282e-01
9.99908355e-01
9.99959185e-01
1.00000599e+00
1.00004898e+00
1.00008839e+00
1.00012446e+00
1.00015741e+00
1.00018749e+00
1.00021492e+00
1.00023996e+00
1.00026282e+00
1.00028374e+00
1.00030294e+00
1.00032063e+00
1.00033702e+00
1.00035230e+00
1.00036662e+00
1.00038015e+00
1.00039299e+00
1.00040526e+00
1.00041703e+00
1.00042833e+00
1.00043919e+00
1.00044962e+00
1.00045959e+00
1.00046909e+00
1.00047807e+00
1.00048652e+00
1.00049442e+00
1.00050176e+00
1.00050858e+00
1.00051490e+00
1.00052083e+00
1.00052646e+00
1.00053194e+00
1.00053745e+00
1.00054318e+00
1.00054934e+00
1.00055616e+00
1.00056383e+00
1.00057254e+00
1.00058245e+00
1.00059363e+00
1.00060615e+00
1.00061998e+00
1.00063505e+00
1.00065124e+00
1.00066842e+00
1.00068645e+00
1.00070519e+00
1.00072457e+00
1.00074457e+00
1.00076524e+00
1.00078671e+00
1.00080921e+00
1.00083302e+00
1.00085846e+00
1.00088586e+00
1.00091556e+00
1.00094782e+00
1.00098283e+00
1.00102070e+00
1.00106141e+00
1.00110490e+00
1.00115101e+00
1.00119961e+00
1.00125059e+00
1.00130397e+00
1.00135994e+00
1.00141892e+00
1.00148159e+00
1.00154890e+00
1.00162208e+00
1.00170257e+00
1.00179194e+00
1.00189196e+00
1.00200432e+00
1.00213048e+00
1.00227185e+00
1.00242977e+00
1.00260442e+00
1.00279517e+00
1.00300233e+00
1.00322469e+00
1.00345687e+00
1.00369595e+00
1.00394221e+00
1.00418603e+00
1.00441525e+00
1.00463379e+00
1.00483724e+00
1.00500174e+00
1.00513039e+00
1.00523483e+00
1.00529185e+00
9.96037013e-01
9.96064757e-01
9.96114606e-01
9.96191060e-01
9.96288630e-01
9.96401390e-01
9.96532086e-01
9.96680651e-01
9.96839318e-01
9.97004681e-01
9.97177954e-01
9.97355716e-01
9.97532530e-01
9.97707350e-01
9.97879781e-01
9.98047017e-01
9.98207259e-01
9.98360509e-01
9.98506302e-01
9.98643879e-01
9.98773274e-01
9.98894821e-01
9.99008683e-01
9.99115155e-01
9.99214727e-01
9.99307869e-01
9.99395006e-01
9.99476572e-01
9.99552967e-01
9.99624526e-01
9.99691536e-01
9.99754250e-01
9.99812890e-01
9.99867652e-01
9.99918722e-01
9.99966282e-01
1.00001050e+00
1.00005156e+00
1.00008962e+00
1.00012485e+00
1.00015741e+00
1.00018746e+00
1.00021517e+00
1.00024071e+00
1.00026424e+00
1.00028594e+00
1.00030597e+00
1.00032452e+00
1.00034173e+00
1.00035777e+00
1.00037277e+00
1.00038686e+00
1.00040014e+00
1.00041270e+00
1.00042459e+00
1.00043584e+00
1.00044649e+00
1.00045654e+00
1.00046600e+00
1.00047488e+00
1.00048320e+00
1.00049101e+00
1.00049836e+00
1.00050533e+00
1.00051201e+00
1.00051852e+00
1.00052499e+00
1.00053156e+00
1.00053837e+00
1.00054557e+00
1.00055326e+00
1.00056158e+00
1.00057061e+00
1.00058043e+00
1.00059108e+00
1.00060261e+00
1.00061501e+00
1.00062828e+00
1.00064243e+00
1.00065744e+00
1.00067334e+00
1.00069014e+00
1.00070792e+00
1.00072677e+00
1.00074685e+00
1.00076833e+00
1.00079143e+00
1.00081637e+00
1.00084341e+00
1.00087278e+00
1.00090467e+00
1.00093924e+00
1.00097657e+00
1.00101668e+00
1.00105950e+00
1.00110489e+00
1.00115265e+00
1.00120256e+00
1.00125441e+00
1.00130809e+00
1.00136356e+00
1.00142098e+00
1.00148074e+00
1.00154345e+00
1.00160998e+00
1.00168145e+00
1.00175922e+00
1.00184481e+00
1.00193977e+00
1.00204589e+00
1.00216482e+00
1.00229772e+00
1.00244578e+00
1.00261024e+00
1.00279074e+00
1.00298560e+00
1.00319477e+00
1.00341690e+00
1.00364518e+00
1.00387476e+00
1.00410600e+00
1.00433071e+00
1.00453573e+00
1.00472053e+00
1.00488399e+00
1.00501259e+00
1.00509958e+00
1.00514954e+00
9.96116831e-01
9.96145506e-01
9.96192411e-01
9.96265925e-01
9.96359431e-01
9.96467593e-01
9.96595220e-01
9.96738921e-01
9.96891564e-01
9.97053491e-01
9.97223535e-01
9.97395713e-01
9.97567591e-01
9.97739018e-01
9.97907002e-01
9.98068874e-01
9.98224433e-01
9.98373134e-01
9.98513791e-01
9.98646204e-01
9.98770705e-01
9.98887348e-01
9.98996317e-01
9.99098124e-01
9.99193292e-01
9.99282288e-01
9.99365626e-01
9.99443814e-01
9.99517287e-01
9.99586414e-01
9.99651517e-01
9.99712862e-01
9.99770666e-01
9.99825115e-01
9.99876373e-01
9.99924587e-01
9.99969888e-01
1.00001240e+00
1.00005224e+00
1.00008952e+00
1.00012435e+00
1.00015682e+00
1.00018704e+00
1.00021514e+00
1.00024122e+00
1.00026541e+00
1.00028784e+00
1.00030863e+00
1.00032793e+00
1.00034586e+00
1.00036255e+00
1.00037810e+00
1.00039263e+00
1.00040620e+00
1.00041888e+00
1.00043073e+00
1.00044179e+00
1.00045210e+00
1.00046170e+00
1.00047066e+00
1.00047904e+00
1.00048693e+00
1.00049446e+00
1.00050176e+00
1.00050896e+00
1.00051623e+00
1.00052370e+00
1.00053150e+00
1.00053973e+00
1.00054847e+00
1.00055776e+00
1.00056762e+00
1.00057802e+00
1.00058893e+00
1.00060032e+00
1.00061216e+00
1.00062445e+00
1.00063720e+00
1.00065049e+00
1.00066445e+00
1.00067924e+00
1.00069508e+00
1.00071223e+00
1.00073098e+00
1.00075162e+00
1.00077444e+00
1.00079972e+00
1.00082767e+00
1.00085848e+00
1.00089226e+00
1.00092904e+00
1.00096878e+00
1.00101138e+00
1.00105666e+00
1.00110439e+00
1.00115429e+00
1.00120607e+00
1.00125946e+00
1.00131421e+00
1.00137019e+00
1.00142738e+00
1.00148592e+00
1.00154615e+00
1.00160863e+00
1.00167417e+00
1.00174375e+00
1.00181863e+00
1.00190024e+00
1.00199007e+00
1.00208967e+00
1.00220083e+00
1.00232507e+00
1.00246318e+00
1.00261611e+00
1.00278496e+00
1.00296841e+00
1.00316385e+00
1.00337110e+00
1.00358775e+00
1.00380530e+00
1.00401979e+00
1.00423092e+00
1.00442744e+00
1.00459956e+00
1.00475077e+00
1.00487319e+00
1.00495523e+00
1.00500310e+00
9.96202867e-01
9.96232164e-01
9.96282234e-01
9.96348801e-01
9.96435099e-01
9.96543388e-01
9.96667108e-01
9.96802049e-01
9.96950547e-01
9.97109769e-01
9.97273057e-01
9.97438927e-01
9.97607098e-01
9.97773470e-01
9.97934954e-01
9.98091461e-01
9.98242044e-01
9.98384906e-01
9.98519732e-01
9.98646853e-01
9.98766080e-01
9.98877430e-01
9.98981441e-01
9.99078632e-01
9.99169435e-01
9.99254412e-01
9.99334160e-01
9.99409191e-01
9.99479952e-01
9.99546852e-01
9.99610224e-01
9.99670324e-01
9.99727360e-01
9.99781504e-01
9.99832892e-01
9.99881637e-01
9.99927838e-01
9.99971581e-01
1.00001294e+00
1.00005199e+00
1.00008879e+00
1.00012341e+00
1.00015591e+00
1.00018636e+00
1.00021483e+00
1.00024142e+00
1.00026619e+00
1.00028926e+00
1.00031071e+00
1.00033064e+00
1.00034916e+00
1.00036635e+00
1.00038230e+00
1.00039709e+00
1.00041078e+00
1.00042344e+00
1.00043513e+00
1.00044592e+00
1.00045589e+00
1.00046514e+00
1.00047380e+00
1.00048202e+00
1.00048996e+00
1.00049780e+00
1.00050574e+00
1.00051394e+00
1.00052256e+00
1.00053170e+00
1.00054144e+00
1.00055179e+00
1.00056270e+00
1.00057408e+00
1.00058583e+00
1.00059782e+00
1.00060995e+00
1.00062213e+00
1.00063436e+00
1.00064671e+00
1.00065933e+00
1.00067249e+00
1.00068651e+00
1.00070180e+00
1.00071879e+00
1.00073796e+00
1.00075972e+00
1.00078446e+00
1.00081247e+00
1.00084396e+00
1.00087900e+00
1.00091756e+00
1.00095949e+00
1.00100456e+00
1.00105245e+00
1.00110279e+00
1.00115519e+00
1.00120926e+00
1.00126463e+00
1.00132100e+00
1.00137812e+00
1.00143587e+00
1.00149424e+00
1.00155342e+00
1.00161370e+00
1.00167561e+00
1.00173988e+00
1.00180741e+00
1.00187927e+00
1.00195676e+00
1.00204138e+00
1.00213458e+00
1.00223779e+00
1.00235281e+00
1.00248107e+00
1.00262275e+00
1.00277837e+00
1.00294888e+00
1.00313207e+00
1.00332393e+00
1.00352390e+00
1.00372931e+00
1.00393070e+00
1.00412298e+00
1.00430625e+00
1.00447145e+00
1.00460878e+00
1.00471772e+00
1.00479811e+00
1.00484496e+00
9.96302411e-01
9.96328630e-01
9.96375434e-01
9.96439777e-01
9.96523325e-01
9.96625838e-01
9.96742679e-01
9.96873462e-01
9.97017438e-01
9.97169195e-01
9.97326046e-01
9.97487415e-01
9.97649460e-01
9.97808566e-01
9.97964166e-01
9.98115062e-01
9.98259009e-01
9.98395399e-01
9.98524475e-01
9.98645827e-01
9.98759266e-01
9.98865303e-01
9.98964422e-01
9.99056978e-01
9.99143525e-01
9.99224714e-01
9.99301099e-01
9.99373191e-01
9.99441477e-01
9.99506366e-01
9.99568171e-01
9.99627145e-01
9.99683480e-01
9.99737322e-01
9.99788776e-01
9.99837930e-01
9.99884851e-01
9.99929595e-01
9.99972211e-01
1.00001274e+00
1.00005122e+00
1.00008768e+00
1.00012217e+00
1.00015473e+00
1.00018539e+00
1.00021419e+00
1.00024121e+00
1.00026648e+00
1.00029006e+00
1.00031204e+00
1.00033245e+00
1.00035138e+00
1.00036890e+00
1.00038506e+00
1.00039993e+00
1.00041359e+00
1.00042612e+00
1.00043761e+00
1.00044819e+00
1.00045800e+00
1.00046720e+00
1.00047601e+00
1.00048462e+00
1.00049327e+00
1.00050217e+00
1.00051152e+00
1.00052145e+00
1.00053207e+00
1.00054339e+00
1.00055538e+00
1.00056790e+00
1.00058081e+00
1.00059389e+00
1.00060694e+00
1.00061981e+00
1.00063240e+00
1.00064471e+00
1.00065685e+00
1.00066910e+00
1.00068182e+00
1.00069552e+00
1.00071078e+00
1.00072820e+00
1.00074839e+00
1.00077189e+00
1.00079915e+00
1.00083047e+00
1.00086597e+00
1.00090563e+00
1.00094924e+00
1.00099646e+00
1.00104683e+00
1.00109985e+00
1.00115495e+00
1.00121160e+00
1.00126930e+00
1.00132766e+00
1.00138634e+00
1.00144515e+00
1.00150400e+00
1.00156295e+00
1.00162219e+00
1.00168206e+00
1.00174304e+00
1.00180575e+00
1.00187103e+00
1.00193983e+00
1.00201322e+00
1.00209253e+00
1.00217932e+00
1.00227494e+00
1.00238067e+00
1.00249828e+00
1.00262894e+00
1.00277216e+00
1.00292794e+00
1.00309675e+00
1.00327528e+00
1.00345887e+00
1.00364639e+00
1.00383392e+00
1.00401242e+00
1.00417833e+00
1.00432931e+00
1.00445707e+00
1.00455742e+00
1.00463050e+00
1.00467137e+00
9.96410241e-01
9.96434703e-01
9.96476197e-01
9.96538788e-01
9.96619342e-01
9.96714226e-01
9.96825493e-01
9.96952269e-01
9.97088665e-01
9.97232697e-01
9.97384321e-01
9.97539115e-01
9.97692999e-01
9.97845416e-01
9.97994831e-01
9.98138330e-01
9.98275047e-01
9.98405162e-01
9.98527932e-01
9.98642899e-01
9.98750570e-01
9.98851373e-01
9.98945513e-01
9.99033502e-01
9.99116023e-01
9.99193628e-01
9.99266843e-01
9.99336226e-01
9.99402258e-01
9.99465313e-01
9.99525696e-01
9.99583649e-01
9.99639338e-01
9.99692876e-01
9.99744346e-01
9.99793806e-01
9.99841297e-01
9.99886849e-01
9.99930489e-01
9.99972240e-01
1.00001212e+00
1.00005015e+00
1.00008635e+00
1.00012074e+00
1.00015333e+00
1.00018415e+00
1.00021321e+00
1.00024054e+00
1.00026617e+00
1.00029011e+00
1.00031241e+00
1.00033310e+00
1.00035223e+00
1.00036985e+00
1.00038604e+00
1.00040087e+00
1.00041443e+00
1.00042686e+00
1.00043830e+00
1.00044894e+00
1.00045898e+00
1.00046867e+00
1.00047825e+00
1.00048798e+00
1.00049808e+00
1.00050877e+00
1.00052017e+00
1.00053237e+00
1.00054533e+00
1.00055897e+00
1.00057311e+00
1.00058750e+00
1.00060190e+00
1.00061605e+00
1.00062974e+00
1.00064288e+00
1.00065550e+00
1.00066777e+00
1.00068005e+00
1.00069286e+00
1.00070682e+00
1.00072268e+00
1.00074118e+00
1.00076306e+00
1.00078895e+00
1.00081930e+00
1.00085440e+00
1.00089430e+00
1.00093882e+00
1.00098758e+00
1.00104004e+00
1.00109554e+00
1.00115334e+00
1.00121274e+00
1.00127306e+00
1.00133374e+00
1.00139435e+00
1.00145459e+00
1.00151431e+00
1.00157352e+00
1.00163235e+00
1.00169104e+00
1.00174997e+00
1.00180961e+00
1.00187050e+00
1.00193331e+00
1.00199893e+00
1.00206831e+00
1.00214249e+00
1.00222281e+00
1.00231091e+00
1.00240797e+00
1.00251501e+00
1.00263372e+00
1.00276487e+00
1.00290711e+00
1.00305978e+00
1.00322278e+00
1.00339192e+00
1.00356175e+00
1.00373090e+00
1.00389516e+00
1.00404615e+00
1.00418032e+00
1.00429646e+00
1.00438837e+00
1.00445177e+00
1.00448792e+00
9.96523206e-01
9.96547247e-01
9.96587671e-01
9.96645528e-01
9.96719940e-01
9.96810329e-01
9.96916450e-01
9.97035002e-01
9.97163722e-01
9.97301960e-01
9.97446045e-01
9.97591974e-01
9.97738651e-01
9.97884210e-01
9.98025421e-01
9.98161044e-01
9.98290989e-01
9.98414190e-01
9.98529928e-01
9.98638642e-01
9.98740663e-01
9.98836032e-01
9.98925201e-01
9.99008850e-01
9.99087487e-01
9.99161617e-01
9.99231839e-01
9.99298691e-01
9.99362597e-01
9.99423926e-01
9.99482981e-01
9.99539969e-01
9.99595028e-01
9.99648253e-01
9.99699698e-01
9.99749389e-01
9.99797343e-01
9.99843568e-01
9.99888070e-01
9.99930853e-01
9.99971925e-01
1.00001129e+00
1.00004896e+00
1.00008493e+00
1.00011921e+00
1.00015179e+00
1.00018268e+00
1.00021186e+00
1.00023933e+00
1.00026510e+00
1.00028916e+00
1.00031154e+00
1.00033227e+00
1.00035138e+00
1.00036895e+00
1.00038506e+00
1.00039983e+00
1.00041340e+00
1.00042595e+00
1.00043770e+00
1.00044888e+00
1.00045975e+00
1.00047059e+00
1.00048167e+00
1.00049323e+00
1.00050545e+00
1.00051847e+00
1.00053233e+00
1.00054699e+00
1.00056230e+00
1.00057803e+00
1.00059392e+00
1.00060965e+00
1.00062496e+00
1.00063962e+00
1.00065354e+00
1.00066679e+00
1.00067963e+00
1.00069249e+00
1.00070599e+00
1.00072090e+00
1.00073808e+00
1.00075840e+00
1.00078266e+00
1.00081154e+00
1.00084552e+00
1.00088480e+00
1.00092935e+00
1.00097884e+00
1.00103269e+00
1.00109017e+00
1.00115041e+00
1.00121250e+00
1.00127557e+00
1.00133885e+00
1.00140173e+00
1.00146378e+00
1.00152475e+00
1.00158458e+00
1.00164338e+00
1.00170139e+00
1.00175892e+00
1.00181639e+00
1.00187424e+00
1.00193301e+00
1.00199324e+00
1.00205557e+00
1.00212089e+00
1.00219016e+00
1.00226436e+00
1.00234484e+00
1.00243327e+00
1.00253064e+00
1.00263758e+00
1.00275549e+00
1.00288454e+00
1.00302262e+00
1.00316833e+00
1.00332074e+00
1.00347502e+00
1.00362610e+00
1.00377181e+00
1.00390776e+00
1.00402785e+00
1.00412958e+00
1.00421044e+00
1.00426776e+00
1.00429982e+00
9.96644894e-01
9.96667521e-01
9.96705919e-01
9.96758754e-01
9.96827714e-01
9.96913196e-01
9.97011977e-01
9.97122257e-01
9.97244259e-01
9.97374703e-01
9.97509444e-01
9.97647339e-01
9.97786503e-01
9.97923257e-01
9.98055937e-01
9.98184219e-01
9.98306675e-01
9.98422222e-01
9.98531187e-01
9.98633792e-01
9.98729873e-01
9.98819796e-01
9.98904234e-01
9.98983619e-01
9.99058391e-01
9.99129164e-01
9.99196509e-01
9.99260878e-01
9.99322696e-01
9.99382339e-01
9.99440076e-01
9.99496091e-01
9.99550508e-01
9.99603397e-01
9.99654784e-01
9.99704666e-01
9.99753034e-01
9.99799868e-01
9.99845151e-01
9.99888866e-01
9.99931003e-01
9.99971552e-01
1.00001051e+00
1.00004786e+00
1.00008359e+00
1.00011769e+00
1.00015014e+00
1.00018092e+00
1.00021000e+00
1.00023736e+00
1.00026300e+00
1.00028692e+00
1.00030913e+00
1.00032969e+00
1.00034865e+00
1.00036611e+00
1.00038221e+00
1.00039710e+00
1.00041099e+00
1.00042410e+00
1.00043669e+00
1.00044905e+00
1.00046143e+00
1.00047412e+00
1.00048734e+00
1.00050128e+00
1.00051604e+00
1.00053165e+00
1.00054803e+00
1.00056502e+00
1.00058236e+00
1.00059977e+00
1.00061691e+00
1.00063351e+00
1.00064936e+00
1.00066440e+00
1.00067874e+00
1.00069270e+00
1.00070678e+00
1.00072170e+00
1.00073833e+00
1.00075760e+00
1.00078047e+00
1.00080778e+00
1.00084023e+00
1.00087825e+00
1.00092199e+00
1.00097129e+00
1.00102566e+00
1.00108436e+00
1.00114645e+00
1.00121090e+00
1.00127661e+00
1.00134261e+00
1.00140805e+00
1.00147229e+00
1.00153492e+00
1.00159579e+00
1.00165493e+00
1.00171257e+00
1.00176906e+00
1.00182484e+00
1.00188034e+00
1.00193602e+00
1.00199233e+00
1.00204978e+00
1.00210884e+00
1.00217009e+00
1.00223444e+00
1.00230287e+00
1.00237627e+00
1.00245600e+00
1.00254368e+00
1.00263993e+00
1.00274496e+00
1.00285963e+00
1.00298343e+00
1.00311341e+00
1.00324770e+00
1.00338458e+00
1.00351908e+00
1.00364649e+00
1.00376491e+00
1.00387058e+00
1.00395886e+00
1.00402788e+00
1.00407755e+00
1.00410521e+00
9.96774779e-01
9.96794915e-01
9.96829448e-01
9.96878707e-01
9.96942816e-01
9.97020683e-01
9.97111515e-01
9.97214917e-01
9.97328556e-01
9.97449153e-01
9.97575360e-01
9.97705150e-01
9.97834870e-01
9.97962519e-01
9.98087369e-01
9.98207619e-01
9.98321846e-01
9.98430154e-01
9.98532572e-01
9.98628713e-01
9.98718849e-01
9.98803616e-01
9.98883345e-01
9.98958390e-01
9.99029361e-01
9.99096827e-01
9.99161237e-01
9.99223058e-01
9.99282741e-01
9.99340624e-01
9.99396955e-01
9.99451921e-01
9.99505634e-01
9.99558138e-01
9.99609434e-01
9.99659494e-01
9.99708275e-01
9.99755724e-01
9.99801790e-01
9.99846427e-01
9.99889598e-01
9.99931268e-01
9.99971409e-01
1.00001000e+00
1.00004701e+00
1.00008241e+00
1.00011618e+00
1.00014828e+00
1.00017869e+00
1.00020738e+00
1.00023434e+00
1.00025957e+00
1.00028310e+00
1.00030498e+00
1.00032527e+00
1.00034410e+00
1.00036160e+00
1.00037794e+00
1.00039335e+00
1.00040805e+00
1.00042231e+00
1.00043639e+00
1.00045057e+00
1.00046509e+00
1.00048017e+00
1.00049597e+00
1.00051259e+00
1.00053001e+00
1.00054816e+00
1.00056686e+00
1.00058585e+00
1.00060484e+00
1.00062352e+00
1.00064163e+00
1.00065899e+00
1.00067558e+00
1.00069154e+00
1.00070726e+00
1.00072329e+00
1.00074043e+00
1.00075958e+00
1.00078173e+00
1.00080787e+00
1.00083885e+00
1.00087534e+00
1.00091772e+00
1.00096604e+00
1.00102001e+00
1.00107901e+00
1.00114213e+00
1.00120826e+00
1.00127620e+00
1.00134476e+00
1.00141284e+00
1.00147956e+00
1.00154428e+00
1.00160666e+00
1.00166661e+00
1.00172430e+00
1.00178011e+00
1.00183448e+00
1.00188794e+00
1.00194102e+00
1.00199418e+00
1.00204778e+00
1.00210221e+00
1.00215789e+00
1.00221521e+00
1.00227472e+00
1.00233734e+00
1.00240410e+00
1.00247580e+00
1.00255370e+00
1.00263922e+00
1.00273255e+00
1.00283330e+00
1.00294168e+00
1.00305636e+00
1.00317401e+00
1.00329227e+00
1.00340894e+00
1.00351956e+00
1.00362051e+00
1.00370977e+00
1.00378484e+00
1.00384338e+00
1.00388480e+00
1.00390697e+00
9.96910457e-01
9.96928840e-01
9.96959725e-01
9.97004353e-01
9.97062307e-01
9.97132709e-01
9.97216069e-01
9.97311016e-01
9.97414848e-01
9.97526293e-01
9.97643742e-01
9.97763681e-01
9.97883797e-01
9.98003054e-01
9.98119386e-01
9.98230945e-01
9.98337500e-01
9.98438842e-01
9.98534330e-01
9.98624067e-01
9.98708625e-01
9.98788222e-01
9.98863109e-01
9.98933866e-01
9.99001041e-01
9.99065046e-01
9.99126365e-01
9.99185510e-01
9.99242885e-01
9.99298814e-01
9.99353571e-01
9.99407345e-01
9.99460235e-01
9.99512271e-01
9.99563439e-01
9.99613678e-01
9.99662906e-01
9.99711029e-01
9.99757952e-01
9.99803583e-01
9.99847843e-01
9.99890660e-01
9.99931976e-01
9.99971739e-01
1.00000991e+00
1.00004644e+00
1.00008131e+00
1.00011449e+00
1.00014594e+00
1.00017568e+00
1.00020368e+00
1.00022997e+00
1.00025460e+00
1.00027763e+00
1.00029915e+00
1.00031929e+00
1.00033821e+00
1.00035609e+00
1.00037314e+00
1.00038959e+00
1.00040570e+00
1.00042171e+00
1.00043787e+00
1.00045440e+00
1.00047149e+00