# vtk DataFile Version 2.0
LBM Flow Field - Timestep 3090
ASCII
DATASET STRUCTURED_POINTS
DIMENSIONS 128 128 1
ORIGIN 0.0 0.0 0.0
SPACING 1.0 1.0 1.0
POINT_DATA 16384
SCALARS density double 1
LOOKUP_TABLE default
1.00111908e+00
1.00111811e+00
1.00111643e+00
1.00111847e+00
1.00112035e+00
1.00111959e+00
1.00112044e+00
1.00112261e+00
1.00112438e+00
1.00112626e+00
1.00112999e+00
1.00113469e+00
1.00113999e+00
1.00114671e+00
1.00115521e+00
1.00116491e+00
1.00117595e+00
1.00118873e+00
1.00120309e+00
1.00121871e+00
1.00123573e+00
1.00125413e+00
1.00127360e+00
1.00129397e+00
1.00131518e+00
1.00133702e+00
1.00135922e+00
1.00138164e+00
1.00140413e+00
1.00142647e+00
1.00144851e+00
1.00147013e+00
1.00149121e+00
1.00151163e+00
1.00153133e+00
1.00155025e+00
1.00156835e+00
1.00158558e+00
1.00160195e+00
1.00161744e+00
1.00163205e+00
1.00164579e+00
1.00165867e+00
1.00167070e+00
1.00168190e+00
1.00169230e+00
1.00170192e+00
1.00171081e+00
1.00171901e+00
1.00172659e+00
1.00173362e+00
1.00174019e+00
1.00174638e+00
1.00175232e+00
1.00175811e+00
1.00176388e+00
1.00176974e+00
1.00177580e+00
1.00178217e+00
1.00178893e+00
1.00179615e+00
1.00180386e+00
1.00181207e+00
1.00182075e+00
1.00182984e+00
1.00183925e+00
1.00184882e+00
1.00185841e+00
1.00186780e+00
1.00187678e+00
1.00188511e+00
1.00189252e+00
1.00189877e+00
1.00190358e+00
1.00190672e+00
1.00190793e+00
1.00190702e+00
1.00190378e+00
1.00189807e+00
1.00188975e+00
1.00187874e+00
1.00186499e+00
1.00184849e+00
1.00182925e+00
1.00180734e+00
1.00178283e+00
1.00175585e+00
1.00172653e+00
1.00169503e+00
1.00166154e+00
1.00162624e+00
1.00158936e+00
1.00155110e+00
1.00151171e+00
1.00147142e+00
1.00143048e+00
1.00138914e+00
1.00134767e+00
1.00130633e+00
1.00126538e+00
1.00122511e+00
1.00118574e+00
1.00114757e+00
1.00111085e+00
1.00107579e+00
1.00104258e+00
1.00101149e+00
1.00098270e+00
1.00095620e+00
1.00093217e+00
1.00091085e+00
1.00089207e+00
1.00087564e+00
1.00086186e+00
1.00085077e+00
1.00084155e+00
1.00083424e+00
1.00082948e+00
1.00082645e+00
1.00082374e+00
1.00082286e+00
1.00082412e+00
1.00082493e+00
1.00082471e+00
1.00082789e+00
1.00083131e+00
1.00083070e+00
1.00083072e+00
1.00111927e+00
1.00112106e+00
1.00112078e+00
1.00112118e+00
1.00112354e+00
1.00112380e+00
1.00112468e+00
1.00112639e+00
1.00112878e+00
1.00113107e+00
1.00113467e+00
1.00113937e+00
1.00114506e+00
1.00115183e+00
1.00116021e+00
1.00116998e+00
1.00118111e+00
1.00119376e+00
1.00120798e+00
1.00122355e+00
1.00124043e+00
1.00125859e+00
1.00127786e+00
1.00129804e+00
1.00131899e+00
1.00134056e+00
1.00136251e+00
1.00138468e+00
1.00140690e+00
1.00142901e+00
1.00145082e+00
1.00147222e+00
1.00149310e+00
1.00151336e+00
1.00153290e+00
1.00155169e+00
1.00156968e+00
1.00158683e+00
1.00160313e+00
1.00161857e+00
1.00163315e+00
1.00164687e+00
1.00165975e+00
1.00167180e+00
1.00168302e+00
1.00169346e+00
1.00170313e+00
1.00171208e+00
1.00172035e+00
1.00172799e+00
1.00173509e+00
1.00174172e+00
1.00174797e+00
1.00175395e+00
1.00175976e+00
1.00176553e+00
1.00177137e+00
1.00177738e+00
1.00178367e+00
1.00179032e+00
1.00179739e+00
1.00180491e+00
1.00181290e+00
1.00182133e+00
1.00183015e+00
1.00183925e+00
1.00184850e+00
1.00185776e+00
1.00186682e+00
1.00187547e+00
1.00188347e+00
1.00189058e+00
1.00189655e+00
1.00190111e+00
1.00190403e+00
1.00190507e+00
1.00190401e+00
1.00190068e+00
1.00189491e+00
1.00188657e+00
1.00187558e+00
1.00186189e+00
1.00184547e+00
1.00182635e+00
1.00180457e+00
1.00178021e+00
1.00175339e+00
1.00172423e+00
1.00169290e+00
1.00165958e+00
1.00162444e+00
1.00158771e+00
1.00154960e+00
1.00151034e+00
1.00147018e+00
1.00142935e+00
1.00138811e+00
1.00134673e+00
1.00130546e+00
1.00126458e+00
1.00122435e+00
1.00118503e+00
1.00114688e+00
1.00111017e+00
1.00107509e+00
1.00104189e+00
1.00101077e+00
1.00098188e+00
1.00095533e+00
1.00093127e+00
1.00090981e+00
1.00089082e+00
1.00087436e+00
1.00086050e+00
1.00084906e+00
1.00083963e+00
1.00083246e+00
1.00082738e+00
1.00082383e+00
1.00082125e+00
1.00082070e+00
1.00082108e+00
1.00082155e+00
1.00082219e+00
1.00082548e+00
1.00082696e+00
1.00082750e+00
1.00082985e+00
1.00112111e+00
1.00112505e+00
1.00113010e+00
1.00112951e+00
1.00112906e+00
1.00113138e+00
1.00113329e+00
1.00113391e+00
1.00113609e+00
1.00113957e+00
1.00114303e+00
1.00114724e+00
1.00115326e+00
1.00116039e+00
1.00116842e+00
1.00117804e+00
1.00118935e+00
1.00120189e+00
1.00121577e+00
1.00123123e+00
1.00124801e+00
1.00126585e+00
1.00128481e+00
1.00130478e+00
1.00132545e+00
1.00134666e+00
1.00136832e+00
1.00139022e+00
1.00141212e+00
1.00143392e+00
1.00145548e+00
1.00147663e+00
1.00149727e+00
1.00151731e+00
1.00153667e+00
1.00155529e+00
1.00157313e+00
1.00159016e+00
1.00160637e+00
1.00162173e+00
1.00163625e+00
1.00164993e+00
1.00166278e+00
1.00167481e+00
1.00168603e+00
1.00169646e+00
1.00170614e+00
1.00171509e+00
1.00172337e+00
1.00173101e+00
1.00173810e+00
1.00174471e+00
1.00175093e+00
1.00175685e+00
1.00176260e+00
1.00176827e+00
1.00177397e+00
1.00177983e+00
1.00178592e+00
1.00179234e+00
1.00179916e+00
1.00180640e+00
1.00181407e+00
1.00182217e+00
1.00183063e+00
1.00183936e+00
1.00184824e+00
1.00185712e+00
1.00186581e+00
1.00187410e+00
1.00188177e+00
1.00188857e+00
1.00189426e+00
1.00189858e+00
1.00190130e+00
1.00190217e+00
1.00190099e+00
1.00189758e+00
1.00189177e+00
1.00188344e+00
1.00187248e+00
1.00185885e+00
1.00184252e+00
1.00182350e+00
1.00180183e+00
1.00177759e+00
1.00175089e+00
1.00172186e+00
1.00169064e+00
1.00165740e+00
1.00162235e+00
1.00158568e+00
1.00154760e+00
1.00150836e+00
1.00146819e+00
1.00142734e+00
1.00138605e+00
1.00134460e+00
1.00130326e+00
1.00126227e+00
1.00122191e+00
1.00118248e+00
1.00114420e+00
1.00110731e+00
1.00107208e+00
1.00103875e+00
1.00100742e+00
1.00097829e+00
1.00095162e+00
1.00092741e+00
1.00090558e+00
1.00088637e+00
1.00086992e+00
1.00085574e+00
1.00084373e+00
1.00083441e+00
1.00082734e+00
1.00082141e+00
1.00081737e+00
1.00081581e+00
1.00081478e+00
1.00081348e+00
1.00081480e+00
1.00081748e+00
1.00081761e+00
1.00081768e+00
1.00082311e+00
1.00082721e+00
1.00113397e+00
1.00113702e+00
1.00113922e+00
1.00114042e+00
1.00114128e+00
1.00114257e+00
1.00114405e+00
1.00114579e+00
1.00114795e+00
1.00115090e+00
1.00115462e+00
1.00115923e+00
1.00116492e+00
1.00117187e+00
1.00118008e+00
1.00118962e+00
1.00120059e+00
1.00121299e+00
1.00122678e+00
1.00124192e+00
1.00125835e+00
1.00127597e+00
1.00129463e+00
1.00131419e+00
1.00133452e+00
1.00135541e+00
1.00137671e+00
1.00139823e+00
1.00141982e+00
1.00144130e+00
1.00146255e+00
1.00148342e+00
1.00150381e+00
1.00152363e+00
1.00154278e+00
1.00156123e+00
1.00157892e+00
1.00159582e+00
1.00161190e+00
1.00162717e+00
1.00164160e+00
1.00165520e+00
1.00166798e+00
1.00167994e+00
1.00169109e+00
1.00170146e+00
1.00171106e+00
1.00171993e+00
1.00172811e+00
1.00173566e+00
1.00174264e+00
1.00174912e+00
1.00175519e+00
1.00176096e+00
1.00176652e+00
1.00177198e+00
1.00177746e+00
1.00178306e+00
1.00178887e+00
1.00179499e+00
1.00180147e+00
1.00180836e+00
1.00181566e+00
1.00182337e+00
1.00183142e+00
1.00183974e+00
1.00184821e+00
1.00185667e+00
1.00186496e+00
1.00187287e+00
1.00188018e+00
1.00188664e+00
1.00189203e+00
1.00189608e+00
1.00189857e+00
1.00189925e+00
1.00189793e+00
1.00189441e+00
1.00188853e+00
1.00188016e+00
1.00186920e+00
1.00185559e+00
1.00183930e+00
1.00182033e+00
1.00179872e+00
1.00177454e+00
1.00174789e+00
1.00171889e+00
1.00168770e+00
1.00165447e+00
1.00161939e+00
1.00158267e+00
1.00154453e+00
1.00150519e+00
1.00146489e+00
1.00142388e+00
1.00138243e+00
1.00134078e+00
1.00129923e+00
1.00125802e+00
1.00121744e+00
1.00117775e+00
1.00113921e+00
1.00110208e+00
1.00106659e+00
1.00103295e+00
1.00100137e+00
1.00097202e+00
1.00094502e+00
1.00092048e+00
1.00089848e+00
1.00087903e+00
1.00086211e+00
1.00084767e+00
1.00083563e+00
1.00082587e+00
1.00081818e+00
1.00081240e+00
1.00080836e+00
1.00080584e+00
1.00080444e+00
1.00080411e+00
1.00080474e+00
1.00080587e+00
1.00080701e+00
1.00080881e+00
1.00081146e+00
1.00081444e+00
1.00115071e+00
1.00115262e+00
1.00115269e+00
1.00115537e+00
1.00115751e+00
1.00115756e+00
1.00115863e+00
1.00116141e+00
1.00116370e+00
1.00116599e+00
1.00116989e+00
1.00117490e+00
1.00118030e+00
1.00118695e+00
1.00119527e+00
1.00120473e+00
1.00121531e+00
1.00122748e+00
1.00124112e+00
1.00125589e+00
1.00127190e+00
1.00128919e+00
1.00130748e+00
1.00132658e+00
1.00134647e+00
1.00136696e+00
1.00138782e+00
1.00140890e+00
1.00143009e+00
1.00145120e+00
1.00147208e+00
1.00149261e+00
1.00151271e+00
1.00153225e+00
1.00155116e+00
1.00156939e+00
1.00158689e+00
1.00160361e+00
1.00161955e+00
1.00163468e+00
1.00164899e+00
1.00166248e+00
1.00167514e+00
1.00168698e+00
1.00169802e+00
1.00170826e+00
1.00171774e+00
1.00172647e+00
1.00173450e+00
1.00174188e+00
1.00174867e+00
1.00175495e+00
1.00176080e+00
1.00176633e+00
1.00177162e+00
1.00177679e+00
1.00178196e+00
1.00178721e+00
1.00179265e+00
1.00179837e+00
1.00180443e+00
1.00181087e+00
1.00181770e+00
1.00182492e+00
1.00183247e+00
1.00184028e+00
1.00184825e+00
1.00185621e+00
1.00186402e+00
1.00187146e+00
1.00187833e+00
1.00188439e+00
1.00188940e+00
1.00189313e+00
1.00189534e+00
1.00189579e+00
1.00189428e+00
1.00189062e+00
1.00188464e+00
1.00187621e+00
1.00186522e+00
1.00185161e+00
1.00183533e+00
1.00181639e+00
1.00179481e+00
1.00177066e+00
1.00174403e+00
1.00171503e+00
1.00168381e+00
1.00165053e+00
1.00161538e+00
1.00157854e+00
1.00154025e+00
1.00150073e+00
1.00146022e+00
1.00141898e+00
1.00137726e+00
1.00133533e+00
1.00129346e+00
1.00125193e+00
1.00121102e+00
1.00117097e+00
1.00113208e+00
1.00109461e+00
1.00105876e+00
1.00102473e+00
1.00099281e+00
1.00096314e+00
1.00093574e+00
1.00091079e+00
1.00088852e+00
1.00086873e+00
1.00085129e+00
1.00083653e+00
1.00082437e+00
1.00081406e+00
1.00080574e+00
1.00080004e+00
1.00079589e+00
1.00079227e+00
1.00079062e+00
1.00079112e+00
1.00079093e+00
1.00079042e+00
1.00079276e+00
1.00079577e+00
1.00079586e+00
1.00079786e+00
1.00116900e+00
1.00117157e+00
1.00117347e+00
1.00117444e+00
1.00117534e+00
1.00117698e+00
1.00117865e+00
1.00118018e+00
1.00118246e+00
1.00118561e+00
1.00118923e+00
1.00119365e+00
1.00119931e+00
1.00120608e+00
1.00121391e+00
1.00122307e+00
1.00123365e+00
1.00124549e+00
1.00125860e+00
1.00127307e+00
1.00128876e+00
1.00130551e+00
1.00132328e+00
1.00134196e+00
1.00136135e+00
1.00138129e+00
1.00140165e+00
1.00142228e+00
1.00144298e+00
1.00146363e+00
1.00148410e+00
1.00150425e+00
1.00152397e+00
1.00154319e+00
1.00156182e+00
1.00157978e+00
1.00159705e+00
1.00161357e+00
1.00162931e+00
1.00164427e+00
1.00165841e+00
1.00167173e+00
1.00168424e+00
1.00169592e+00
1.00170678e+00
1.00171685e+00
1.00172612e+00
1.00173464e+00
1.00174245e+00
1.00174958e+00
1.00175611e+00
1.00176210e+00
1.00176764e+00
1.00177282e+00
1.00177775e+00
1.00178254e+00
1.00178728e+00
1.00179209e+00
1.00179706e+00
1.00180228e+00
1.00180781e+00
1.00181370e+00
1.00181996e+00
1.00182660e+00
1.00183356e+00
1.00184078e+00
1.00184815e+00
1.00185553e+00
1.00186277e+00
1.00186968e+00
1.00187604e+00
1.00188163e+00
1.00188622e+00
1.00188957e+00
1.00189145e+00
1.00189162e+00
1.00188989e+00
1.00188605e+00
1.00187994e+00
1.00187142e+00
1.00186038e+00
1.00184674e+00
1.00183045e+00
1.00181151e+00
1.00178994e+00
1.00176579e+00
1.00173914e+00
1.00171011e+00
1.00167883e+00
1.00164545e+00
1.00161016e+00
1.00157316e+00
1.00153466e+00
1.00149489e+00
1.00145410e+00
1.00141253e+00
1.00137046e+00
1.00132815e+00
1.00128589e+00
1.00124394e+00
1.00120259e+00
1.00116213e+00
1.00112279e+00
1.00108485e+00
1.00104856e+00
1.00101414e+00
1.00098174e+00
1.00095157e+00
1.00092381e+00
1.00089849e+00
1.00087564e+00
1.00085541e+00
1.00083777e+00
1.00082250e+00
1.00080960e+00
1.00079914e+00
1.00079077e+00
1.00078409e+00
1.00077927e+00
1.00077625e+00
1.00077423e+00
1.00077297e+00
1.00077302e+00
1.00077398e+00
1.00077474e+00
1.00077571e+00
1.00077765e+00
1.00078035e+00
1.00119209e+00
1.00119445e+00
1.00119715e+00
1.00119758e+00
1.00119812e+00
1.00120022e+00
1.00120190e+00
1.00120306e+00
1.00120543e+00
1.00120877e+00
1.00121217e+00
1.00121637e+00
1.00122203e+00
1.00122867e+00
1.00123616e+00
1.00124506e+00
1.00125540e+00
1.00126684e+00
1.00127950e+00
1.00129355e+00
1.00130876e+00
1.00132496e+00
1.00134218e+00
1.00136031e+00
1.00137911e+00
1.00139846e+00
1.00141826e+00
1.00143832e+00
1.00145848e+00
1.00147861e+00
1.00149860e+00
1.00151830e+00
1.00153761e+00
1.00155646e+00
1.00157474e+00
1.00159240e+00
1.00160938e+00
1.00162565e+00
1.00164116e+00
1.00165588e+00
1.00166981e+00
1.00168293e+00
1.00169522e+00
1.00170668e+00
1.00171731e+00
1.00172712e+00
1.00173614e+00
1.00174437e+00
1.00175187e+00
1.00175868e+00
1.00176485e+00
1.00177046e+00
1.00177560e+00
1.00178035e+00
1.00178482e+00
1.00178912e+00
1.00179334e+00
1.00179760e+00
1.00180200e+00
1.00180661e+00
1.00181151e+00
1.00181675e+00
1.00182234e+00
1.00182830e+00
1.00183457e+00
1.00184109e+00
1.00184778e+00
1.00185449e+00
1.00186108e+00
1.00186736e+00
1.00187313e+00
1.00187819e+00
1.00188228e+00
1.00188519e+00
1.00188669e+00
1.00188654e+00
1.00188453e+00
1.00188048e+00
1.00187421e+00
1.00186557e+00
1.00185444e+00
1.00184075e+00
1.00182443e+00
1.00180547e+00
1.00178388e+00
1.00175971e+00
1.00173301e+00
1.00170391e+00
1.00167253e+00
1.00163901e+00
1.00160354e+00
1.00156632e+00
1.00152756e+00
1.00148748e+00
1.00144633e+00
1.00140438e+00
1.00136189e+00
1.00131913e+00
1.00127639e+00
1.00123395e+00
1.00119209e+00
1.00115111e+00
1.00111127e+00
1.00107280e+00
1.00103598e+00
1.00100106e+00
1.00096816e+00
1.00093746e+00
1.00090920e+00
1.00088343e+00
1.00086007e+00
1.00083930e+00
1.00082124e+00
1.00080554e+00
1.00079204e+00
1.00078112e+00
1.00077247e+00
1.00076524e+00
1.00075977e+00
1.00075656e+00
1.00075428e+00
1.00075224e+00
1.00075200e+00
1.00075312e+00
1.00075309e+00
1.00075334e+00
1.00075616e+00
1.00075840e+00
1.00122062e+00
1.00122236e+00
1.00122328e+00
1.00122470e+00
1.00122618e+00
1.00122693e+00
1.00122820e+00
1.00123046e+00
1.00123269e+00
1.00123513e+00
1.00123873e+00
1.00124329e+00
1.00124840e+00
1.00125457e+00
1.00126213e+00
1.00127077e+00
1.00128047e+00
1.00129153e+00
1.00130390e+00
1.00131734e+00
1.00133189e+00
1.00134759e+00
1.00136423e+00
1.00138164e+00
1.00139978e+00
1.00141852e+00
1.00143766e+00
1.00145706e+00
1.00147662e+00
1.00149619e+00
1.00151561e+00
1.00153480e+00
1.00155365e+00
1.00157206e+00
1.00158994e+00
1.00160724e+00
1.00162389e+00
1.00163984e+00
1.00165506e+00
1.00166952e+00
1.00168318e+00
1.00169602e+00
1.00170804e+00
1.00171921e+00
1.00172955e+00
1.00173905e+00
1.00174772e+00
1.00175560e+00
1.00176271e+00
1.00176910e+00
1.00177483e+00
1.00177997e+00
1.00178461e+00
1.00178882e+00
1.00179273e+00
1.00179643e+00
1.00180003e+00
1.00180363e+00
1.00180734e+00
1.00181124e+00
1.00181541e+00
1.00181989e+00
1.00182470e+00
1.00182987e+00
1.00183534e+00
1.00184107e+00
1.00184697e+00
1.00185292e+00
1.00185876e+00
1.00186433e+00
1.00186944e+00
1.00187387e+00
1.00187740e+00
1.00187981e+00
1.00188086e+00
1.00188033e+00
1.00187800e+00
1.00187369e+00
1.00186721e+00
1.00185842e+00
1.00184718e+00
1.00183340e+00
1.00181703e+00
1.00179802e+00
1.00177639e+00
1.00175216e+00
1.00172540e+00
1.00169619e+00
1.00166468e+00
1.00163099e+00
1.00159531e+00
1.00155782e+00
1.00151875e+00
1.00147832e+00
1.00143677e+00
1.00139438e+00
1.00135141e+00
1.00130814e+00
1.00126486e+00
1.00122188e+00
1.00117946e+00
1.00113789e+00
1.00109746e+00
1.00105844e+00
1.00102105e+00
1.00098550e+00
1.00095207e+00
1.00092089e+00
1.00089200e+00
1.00086562e+00
1.00084188e+00
1.00082061e+00
1.00080178e+00
1.00078563e+00
1.00077196e+00
1.00076028e+00
1.00075073e+00
1.00074354e+00
1.00073793e+00
1.00073338e+00
1.00073056e+00
1.00072933e+00
1.00072830e+00
1.00072764e+00
1.00072840e+00
1.00072954e+00
1.00073021e+00
1.00073163e+00
1.00125195e+00
1.00125371e+00
1.00125447e+00
1.00125585e+00
1.00125715e+00
1.00125786e+00
1.00125922e+00
1.00126130e+00
1.00126333e+00
1.00126579e+00
1.00126931e+00
1.00127358e+00
1.00127846e+00
1.00128446e+00
1.00129168e+00
1.00129988e+00
1.00130919e+00
1.00131980e+00
1.00133160e+00
1.00134444e+00
1.00135840e+00
1.00137343e+00
1.00138934e+00
1.00140604e+00
1.00142348e+00
1.00144148e+00
1.00145988e+00
1.00147858e+00
1.00149747e+00
1.00151637e+00
1.00153517e+00
1.00155379e+00
1.00157209e+00
1.00159000e+00
1.00160742e+00
1.00162429e+00
1.00164055e+00
1.00165614e+00
1.00167101e+00
1.00168513e+00
1.00169846e+00
1.00171097e+00
1.00172265e+00
1.00173347e+00
1.00174344e+00
1.00175255e+00
1.00176081e+00
1.00176825e+00
1.00177488e+00
1.00178077e+00
1.00178597e+00
1.00179054e+00
1.00179458e+00
1.00179816e+00
1.00180140e+00
1.00180440e+00
1.00180726e+00
1.00181010e+00
1.00181301e+00
1.00181608e+00
1.00181939e+00
1.00182299e+00
1.00182692e+00
1.00183117e+00
1.00183574e+00
1.00184056e+00
1.00184556e+00
1.00185063e+00
1.00185563e+00
1.00186039e+00
1.00186474e+00
1.00186846e+00
1.00187134e+00
1.00187316e+00
1.00187369e+00
1.00187272e+00
1.00187001e+00
1.00186539e+00
1.00185866e+00
1.00184967e+00
1.00183828e+00
1.00182440e+00
1.00180794e+00
1.00178886e+00
1.00176716e+00
1.00174285e+00
1.00171600e+00
1.00168668e+00
1.00165501e+00
1.00162113e+00
1.00158520e+00
1.00154742e+00
1.00150801e+00
1.00146718e+00
1.00142520e+00
1.00138232e+00
1.00133883e+00
1.00129502e+00
1.00125116e+00
1.00120757e+00
1.00116455e+00
1.00112236e+00
1.00108130e+00
1.00104165e+00
1.00100366e+00
1.00096751e+00
1.00093345e+00
1.00090168e+00
1.00087225e+00
1.00084527e+00
1.00082091e+00
1.00079915e+00
1.00077981e+00
1.00076299e+00
1.00074877e+00
1.00073671e+00
1.00072659e+00
1.00071871e+00
1.00071271e+00
1.00070782e+00
1.00070438e+00
1.00070261e+00
1.00070133e+00
1.00070028e+00
1.00070063e+00
1.00070149e+00
1.00070182e+00
1.00070323e+00
1.00128681e+00
1.00128878e+00
1.00129043e+00
1.00129093e+00
1.00129148e+00
1.00129305e+00
1.00129452e+00
1.00129566e+00
1.00129772e+00
1.00130065e+00
1.00130369e+00
1.00130739e+00
1.00131236e+00
1.00131821e+00
1.00132477e+00
1.00133254e+00
1.00134159e+00
1.00135160e+00
1.00136266e+00
1.00137495e+00
1.00138829e+00
1.00140249e+00
1.00141762e+00
1.00143360e+00
1.00145022e+00
1.00146737e+00
1.00148499e+00
1.00150293e+00
1.00152103e+00
1.00153919e+00
1.00155732e+00
1.00157528e+00
1.00159297e+00
1.00161031e+00
1.00162721e+00
1.00164358e+00
1.00165938e+00
1.00167453e+00
1.00168899e+00
1.00170270e+00
1.00171563e+00
1.00172775e+00
1.00173902e+00
1.00174942e+00
1.00175894e+00
1.00176758e+00
1.00177534e+00
1.00178225e+00
1.00178832e+00
1.00179362e+00
1.00179818e+00
1.00180208e+00
1.00180541e+00
1.00180826e+00
1.00181071e+00
1.00181290e+00
1.00181491e+00
1.00181686e+00
1.00181885e+00
1.00182097e+00
1.00182331e+00
1.00182591e+00
1.00182882e+00
1.00183205e+00
1.00183558e+00
1.00183938e+00
1.00184336e+00
1.00184744e+00
1.00185148e+00
1.00185533e+00
1.00185881e+00
1.00186172e+00
1.00186386e+00
1.00186502e+00
1.00186495e+00
1.00186346e+00
1.00186032e+00
1.00185532e+00
1.00184829e+00
1.00183906e+00
1.00182749e+00
1.00181345e+00
1.00179688e+00
1.00177771e+00
1.00175591e+00
1.00173151e+00
1.00170455e+00
1.00167509e+00
1.00164325e+00
1.00160916e+00
1.00157297e+00
1.00153488e+00
1.00149510e+00
1.00145387e+00
1.00141143e+00
1.00136805e+00
1.00132401e+00
1.00127962e+00
1.00123517e+00
1.00119095e+00
1.00114728e+00
1.00110447e+00
1.00106277e+00
1.00102245e+00
1.00098381e+00
1.00094707e+00
1.00091238e+00
1.00087992e+00
1.00084994e+00
1.00082245e+00
1.00079739e+00
1.00077498e+00
1.00075528e+00
1.00073790e+00
1.00072282e+00
1.00071034e+00
1.00070004e+00
1.00069129e+00
1.00068442e+00
1.00067966e+00
1.00067589e+00
1.00067277e+00
1.00067128e+00
1.00067087e+00
1.00067011e+00
1.00066980e+00
1.00067100e+00
1.00067254e+00
1.00132652e+00
1.00132807e+00
1.00132935e+00
1.00132999e+00
1.00133070e+00
1.00133186e+00
1.00133304e+00
1.00133442e+00
1.00133641e+00
1.00133886e+00
1.00134176e+00
1.00134546e+00
1.00135004e+00
1.00135538e+00
1.00136167e+00
1.00136906e+00
1.00137746e+00
1.00138686e+00
1.00139737e+00
1.00140894e+00
1.00142145e+00
1.00143488e+00
1.00144921e+00
1.00146429e+00
1.00148002e+00
1.00149631e+00
1.00151306e+00
1.00153012e+00
1.00154738e+00
1.00156475e+00
1.00158210e+00
1.00159932e+00
1.00161632e+00
1.00163301e+00
1.00164930e+00
1.00166511e+00
1.00168037e+00
1.00169501e+00
1.00170898e+00
1.00172221e+00
1.00173467e+00
1.00174630e+00
1.00175708e+00
1.00176698e+00
1.00177597e+00
1.00178406e+00
1.00179124e+00
1.00179753e+00
1.00180295e+00
1.00180755e+00
1.00181138e+00
1.00181451e+00
1.00181703e+00
1.00181902e+00
1.00182059e+00
1.00182184e+00
1.00182288e+00
1.00182382e+00
1.00182477e+00
1.00182581e+00
1.00182704e+00
1.00182851e+00
1.00183027e+00
1.00183234e+00
1.00183471e+00
1.00183735e+00
1.00184020e+00
1.00184316e+00
1.00184612e+00
1.00184893e+00
1.00185143e+00
1.00185343e+00
1.00185473e+00
1.00185512e+00
1.00185438e+00
1.00185229e+00
1.00184863e+00
1.00184320e+00
1.00183581e+00
1.00182629e+00
1.00181448e+00
1.00180027e+00
1.00178355e+00
1.00176425e+00
1.00174235e+00
1.00171784e+00
1.00169075e+00
1.00166114e+00
1.00162912e+00
1.00159480e+00
1.00155834e+00
1.00151994e+00
1.00147979e+00
1.00143813e+00
1.00139522e+00
1.00135134e+00
1.00130675e+00
1.00126177e+00
1.00121670e+00
1.00117186e+00
1.00112754e+00
1.00108405e+00
1.00104171e+00
1.00100075e+00
1.00096144e+00
1.00092404e+00
1.00088876e+00
1.00085570e+00
1.00082504e+00
1.00079696e+00
1.00077140e+00
1.00074836e+00
1.00072797e+00
1.00071015e+00
1.00069463e+00
1.00068139e+00
1.00067047e+00
1.00066146e+00
1.00065408e+00
1.00064847e+00
1.00064433e+00
1.00064111e+00
1.00063895e+00
1.00063784e+00
1.00063700e+00
1.00063667e+00
1.00063738e+00
1.00063829e+00
1.00137029e+00
1.00137157e+00
1.00137205e+00
1.00137299e+00
1.00137398e+00
1.00137447e+00
1.00137546e+00
1.00137723e+00
1.00137892e+00
1.00138084e+00
1.00138377e+00
1.00138739e+00
1.00139139e+00
1.00139632e+00
1.00140238e+00
1.00140923e+00
1.00141691e+00
1.00142576e+00
1.00143564e+00
1.00144636e+00
1.00145802e+00
1.00147066e+00
1.00148408e+00
1.00149818e+00
1.00151297e+00
1.00152833e+00
1.00154409e+00
1.00156019e+00
1.00157656e+00
1.00159304e+00
1.00160951e+00
1.00162592e+00
1.00164216e+00
1.00165812e+00
1.00167372e+00
1.00168888e+00
1.00170352e+00
1.00171757e+00
1.00173096e+00
1.00174363e+00
1.00175553e+00
1.00176660e+00
1.00177681e+00
1.00178612e+00
1.00179450e+00
1.00180194e+00
1.00180844e+00
1.00181401e+00
1.00181868e+00
1.00182249e+00
1.00182549e+00
1.00182774e+00
1.00182933e+00
1.00183036e+00
1.00183091e+00
1.00183111e+00
1.00183105e+00
1.00183086e+00
1.00183063e+00
1.00183047e+00
1.00183045e+00
1.00183066e+00
1.00183113e+00
1.00183190e+00
1.00183298e+00
1.00183432e+00
1.00183589e+00
1.00183760e+00
1.00183935e+00
1.00184101e+00
1.00184241e+00
1.00184338e+00
1.00184373e+00
1.00184326e+00
1.00184174e+00
1.00183896e+00
1.00183471e+00
1.00182878e+00
1.00182097e+00
1.00181110e+00
1.00179901e+00
1.00178457e+00
1.00176767e+00
1.00174822e+00
1.00172619e+00
1.00170155e+00
1.00167432e+00
1.00164456e+00
1.00161235e+00
1.00157781e+00
1.00154109e+00
1.00150237e+00
1.00146186e+00
1.00141979e+00
1.00137641e+00
1.00133202e+00
1.00128689e+00
1.00124134e+00
1.00119566e+00
1.00115020e+00
1.00110525e+00
1.00106111e+00
1.00101810e+00
1.00097652e+00
1.00093659e+00
1.00089853e+00
1.00086261e+00
1.00082901e+00
1.00079774e+00
1.00076897e+00
1.00074291e+00
1.00071939e+00
1.00069830e+00
1.00067985e+00
1.00066399e+00
1.00065020e+00
1.00063846e+00
1.00062908e+00
1.00062147e+00
1.00061501e+00
1.00061022e+00
1.00060707e+00
1.00060443e+00
1.00060233e+00
1.00060156e+00
1.00060136e+00
1.00060106e+00
1.00060162e+00
1.00141731e+00
1.00141865e+00
1.00141938e+00
1.00141989e+00
1.00142048e+00
1.00142124e+00
1.00142227e+00
1.00142348e+00
1.00142501e+00
1.00142710e+00
1.00142968e+00
1.00143276e+00
1.00143660e+00
1.00144128e+00
1.00144669e+00
1.00145294e+00
1.00146017e+00
1.00146833e+00
1.00147734e+00
1.00148728e+00
1.00149814e+00
1.00150980e+00
1.00152221e+00
1.00153535e+00
1.00154913e+00
1.00156341e+00
1.00157814e+00
1.00159324e+00
1.00160859e+00
1.00162407e+00
1.00163962e+00
1.00165514e+00
1.00167050e+00
1.00168564e+00
1.00170047e+00
1.00171489e+00
1.00172881e+00
1.00174218e+00
1.00175491e+00
1.00176693e+00
1.00177818e+00
1.00178860e+00
1.00179814e+00
1.00180676e+00
1.00181444e+00
1.00182114e+00
1.00182687e+00
1.00183163e+00
1.00183545e+00
1.00183836e+00
1.00184041e+00
1.00184168e+00
1.00184223e+00
1.00184217e+00
1.00184160e+00
1.00184062e+00
1.00183934e+00
1.00183788e+00
1.00183634e+00
1.00183483e+00
1.00183343e+00
1.00183223e+00
1.00183128e+00
1.00183061e+00
1.00183023e+00
1.00183014e+00
1.00183029e+00
1.00183062e+00
1.00183102e+00
1.00183138e+00
1.00183155e+00
1.00183137e+00
1.00183066e+00
1.00182920e+00
1.00182681e+00
1.00182325e+00
1.00181831e+00
1.00181180e+00
1.00180349e+00
1.00179322e+00
1.00178080e+00
1.00176609e+00
1.00174897e+00
1.00172934e+00
1.00170715e+00
1.00168237e+00
1.00165499e+00
1.00162507e+00
1.00159267e+00
1.00155791e+00
1.00152093e+00
1.00148191e+00
1.00144104e+00
1.00139858e+00
1.00135477e+00
1.00130988e+00
1.00126423e+00
1.00121813e+00
1.00117187e+00
1.00112580e+00
1.00108023e+00
1.00103550e+00
1.00099186e+00
1.00094963e+00
1.00090910e+00
1.00087046e+00
1.00083391e+00
1.00079968e+00
1.00076792e+00
1.00073861e+00
1.00071187e+00
1.00068783e+00
1.00066635e+00
1.00064729e+00
1.00063072e+00
1.00061658e+00
1.00060449e+00
1.00059432e+00
1.00058614e+00
1.00057958e+00
1.00057428e+00
1.00057029e+00
1.00056743e+00
1.00056533e+00
1.00056392e+00
1.00056313e+00
1.00056300e+00
1.00056357e+00
1.00146837e+00
1.00146958e+00
1.00147045e+00
1.00147065e+00
1.00147094e+00
1.00147186e+00
1.00147277e+00
1.00147360e+00
1.00147508e+00
1.00147710e+00
1.00147927e+00
1.00148201e+00
1.00148565e+00
1.00148987e+00
1.00149468e+00
1.00150043e+00
1.00150708e+00
1.00151444e+00
1.00152263e+00
1.00153177e+00
1.00154169e+00
1.00155231e+00
1.00156371e+00
1.00157581e+00
1.00158845e+00
1.00160161e+00
1.00161525e+00
1.00162925e+00
1.00164348e+00
1.00165791e+00
1.00167244e+00
1.00168695e+00
1.00170136e+00
1.00171559e+00
1.00172954e+00
1.00174312e+00
1.00175625e+00
1.00176884e+00
1.00178081e+00
1.00179208e+00
1.00180258e+00
1.00181225e+00
1.00182103e+00
1.00182887e+00
1.00183574e+00
1.00184160e+00
1.00184646e+00
1.00185031e+00
1.00185317e+00
1.00185507e+00
1.00185608e+00
1.00185624e+00
1.00185565e+00
1.00185438e+00
1.00185255e+00
1.00185027e+00
1.00184763e+00
1.00184477e+00
1.00184179e+00
1.00183879e+00
1.00183587e+00
1.00183311e+00
1.00183058e+00
1.00182832e+00
1.00182636e+00
1.00182468e+00
1.00182326e+00
1.00182205e+00
1.00182097e+00
1.00181990e+00
1.00181871e+00
1.00181725e+00
1.00181534e+00
1.00181279e+00
1.00180940e+00
1.00180496e+00
1.00179925e+00
1.00179207e+00
1.00178319e+00
1.00177244e+00
1.00175963e+00
1.00174460e+00
1.00172723e+00
1.00170739e+00
1.00168502e+00
1.00166007e+00
1.00163254e+00
1.00160246e+00
1.00156988e+00
1.00153491e+00
1.00149768e+00
1.00145838e+00
1.00141719e+00
1.00137435e+00
1.00133013e+00
1.00128480e+00
1.00123866e+00
1.00119203e+00
1.00114525e+00
1.00109862e+00
1.00105247e+00
1.00100715e+00
1.00096296e+00
1.00092015e+00
1.00087901e+00
1.00083984e+00
1.00080276e+00
1.00076794e+00
1.00073562e+00
1.00070586e+00
1.00067860e+00
1.00065394e+00
1.00063201e+00
1.00061255e+00
1.00059538e+00
1.00058067e+00
1.00056827e+00
1.00055762e+00
1.00054876e+00
1.00054187e+00
1.00053630e+00
1.00053164e+00
1.00052838e+00
1.00052623e+00
1.00052433e+00
1.00052305e+00
1.00052297e+00
1.00052336e+00
1.00152358e+00
1.00152444e+00
1.00152481e+00
1.00152517e+00
1.00152560e+00
1.00152604e+00
1.00152671e+00
1.00152777e+00
1.00152904e+00
1.00153054e+00
1.00153260e+00
1.00153526e+00
1.00153833e+00
1.00154201e+00
1.00154649e+00
1.00155167e+00
1.00155749e+00
1.00156412e+00
1.00157159e+00
1.00157976e+00
1.00158863e+00
1.00159827e+00
1.00160859e+00
1.00161949e+00
1.00163097e+00
1.00164298e+00
1.00165542e+00
1.00166819e+00
1.00168127e+00
1.00169456e+00
1.00170795e+00
1.00172136e+00
1.00173473e+00
1.00174795e+00
1.00176092e+00
1.00177357e+00
1.00178579e+00
1.00179750e+00
1.00180860e+00
1.00181902e+00
1.00182868e+00
1.00183750e+00
1.00184541e+00
1.00185237e+00
1.00185833e+00
1.00186326e+00
1.00186713e+00
1.00186997e+00
1.00187176e+00
1.00187256e+00
1.00187240e+00
1.00187135e+00
1.00186949e+00
1.00186691e+00
1.00186370e+00
1.00185998e+00
1.00185587e+00
1.00185147e+00
1.00184690e+00
1.00184227e+00
1.00183768e+00
1.00183322e+00
1.00182897e+00
1.00182497e+00
1.00182125e+00
1.00181784e+00
1.00181470e+00
1.00181181e+00
1.00180908e+00
1.00180643e+00
1.00180374e+00
1.00180086e+00
1.00179763e+00
1.00179387e+00
1.00178937e+00
1.00178394e+00
1.00177735e+00
1.00176940e+00
1.00175988e+00
1.00174857e+00
1.00173531e+00
1.00171990e+00
1.00170222e+00
1.00168214e+00
1.00165956e+00
1.00163443e+00
1.00160673e+00
1.00157648e+00
1.00154373e+00
1.00150856e+00
1.00147111e+00
1.00143154e+00
1.00139006e+00
1.00134689e+00
1.00130229e+00
1.00125656e+00
1.00120998e+00
1.00116288e+00
1.00111560e+00
1.00106847e+00
1.00102182e+00
1.00097595e+00
1.00093122e+00
1.00088791e+00
1.00084626e+00
1.00080652e+00
1.00076897e+00
1.00073370e+00
1.00070083e+00
1.00067055e+00
1.00064292e+00
1.00061782e+00
1.00059528e+00
1.00057540e+00
1.00055795e+00
1.00054269e+00
1.00052967e+00
1.00051880e+00
1.00050964e+00
1.00050203e+00
1.00049604e+00
1.00049138e+00
1.00048763e+00
1.00048481e+00
1.00048288e+00
1.00048164e+00
1.00048102e+00
1.00048102e+00
1.00158223e+00
1.00158296e+00
1.00158307e+00
1.00158333e+00
1.00158370e+00
1.00158395e+00
1.00158452e+00
1.00158550e+00
1.00158652e+00
1.00158782e+00
1.00158971e+00
1.00159200e+00
1.00159464e+00
1.00159794e+00
1.00160191e+00
1.00160640e+00
1.00161153e+00
1.00161744e+00
1.00162400e+00
1.00163117e+00
1.00163905e+00
1.00164762e+00
1.00165675e+00
1.00166644e+00
1.00167671e+00
1.00168746e+00
1.00169860e+00
1.00171011e+00
1.00172194e+00
1.00173397e+00
1.00174614e+00
1.00175838e+00
1.00177060e+00
1.00178270e+00
1.00179460e+00
1.00180621e+00
1.00181741e+00
1.00182813e+00
1.00183827e+00
1.00184773e+00
1.00185643e+00
1.00186429e+00
1.00187124e+00
1.00187721e+00
1.00188215e+00
1.00188603e+00
1.00188883e+00
1.00189054e+00
1.00189116e+00
1.00189074e+00
1.00188931e+00
1.00188693e+00
1.00188369e+00
1.00187966e+00
1.00187496e+00
1.00186968e+00
1.00186395e+00
1.00185788e+00
1.00185159e+00
1.00184519e+00
1.00183879e+00
1.00183248e+00
1.00182635e+00
1.00182046e+00
1.00181484e+00