# vtk DataFile Version 2.0
LBM Flow Field - Timestep 1960
ASCII
DATASET STRUCTURED_POINTS
DIMENSIONS 128 128 1
ORIGIN 0.0 0.0 0.0
SPACING 1.0 1.0 1.0
POINT_DATA 16384
SCALARS density double 1
LOOKUP_TABLE default
9.98909231e-01
9.98914103e-01
9.98922118e-01
9.98928603e-01
9.98937569e-01
9.98951853e-01
9.98966532e-01
9.98981313e-01
9.98998151e-01
9.99016256e-01
9.99032840e-01
9.99049100e-01
9.99065648e-01
9.99081189e-01
9.99095291e-01
9.99109186e-01
9.99122894e-01
9.99136137e-01
9.99149621e-01
9.99164181e-01
9.99180039e-01
9.99197659e-01
9.99217813e-01
9.99241022e-01
9.99267632e-01
9.99298074e-01
9.99332705e-01
9.99371659e-01
9.99414968e-01
9.99462563e-01
9.99514220e-01
9.99569552e-01
9.99628067e-01
9.99689153e-01
9.99752107e-01
9.99816161e-01
9.99880517e-01
9.99944375e-01
1.00000697e+00
1.00006761e+00
1.00012568e+00
1.00018069e+00
1.00023228e+00
1.00028021e+00
1.00032437e+00
1.00036474e+00
1.00040143e+00
1.00043460e+00
1.00046444e+00
1.00049118e+00
1.00051506e+00
1.00053626e+00
1.00055499e+00
1.00057139e+00
1.00058559e+00
1.00059770e+00
1.00060781e+00
1.00061605e+00
1.00062254e+00
1.00062745e+00
1.00063100e+00
1.00063346e+00
1.00063515e+00
1.00063645e+00
1.00063780e+00
1.00063964e+00
1.00064246e+00
1.00064676e+00
1.00065301e+00
1.00066165e+00
1.00067308e+00
1.00068766e+00
1.00070565e+00
1.00072728e+00
1.00075266e+00
1.00078188e+00
1.00081495e+00
1.00085183e+00
1.00089248e+00
1.00093681e+00
1.00098475e+00
1.00103624e+00
1.00109125e+00
1.00114978e+00
1.00121187e+00
1.00127758e+00
1.00134701e+00
1.00142025e+00
1.00149742e+00
1.00157858e+00
1.00166378e+00
1.00175300e+00
1.00184614e+00
1.00194298e+00
1.00204321e+00
1.00214636e+00
1.00225184e+00
1.00235891e+00
1.00246669e+00
1.00257414e+00
1.00268012e+00
1.00278339e+00
1.00288262e+00
1.00297642e+00
1.00306348e+00
1.00314252e+00
1.00321225e+00
1.00327162e+00
1.00331996e+00
1.00335659e+00
1.00338089e+00
1.00339318e+00
1.00339406e+00
1.00338351e+00
1.00336217e+00
1.00333261e+00
1.00329586e+00
1.00325173e+00
1.00320324e+00
1.00315483e+00
1.00310451e+00
1.00305282e+00
1.00300665e+00
1.00296792e+00
1.00292906e+00
1.00289809e+00
1.00288035e+00
1.00286931e+00
9.98912153e-01
9.98914133e-01
9.98920725e-01
9.98929000e-01
9.98937650e-01
9.98950918e-01
9.98965567e-01
9.98980943e-01
9.98996961e-01
9.99014569e-01
9.99031447e-01
9.99047778e-01
9.99063829e-01
9.99079462e-01
9.99093940e-01
9.99107884e-01
9.99121632e-01
9.99135289e-01
9.99149167e-01
9.99163969e-01
9.99180189e-01
9.99198276e-01
9.99218814e-01
9.99242362e-01
9.99269355e-01
9.99300149e-01
9.99335056e-01
9.99374241e-01
9.99417744e-01
9.99465459e-01
9.99517163e-01
9.99572478e-01
9.99630915e-01
9.99691860e-01
9.99754628e-01
9.99818460e-01
9.99882576e-01
9.99946191e-01
1.00000856e+00
1.00006901e+00
1.00012693e+00
1.00018185e+00
1.00023342e+00
1.00028138e+00
1.00032562e+00
1.00036613e+00
1.00040299e+00
1.00043634e+00
1.00046637e+00
1.00049328e+00
1.00051729e+00
1.00053860e+00
1.00055738e+00
1.00057379e+00
1.00058796e+00
1.00059999e+00
1.00061000e+00
1.00061812e+00
1.00062448e+00
1.00062927e+00
1.00063270e+00
1.00063507e+00
1.00063669e+00
1.00063795e+00
1.00063928e+00
1.00064113e+00
1.00064398e+00
1.00064831e+00
1.00065459e+00
1.00066325e+00
1.00067470e+00
1.00068926e+00
1.00070722e+00
1.00072878e+00
1.00075408e+00
1.00078318e+00
1.00081611e+00
1.00085285e+00
1.00089335e+00
1.00093753e+00
1.00098533e+00
1.00103670e+00
1.00109161e+00
1.00115007e+00
1.00121211e+00
1.00127779e+00
1.00134721e+00
1.00142045e+00
1.00149762e+00
1.00157879e+00
1.00166398e+00
1.00175317e+00
1.00184625e+00
1.00194299e+00
1.00204308e+00
1.00214604e+00
1.00225129e+00
1.00235807e+00
1.00246551e+00
1.00257258e+00
1.00267816e+00
1.00278098e+00
1.00287975e+00
1.00297313e+00
1.00305979e+00
1.00313844e+00
1.00320788e+00
1.00326713e+00
1.00331539e+00
1.00335199e+00
1.00337662e+00
1.00338945e+00
1.00339070e+00
1.00338074e+00
1.00336067e+00
1.00333219e+00
1.00329588e+00
1.00325321e+00
1.00320678e+00
1.00315899e+00
1.00310880e+00
1.00305983e+00
1.00301526e+00
1.00297571e+00
1.00293742e+00
1.00291006e+00
1.00289052e+00
1.00287749e+00
9.98914749e-01
9.98914116e-01
9.98914788e-01
9.98924278e-01
9.98936113e-01
9.98946947e-01
9.98960309e-01
9.98977160e-01
9.98993486e-01
9.99009295e-01
9.99026453e-01
9.99043673e-01
9.99059234e-01
9.99074358e-01
9.99089539e-01
9.99103834e-01
9.99117419e-01
9.99131367e-01
9.99145836e-01
9.99160917e-01
9.99177397e-01
9.99195977e-01
9.99216978e-01
9.99240883e-01
9.99268278e-01
9.99299510e-01
9.99334794e-01
9.99374327e-01
9.99418167e-01
9.99466190e-01
9.99518156e-01
9.99573705e-01
9.99632340e-01
9.99693454e-01
9.99756364e-01
9.99820321e-01
9.99884552e-01
9.99948285e-01
1.00001078e+00
1.00007138e+00
1.00012948e+00
1.00018462e+00
1.00023642e+00
1.00028466e+00
1.00032920e+00
1.00037003e+00
1.00040720e+00
1.00044085e+00
1.00047116e+00
1.00049830e+00
1.00052249e+00
1.00054390e+00
1.00056272e+00
1.00057909e+00
1.00059315e+00
1.00060500e+00
1.00061478e+00
1.00062261e+00
1.00062866e+00
1.00063310e+00
1.00063619e+00
1.00063821e+00
1.00063949e+00
1.00064043e+00
1.00064145e+00
1.00064303e+00
1.00064562e+00
1.00064972e+00
1.00065579e+00
1.00066427e+00
1.00067554e+00
1.00068994e+00
1.00070773e+00
1.00072914e+00
1.00075428e+00
1.00078324e+00
1.00081603e+00
1.00085265e+00
1.00089303e+00
1.00093712e+00
1.00098486e+00
1.00103619e+00
1.00109110e+00
1.00114958e+00
1.00121168e+00
1.00127745e+00
1.00134699e+00
1.00142037e+00
1.00149770e+00
1.00157903e+00
1.00166440e+00
1.00175376e+00
1.00184699e+00
1.00194388e+00
1.00204409e+00
1.00214716e+00
1.00225248e+00
1.00235931e+00
1.00246677e+00
1.00257384e+00
1.00267938e+00
1.00278216e+00
1.00288088e+00
1.00297424e+00
1.00306087e+00
1.00313949e+00
1.00320904e+00
1.00326849e+00
1.00331686e+00
1.00335372e+00
1.00337900e+00
1.00339236e+00
1.00339385e+00
1.00338486e+00
1.00336629e+00
1.00333804e+00
1.00330207e+00
1.00326187e+00
1.00321708e+00
1.00316766e+00
1.00311921e+00
1.00307461e+00
1.00302884e+00
1.00298567e+00
1.00295374e+00
1.00292907e+00
1.00290403e+00
1.00288862e+00
9.98906782e-01
9.98906724e-01
9.98910522e-01
9.98917886e-01
9.98928113e-01
9.98940072e-01
9.98953665e-01
9.98968843e-01
9.98985171e-01
9.99001648e-01
9.99018249e-01
9.99034821e-01
9.99050938e-01
9.99066405e-01
9.99081354e-01
9.99095888e-01
9.99110147e-01
9.99124453e-01
9.99139214e-01
9.99154909e-01
9.99172020e-01
9.99191077e-01
9.99212608e-01
9.99237129e-01
9.99265063e-01
9.99296781e-01
9.99332562e-01
9.99372569e-01
9.99416824e-01
9.99465232e-01
9.99517561e-01
9.99573441e-01
9.99632380e-01
9.99693787e-01
9.99756983e-01
9.99821232e-01
9.99885768e-01
9.99949832e-01
1.00001270e+00
1.00007369e+00
1.00013224e+00
1.00018787e+00
1.00024020e+00
1.00028898e+00
1.00033409e+00
1.00037548e+00
1.00041319e+00
1.00044733e+00
1.00047806e+00
1.00050555e+00
1.00052999e+00
1.00055156e+00
1.00057042e+00
1.00058672e+00
1.00060060e+00
1.00061218e+00
1.00062161e+00
1.00062901e+00
1.00063458e+00
1.00063851e+00
1.00064106e+00
1.00064253e+00
1.00064327e+00
1.00064369e+00
1.00064422e+00
1.00064533e+00
1.00064749e+00
1.00065119e+00
1.00065690e+00
1.00066503e+00
1.00067600e+00
1.00069011e+00
1.00070766e+00
1.00072883e+00
1.00075377e+00
1.00078256e+00
1.00081522e+00
1.00085174e+00
1.00089206e+00
1.00093614e+00
1.00098392e+00
1.00103536e+00
1.00109043e+00
1.00114913e+00
1.00121149e+00
1.00127759e+00
1.00134749e+00
1.00142127e+00
1.00149902e+00
1.00158079e+00
1.00166660e+00
1.00175639e+00
1.00185004e+00
1.00194731e+00
1.00204786e+00
1.00215122e+00
1.00225679e+00
1.00236381e+00
1.00247141e+00
1.00257857e+00
1.00268416e+00
1.00278696e+00
1.00288568e+00
1.00297902e+00
1.00306567e+00
1.00314440e+00
1.00321405e+00
1.00327365e+00
1.00332241e+00
1.00335978e+00
1.00338545e+00
1.00339947e+00
1.00340214e+00
1.00339403e+00
1.00337604e+00
1.00334934e+00
1.00331530e+00
1.00327547e+00
1.00323139e+00
1.00318484e+00
1.00313793e+00
1.00309192e+00
1.00304800e+00
1.00300876e+00
1.00297600e+00
1.00294805e+00
1.00292665e+00
1.00291354e+00
9.98896055e-01
9.98897052e-01
9.98902744e-01
9.98908202e-01
9.98916564e-01
9.98929696e-01
9.98943705e-01
9.98957228e-01
9.98973019e-01
9.98990309e-01
9.99006555e-01
9.99022384e-01
9.99038916e-01
9.99054880e-01
9.99069718e-01
9.99084519e-01
9.99099511e-01
9.99114318e-01
9.99129520e-01
9.99145937e-01
9.99163802e-01
9.99183490e-01
9.99205710e-01
9.99230972e-01
9.99259583e-01
9.99291938e-01
9.99328357e-01
9.99368965e-01
9.99413772e-01
9.99462705e-01
9.99515529e-01
9.99571874e-01
9.99631259e-01
9.99693101e-01
9.99756731e-01
9.99821424e-01
9.99886429e-01
9.99950993e-01
1.00001440e+00
1.00007599e+00
1.00013518e+00
1.00019149e+00
1.00024455e+00
1.00029409e+00
1.00033997e+00
1.00038211e+00
1.00042054e+00
1.00045534e+00
1.00048664e+00
1.00051461e+00
1.00053940e+00
1.00056118e+00
1.00058011e+00
1.00059634e+00
1.00061001e+00
1.00062127e+00
1.00063025e+00
1.00063713e+00
1.00064209e+00
1.00064537e+00
1.00064723e+00
1.00064801e+00
1.00064807e+00
1.00064782e+00
1.00064771e+00
1.00064821e+00
1.00064981e+00
1.00065299e+00
1.00065822e+00
1.00066592e+00
1.00067649e+00
1.00069026e+00
1.00070749e+00
1.00072839e+00
1.00075311e+00
1.00078171e+00
1.00081424e+00
1.00085067e+00
1.00089098e+00
1.00093511e+00
1.00098301e+00
1.00103464e+00
1.00108998e+00
1.00114902e+00
1.00121180e+00
1.00127838e+00
1.00134881e+00
1.00142318e+00
1.00150154e+00
1.00158395e+00
1.00167039e+00
1.00176080e+00
1.00185505e+00
1.00195288e+00
1.00205395e+00
1.00215777e+00
1.00226373e+00
1.00237108e+00
1.00247894e+00
1.00258630e+00
1.00269203e+00
1.00279495e+00
1.00289376e+00
1.00298716e+00
1.00307391e+00
1.00315282e+00
1.00322267e+00
1.00328252e+00
1.00333178e+00
1.00336979e+00
1.00339605e+00
1.00341091e+00
1.00341490e+00
1.00340792e+00
1.00339080e+00
1.00336589e+00
1.00333394e+00
1.00329476e+00
1.00325178e+00
1.00320843e+00
1.00316283e+00
1.00311584e+00
1.00307455e+00
1.00303891e+00
1.00300390e+00
1.00297488e+00
1.00295893e+00
1.00294669e+00
9.98884757e-01
9.98884599e-01
9.98887912e-01
9.98895131e-01
9.98904513e-01
9.98915214e-01
9.98928236e-01
9.98943121e-01
9.98958477e-01
9.98974275e-01
9.98990800e-01
9.99007368e-01
9.99023411e-01
9.99039180e-01
9.99054859e-01
9.99070221e-01
9.99085375e-01
9.99100852e-01
9.99117013e-01
9.99134107e-01
9.99152654e-01
9.99173265e-01
9.99196373e-01
9.99222395e-01
9.99251812e-01
9.99284995e-01
9.99322165e-01
9.99363475e-01
9.99408979e-01
9.99458574e-01
9.99512019e-01
9.99568966e-01
9.99628944e-01
9.99691376e-01
9.99755601e-01
9.99820911e-01
9.99886564e-01
9.99951820e-01
1.00001597e+00
1.00007835e+00
1.00013839e+00
1.00019559e+00
1.00024958e+00
1.00030008e+00
1.00034690e+00
1.00038996e+00
1.00042926e+00
1.00046486e+00
1.00049686e+00
1.00052538e+00
1.00055059e+00
1.00057263e+00
1.00059166e+00
1.00060782e+00
1.00062127e+00
1.00063215e+00
1.00064064e+00
1.00064690e+00
1.00065117e+00
1.00065369e+00
1.00065476e+00
1.00065472e+00
1.00065395e+00
1.00065290e+00
1.00065201e+00
1.00065178e+00
1.00065269e+00
1.00065523e+00
1.00065987e+00
1.00066704e+00
1.00067713e+00
1.00069046e+00
1.00070732e+00
1.00072790e+00
1.00075235e+00
1.00078075e+00
1.00081313e+00
1.00084950e+00
1.00088982e+00
1.00093404e+00
1.00098212e+00
1.00103402e+00
1.00108972e+00
1.00114922e+00
1.00121254e+00
1.00127973e+00
1.00135085e+00
1.00142595e+00
1.00150510e+00
1.00158831e+00
1.00167556e+00
1.00176679e+00
1.00186181e+00
1.00196039e+00
1.00206214e+00
1.00216659e+00
1.00227310e+00
1.00238093e+00
1.00248919e+00
1.00259689e+00
1.00270290e+00
1.00280603e+00
1.00290504e+00
1.00299867e+00
1.00308562e+00
1.00316474e+00
1.00323498e+00
1.00329536e+00
1.00334508e+00
1.00338376e+00
1.00341115e+00
1.00342708e+00
1.00343189e+00
1.00342650e+00
1.00341151e+00
1.00338766e+00
1.00335672e+00
1.00332055e+00
1.00327991e+00
1.00323620e+00
1.00319222e+00
1.00314975e+00
1.00310887e+00
1.00307090e+00
1.00303922e+00
1.00301447e+00
1.00299475e+00
1.00298092e+00
9.98869313e-01
9.98869125e-01
9.98870963e-01
9.98878238e-01
9.98887871e-01
9.98897696e-01
9.98909972e-01
9.98924929e-01
9.98940000e-01
9.98955153e-01
9.98971641e-01
9.98988410e-01
9.99004366e-01
9.99020314e-01
9.99036560e-01
9.99052409e-01
9.99068098e-01
9.99084402e-01
9.99101436e-01
9.99119354e-01
9.99138851e-01
9.99160481e-01
9.99184547e-01
9.99211523e-01
9.99241922e-01
9.99276042e-01
9.99314096e-01
9.99356273e-01
9.99402613e-01
9.99452996e-01
9.99507203e-01
9.99564896e-01
9.99625605e-01
9.99688763e-01
9.99753731e-01
9.99819807e-01
9.99886262e-01
9.99952367e-01
1.00001742e+00
1.00008076e+00
1.00014182e+00
1.00020009e+00
1.00025518e+00
1.00030680e+00
1.00035473e+00
1.00039888e+00
1.00043920e+00
1.00047572e+00
1.00050852e+00
1.00053771e+00
1.00056341e+00
1.00058576e+00
1.00060491e+00
1.00062102e+00
1.00063422e+00
1.00064470e+00
1.00065263e+00
1.00065822e+00
1.00066171e+00
1.00066338e+00
1.00066355e+00
1.00066259e+00
1.00066090e+00
1.00065894e+00
1.00065717e+00
1.00065610e+00
1.00065622e+00
1.00065802e+00
1.00066198e+00
1.00066853e+00
1.00067806e+00
1.00069090e+00
1.00070731e+00
1.00072752e+00
1.00075166e+00
1.00077982e+00
1.00081204e+00
1.00084834e+00
1.00088867e+00
1.00093301e+00
1.00098131e+00
1.00103354e+00
1.00108967e+00
1.00114972e+00
1.00121369e+00
1.00128162e+00
1.00135356e+00
1.00142956e+00
1.00150964e+00
1.00159383e+00
1.00168207e+00
1.00177428e+00
1.00187026e+00
1.00196976e+00
1.00207237e+00
1.00217760e+00
1.00228483e+00
1.00239329e+00
1.00250209e+00
1.00261024e+00
1.00271665e+00
1.00282012e+00
1.00291942e+00
1.00301334e+00
1.00310063e+00
1.00318009e+00
1.00325076e+00
1.00331175e+00
1.00336219e+00
1.00340165e+00
1.00343013e+00
1.00344743e+00
1.00345355e+00
1.00344961e+00
1.00343665e+00
1.00341473e+00
1.00338534e+00
1.00335133e+00
1.00331316e+00
1.00327093e+00
1.00322859e+00
1.00318865e+00
1.00314893e+00
1.00311153e+00
1.00308235e+00
1.00305910e+00
1.00303767e+00
1.00302464e+00
9.98848344e-01
9.98848578e-01
9.98852457e-01
9.98857988e-01
9.98865912e-01
9.98877049e-01
9.98889367e-01
9.98902373e-01
9.98917235e-01
9.98933310e-01
9.98949213e-01
9.98965256e-01
9.98981933e-01
9.98998558e-01
9.99014749e-01
9.99031111e-01
9.99047930e-01
9.99065039e-01
9.99082781e-01
9.99101834e-01
9.99122532e-01
9.99145167e-01
9.99170311e-01
9.99198483e-01
9.99229988e-01
9.99265139e-01
9.99304244e-01
9.99347447e-01
9.99394740e-01
9.99446045e-01
9.99501159e-01
9.99559732e-01
9.99621303e-01
9.99685329e-01
9.99751180e-01
9.99818165e-01
9.99885568e-01
9.99952671e-01
1.00001878e+00
1.00008323e+00
1.00014546e+00
1.00020495e+00
1.00026130e+00
1.00031417e+00
1.00036336e+00
1.00040871e+00
1.00045017e+00
1.00048772e+00
1.00052141e+00
1.00055133e+00
1.00057758e+00
1.00060029e+00
1.00061960e+00
1.00063566e+00
1.00064862e+00
1.00065868e+00
1.00066603e+00
1.00067091e+00
1.00067358e+00
1.00067434e+00
1.00067355e+00
1.00067160e+00
1.00066891e+00
1.00066596e+00
1.00066324e+00
1.00066125e+00
1.00066050e+00
1.00066149e+00
1.00066470e+00
1.00067055e+00
1.00067945e+00
1.00069172e+00
1.00070764e+00
1.00072742e+00
1.00075120e+00
1.00077909e+00
1.00081114e+00
1.00084734e+00
1.00088769e+00
1.00093216e+00
1.00098071e+00
1.00103330e+00
1.00108994e+00
1.00115059e+00
1.00121530e+00
1.00128407e+00
1.00135695e+00
1.00143397e+00
1.00151514e+00
1.00160045e+00
1.00168984e+00
1.00178318e+00
1.00188029e+00
1.00198086e+00
1.00208449e+00
1.00219067e+00
1.00229875e+00
1.00240798e+00
1.00251747e+00
1.00262620e+00
1.00273311e+00
1.00283705e+00
1.00293677e+00
1.00303106e+00
1.00311877e+00
1.00319878e+00
1.00326997e+00
1.00333156e+00
1.00338296e+00
1.00342354e+00
1.00345298e+00
1.00347165e+00
1.00347984e+00
1.00347757e+00
1.00346592e+00
1.00344662e+00
1.00342020e+00
1.00338733e+00
1.00335072e+00
1.00331250e+00
1.00327245e+00
1.00323194e+00
1.00319480e+00
1.00316183e+00
1.00313152e+00
1.00310674e+00
1.00309002e+00
1.00307866e+00
9.98825201e-01
9.98825039e-01
9.98828784e-01
9.98834086e-01
9.98841591e-01
9.98852194e-01
9.98864144e-01
9.98876925e-01
9.98891463e-01
9.98907201e-01
9.98923018e-01
9.98939263e-01
9.98956164e-01
9.98973025e-01
9.98989784e-01
9.99006986e-01
9.99024593e-01
9.99042567e-01
9.99061458e-01
9.99081725e-01
9.99103560e-01
9.99127425e-01
9.99153897e-01
9.99183332e-01
9.99216048e-01
9.99252437e-01
9.99292753e-01
9.99337088e-01
9.99385481e-01
9.99437868e-01
9.99494020e-01
9.99553597e-01
9.99616167e-01
9.99681192e-01
9.99748049e-01
9.99816065e-01
9.99884541e-01
9.99952764e-01
1.00002005e+00
1.00008574e+00
1.00014925e+00
1.00021008e+00
1.00026779e+00
1.00032204e+00
1.00037258e+00
1.00041925e+00
1.00046193e+00
1.00050059e+00
1.00053526e+00
1.00056598e+00
1.00059283e+00
1.00061595e+00
1.00063544e+00
1.00065147e+00
1.00066421e+00
1.00067385e+00
1.00068062e+00
1.00068477e+00
1.00068659e+00
1.00068642e+00
1.00068464e+00
1.00068166e+00
1.00067794e+00
1.00067396e+00
1.00067023e+00
1.00066728e+00
1.00066562e+00
1.00066575e+00
1.00066816e+00
1.00067327e+00
1.00068149e+00
1.00069315e+00
1.00070852e+00
1.00072783e+00
1.00075122e+00
1.00077880e+00
1.00081062e+00
1.00084671e+00
1.00088707e+00
1.00093166e+00
1.00098046e+00
1.00103345e+00
1.00109061e+00
1.00115193e+00
1.00121744e+00
1.00128713e+00
1.00136105e+00
1.00143919e+00
1.00152156e+00
1.00160812e+00
1.00169879e+00
1.00179342e+00
1.00189180e+00
1.00199359e+00
1.00209840e+00
1.00220567e+00
1.00231476e+00
1.00242489e+00
1.00253518e+00
1.00264464e+00
1.00275217e+00
1.00285666e+00
1.00295692e+00
1.00305172e+00
1.00313993e+00
1.00322052e+00
1.00329244e+00
1.00335481e+00
1.00340710e+00
1.00344893e+00
1.00347984e+00
1.00349993e+00
1.00350985e+00
1.00350989e+00
1.00350040e+00
1.00348304e+00
1.00345922e+00
1.00342925e+00
1.00339483e+00
1.00335871e+00
1.00332129e+00
1.00328316e+00
1.00324774e+00
1.00321645e+00
1.00318762e+00
1.00316405e+00
1.00314838e+00
1.00313681e+00
9.98798739e-01
9.98797989e-01
9.98800096e-01
9.98806229e-01
9.98814411e-01
9.98823331e-01
9.98834580e-01
9.98848226e-01
9.98862385e-01
9.98877121e-01
9.98893335e-01
9.98910231e-01
9.98926947e-01
9.98944067e-01
9.98961904e-01
9.98979915e-01
9.98998161e-01
9.99017325e-01
9.99037596e-01
9.99059015e-01
9.99082120e-01
9.99107487e-01
9.99135384e-01
9.99166154e-01
9.99200282e-01
9.99238080e-01
9.99279704e-01
9.99325311e-01
9.99374966e-01
9.99428558e-01
9.99485865e-01
9.99546579e-01
9.99610273e-01
9.99676409e-01
9.99744386e-01
9.99813549e-01
9.99883204e-01
9.99952654e-01
1.00002121e+00
1.00008824e+00
1.00015314e+00
1.00021540e+00
1.00027456e+00
1.00033027e+00
1.00038225e+00
1.00043029e+00
1.00047427e+00
1.00051411e+00
1.00054980e+00
1.00058136e+00
1.00060887e+00
1.00063243e+00
1.00065214e+00
1.00066818e+00
1.00068071e+00
1.00068995e+00
1.00069615e+00
1.00069958e+00
1.00070057e+00
1.00069947e+00
1.00069670e+00
1.00069269e+00
1.00068793e+00
1.00068292e+00
1.00067819e+00
1.00067426e+00
1.00067166e+00
1.00067091e+00
1.00067249e+00
1.00067683e+00
1.00068434e+00
1.00069534e+00
1.00071013e+00
1.00072892e+00
1.00075187e+00
1.00077910e+00
1.00081067e+00
1.00084662e+00
1.00088695e+00
1.00093164e+00
1.00098069e+00
1.00103408e+00
1.00109178e+00
1.00115381e+00
1.00122015e+00
1.00129083e+00
1.00136585e+00
1.00144521e+00
1.00152888e+00
1.00161680e+00
1.00170888e+00
1.00180493e+00
1.00190471e+00
1.00200787e+00
1.00211398e+00
1.00222249e+00
1.00233272e+00
1.00244389e+00
1.00255512e+00
1.00266541e+00
1.00277371e+00
1.00287885e+00
1.00297972e+00
1.00307518e+00
1.00316403e+00
1.00324523e+00
1.00331797e+00
1.00338137e+00
1.00343469e+00
1.00347767e+00
1.00351031e+00
1.00353230e+00
1.00354382e+00
1.00354603e+00
1.00353955e+00
1.00352452e+00
1.00350261e+00
1.00347604e+00
1.00344506e+00
1.00341035e+00
1.00337516e+00
1.00334126e+00
1.00330752e+00
1.00327595e+00
1.00325033e+00
1.00322988e+00
1.00321259e+00
1.00320077e+00
9.98766853e-01
9.98766540e-01
9.98768873e-01
9.98774305e-01
9.98781940e-01
9.98791102e-01
9.98802234e-01
9.98815149e-01
9.98829149e-01
9.98844259e-01
9.98860475e-01
9.98877281e-01
9.98894543e-01
9.98912484e-01
9.98930905e-01
9.98949674e-01
9.98969164e-01
9.98989617e-01
9.99011058e-01
9.99033870e-01
9.99058577e-01
9.99085456e-01
9.99114825e-01
9.99147181e-01
9.99182891e-01
9.99222165e-01
9.99265243e-01
9.99312302e-01
9.99363339e-01
9.99418245e-01
9.99476843e-01
9.99538820e-01
9.99603740e-01
9.99671092e-01
9.99740292e-01
9.99810694e-01
9.99881615e-01
9.99952370e-01
1.00002229e+00
1.00009072e+00
1.00015707e+00
1.00022081e+00
1.00028148e+00
1.00033870e+00
1.00039216e+00
1.00044163e+00
1.00048694e+00
1.00052799e+00
1.00056475e+00
1.00059720e+00
1.00062540e+00
1.00064942e+00
1.00066939e+00
1.00068547e+00
1.00069783e+00
1.00070671e+00
1.00071237e+00
1.00071512e+00
1.00071531e+00
1.00071332e+00
1.00070959e+00
1.00070459e+00
1.00069882e+00
1.00069280e+00
1.00068708e+00
1.00068219e+00
1.00067867e+00
1.00067705e+00
1.00067779e+00
1.00068135e+00
1.00068813e+00
1.00069846e+00
1.00071263e+00
1.00073087e+00
1.00075335e+00
1.00078019e+00
1.00081146e+00
1.00084723e+00
1.00088749e+00
1.00093227e+00
1.00098154e+00
1.00103531e+00
1.00109356e+00
1.00115630e+00
1.00122352e+00
1.00129522e+00
1.00137140e+00
1.00145204e+00
1.00153709e+00
1.00162647e+00
1.00172005e+00
1.00181763e+00
1.00191894e+00
1.00202360e+00
1.00213115e+00
1.00224101e+00
1.00235251e+00
1.00246486e+00
1.00257714e+00
1.00268838e+00
1.00279754e+00
1.00290349e+00
1.00300508e+00
1.00310122e+00
1.00319084e+00
1.00327287e+00
1.00334642e+00
1.00341086e+00
1.00346553e+00
1.00350991e+00
1.00354403e+00
1.00356808e+00
1.00358201e+00
1.00358632e+00
1.00358224e+00
1.00357046e+00
1.00355156e+00
1.00352732e+00
1.00349939e+00
1.00346832e+00
1.00343563e+00
1.00340360e+00
1.00337277e+00
1.00334397e+00
1.00331954e+00
1.00329979e+00
1.00328410e+00
1.00327382e+00
9.98730521e-01
9.98730321e-01
9.98733722e-01
9.98738439e-01
9.98745232e-01
9.98755021e-01
9.98766173e-01
9.98778244e-01
9.98792378e-01
9.98808073e-01
9.98824168e-01
9.98841086e-01
9.98859246e-01
9.98877938e-01
9.98896936e-01
9.98916840e-01
9.98937727e-01
9.98959372e-01
9.98982177e-01
9.99006679e-01
9.99033018e-01
9.99061457e-01
9.99092540e-01
9.99126648e-01
9.99163993e-01
9.99204883e-01
9.99249596e-01
9.99298214e-01
9.99350728e-01
9.99407085e-01
9.99467093e-01
9.99530422e-01
9.99596664e-01
9.99665328e-01
9.99735833e-01
9.99807543e-01
9.99879799e-01
9.99951922e-01
1.00002324e+00
1.00009312e+00
1.00016096e+00
1.00022623e+00
1.00028844e+00
1.00034719e+00
1.00040215e+00
1.00045306e+00
1.00049973e+00
1.00054201e+00
1.00057985e+00
1.00061320e+00
1.00064211e+00
1.00066663e+00
1.00068689e+00
1.00070304e+00
1.00071527e+00
1.00072384e+00
1.00072902e+00
1.00073114e+00
1.00073059e+00
1.00072777e+00
1.00072315e+00
1.00071722e+00
1.00071050e+00
1.00070353e+00
1.00069687e+00
1.00069107e+00
1.00068667e+00
1.00068419e+00
1.00068413e+00
1.00068692e+00
1.00069297e+00
1.00070261e+00
1.00071615e+00
1.00073381e+00
1.00075578e+00
1.00078218e+00
1.00081313e+00
1.00084866e+00
1.00088883e+00
1.00093364e+00
1.00098311e+00
1.00103724e+00
1.00109603e+00
1.00115947e+00
1.00122757e+00
1.00130032e+00
1.00137770e+00
1.00145967e+00
1.00154617e+00
1.00163709e+00
1.00173227e+00
1.00183148e+00
1.00193441e+00
1.00204068e+00
1.00214979e+00
1.00226114e+00
1.00237402e+00
1.00248765e+00
1.00260112e+00
1.00271343e+00
1.00282354e+00
1.00293038e+00
1.00303283e+00
1.00312975e+00
1.00322018e+00
1.00330316e+00
1.00337773e+00
1.00344321e+00
1.00349923e+00
1.00354535e+00
1.00358118e+00
1.00360710e+00
1.00362361e+00
1.00363070e+00
1.00362900e+00
1.00362017e+00
1.00360499e+00
1.00358370e+00
1.00355834e+00
1.00353110e+00
1.00350188e+00
1.00347159e+00
1.00344345e+00
1.00341820e+00
1.00339482e+00
1.00337569e+00
1.00336279e+00
1.00335350e+00
9.98690891e-01
9.98690370e-01
9.98693155e-01
9.98698324e-01
9.98705490e-01
9.98714634e-01
9.98725549e-01
9.98738256e-01
9.98752507e-01
9.98767932e-01
9.98784543e-01
9.98802348e-01
9.98820972e-01
9.98840287e-01
9.98860549e-01
9.98881758e-01
9.98903765e-01
9.98926857e-01
9.98951427e-01
9.98977582e-01
9.99005553e-01
9.99035843e-01
9.99068813e-01
9.99104683e-01
9.99143799e-01
9.99186504e-01
9.99232945e-01
9.99283200e-01
9.99337329e-01
9.99395255e-01
9.99456752e-01
9.99521521e-01
9.99589178e-01
9.99659226e-01
9.99731094e-01
9.99804171e-01
9.99877808e-01
9.99951334e-01
1.00002409e+00
1.00009544e+00
1.00016478e+00
1.00023156e+00
1.00029531e+00
1.00035559e+00
1.00041204e+00
1.00046439e+00
1.00051240e+00
1.00055591e+00
1.00059482e+00
1.00062909e+00
1.00065871e+00
1.00068376e+00
1.00070433e+00
1.00072059e+00
1.00073275e+00
1.00074105e+00
1.00074581e+00
1.00074739e+00
1.00074617e+00
1.00074261e+00
1.00073719e+00
1.00073041e+00
1.00072283e+00
1.00071500e+00
1.00070748e+00
1.00070084e+00
1.00069562e+00
1.00069235e+00
1.00069152e+00
1.00069357e+00
1.00069890e+00
1.00070787e+00
1.00072077e+00
1.00073784e+00
1.00075927e+00
1.00078521e+00
1.00081577e+00
1.00085104e+00
1.00089106e+00
1.00093587e+00
1.00098549e+00
1.00103995e+00
1.00109924e+00
1.00116338e+00
1.00123236e+00
1.00130616e+00
1.00138476e+00
1.00146811e+00
1.00155611e+00
1.00164863e+00
1.00174548e+00
1.00184640e+00
1.00195106e+00
1.00205903e+00
1.00216980e+00
1.00228274e+00
1.00239712e+00
1.00251213e+00
1.00262688e+00
1.00274037e+00
1.00285155e+00
1.00295935e+00
1.00306273e+00
1.00316060e+00
1.00325191e+00
1.00333582e+00
1.00341156e+00
1.00347834e+00
1.00353567e+00
1.00358345e+00
1.00362145e+00
1.00364954e+00
1.00366825e+00
1.00367830e+00
1.00367993e+00
1.00367390e+00
1.00366179e+00
1.00364454e+00
1.00362274e+00
1.00359811e+00
1.00357230e+00
1.00354593e+00
1.00352014e+00
1.00349662e+00
1.00347605e+00
1.00345924e+00
1.00344669e+00
1.00343773e+00
9.98646422e-01
9.98645996e-01
9.98648435e-01
9.98653977e-01
9.98661510e-01
9.98670324e-01
9.98681343e-01
9.98694619e-01
9.98708999e-01
9.98724639e-01
9.98742049e-01
9.98760593e-01
9.98779844e-01
9.98800265e-01
9.98821880e-01
9.98844290e-01
9.98867714e-01
9.98892581e-01
9.98918882e-01
9.98946734e-01
9.98976635e-01
9.99008927e-01
9.99043779e-01
9.99081553e-01
9.99122640e-01
9.99167230e-01
9.99215461e-01
9.99267492e-01
9.99323348e-01
9.99382901e-01
9.99445963e-01
9.99512261e-01
9.99581391e-01
9.99652867e-01
9.99726146e-01
9.99800627e-01
9.99875666e-01
9.99950607e-01
1.00002480e+00
1.00009761e+00
1.00016844e+00
1.00023673e+00
1.00030198e+00
1.00036376e+00
1.00042168e+00
1.00047542e+00
1.00052474e+00
1.00056945e+00
1.00060942e+00
1.00064458e+00
1.00067493e+00
1.00070050e+00
1.00072142e+00
1.00073782e+00
1.00074995e+00
1.00075806e+00
1.00076248e+00
1.00076359e+00
1.00076181e+00
1.00075760e+00
1.00075148e+00
1.00074398e+00
1.00073564e+00
1.00072706e+00
1.00071878e+00
1.00071140e+00
1.00070545e+00
1.00070146e+00
1.00069992e+00
1.00070128e+00
1.00070594e+00
1.00071425e+00
1.00072651e+00
1.00074298e+00
1.00076385e+00
1.00078930e+00
1.00081946e+00
1.00085441e+00
1.00089424e+00
1.00093901e+00
1.00098874e+00
1.00104349e+00
1.00110326e+00
1.00116807e+00
1.00123792e+00
1.00131278e+00
1.00139261e+00
1.00147735e+00
1.00156689e+00
1.00166105e+00
1.00175963e+00
1.00186234e+00
1.00196880e+00
1.00207857e+00
1.00219108e+00
1.00230570e+00
1.00242168e+00
1.00253819e+00
1.00265429e+00
1.00276903e+00
1.00288138e+00
1.00299025e+00
1.00309460e+00
1.00319346e+00
1.00328582e+00
1.00337076e+00
1.00344761e+00
1.00351582e+00
1.00357475e+00
1.00362416e+00
1.00366422e+00
1.00369488e+00
1.00371615e+00
1.00372887e+00
1.00373391e+00
1.00373149e+00
1.00372254e+00
1.00370888e+00
1.00369123e+00
1.00367001e+00
1.00364728e+00
1.00362469e+00
1.00360204e+00
1.00358056e+00
1.00356255e+00
1.00354806e+00
1.00353634e+00
1.00352827e+00
9.98596881e-01
9.98596972e-01
9.98600175e-01
9.98605426e-01
9.98612777e-01
9.98622411e-01
9.98633932e-01
9.98647061e-01
9.98661977e-01
9.98678687e-01
9.98696673e-01
9.98715816e-01
9.98736369e-01
9.98758166e-01
9.98780903e-01
9.98804785e-01
9.98830072e-01
9.98856682e-01
9.98884711e-01
9.98914591e-01
9.98946594e-01
9.98980853e-01
9.99017726e-01
9.99057617e-01
9.99100731e-01
9.99147249e-01
9.99197409e-01
9.99251322e-01
9.99308945e-01
9.99370193e-01
9.99434905e-01
9.99502779e-01
9.99573415e-01
9.99646359e-01
9.99721077e-01
9.99796971e-01
9.99873412e-01
9.99949762e-01
1.00002537e+00
1.00009962e+00
1.00017189e+00
1.00024164e+00
1.00030835e+00
1.00037156e+00
1.00043088e+00
1.00048597e+00
1.00053655e+00
1.00058241e+00
1.00062340e+00
1.00065943e+00
1.00069047e+00
1.00071658e+00
1.00073784e+00
1.00075443e+00
1.00076658e+00
1.00077456e+00
1.00077872e+00
1.00077946e+00
1.00077722e+00
1.00077249e+00
1.00076580e+00
1.00075769e+00
1.00074874e+00
1.00073952e+00
1.00073062e+00
1.00072261e+00
1.00071603e+00
1.00071142e+00
1.00070926e+00
1.00070999e+00
1.00071403e+00
1.00072171e+00
1.00073336e+00
1.00074923e+00
1.00076955e+00
1.00079449e+00
1.00082420e+00
1.00085881e+00
1.00089841e+00
1.00094309e+00
1.00099290e+00
1.00104790e+00
1.00110811e+00
1.00117357e+00
1.00124426e+00
1.00132017e+00
1.00140124e+00
1.00148739e+00
1.00157848e+00
1.00167434e+00
1.00177469e+00
1.00187924e+00
1.00198757e+00
1.00209919e+00
1.00221353e+00
1.00232990e+00
1.00244754e+00
1.00256561e+00
1.00268317e+00
1.00279923e+00
1.00291279e+00
1.00302282e+00
1.00312825e+00
1.00322811e+00
1.00332154e+00
1.00340767e+00
1.00348573e+00
1.00355526e+00
1.00361593e+00
1.00366731e+00
1.00370934e+00
1.00374243e+00
1.00376676e+00
1.00378249e+00
1.00379053e+00
1.00379192e+00
1.00378705e+00
1.00377680e+00
1.00376282e+00
1.00374606e+00
1.00372703e+00
1.00370723e+00
1.00368807e+00
1.00367014e+00
1.00365407e+00
1.00364094e+00
1.00363136e+00
1.00362478e+00
9.98543327e-01
9.98543572e-01
9.98547294e-01
9.98552828e-01
9.98560472e-01
9.98570666e-01
9.98582640e-01
9.98596296e-01
9.98612090e-01
9.98629635e-01
9.98648436e-01
9.98668800e-01
9.98690740e-01
9.98713809e-01
9.98738065e-01
9.98763804e-01
9.98790900e-01
9.98819318e-01
9.98849437e-01
9.98881495e-01
9.98915559e-01
9.98951945e-01
9.98991060e-01
9.99033104e-01
9.99078274e-01
9.99126865e-01
9.99179054e-01
9.99234865e-01
9.99294310e-01
9.99357334e-01
9.99423730e-01
9.99493195e-01
9.99565369e-01
9.99639800e-01
9.99715952e-01
9.99793246e-01
9.99871075e-01
9.99948802e-01
1.00002579e+00
1.00010141e+00
1.00017507e+00
1.00024621e+00
1.00031430e+00
1.00037887e+00
1.00043951e+00
1.00049586e+00
1.00054762e+00
1.00059456e+00
1.00063651e+00
1.00067337e+00
1.00070509e+00
1.00073171e+00
1.00075334e+00
1.00077013e+00
1.00078234e+00
1.00079026e+00
1.00079424e+00
1.00079471e+00
1.00079213e+00
1.00078700e+00
1.00077987e+00
1.00077130e+00
1.00076187e+00
1.00075216e+00
1.00074277e+00