# vtk DataFile Version 2.0
LBM Flow Field - Timestep 4840
ASCII
DATASET STRUCTURED_POINTS
DIMENSIONS 128 128 1
ORIGIN 0.0 0.0 0.0
SPACING 1.0 1.0 1.0
POINT_DATA 16384
SCALARS density double 1
LOOKUP_TABLE default
1.00568138e+00
1.00568271e+00
1.00568290e+00
1.00567247e+00
1.00565991e+00
1.00564732e+00
1.00563080e+00
1.00561039e+00
1.00558866e+00
1.00556493e+00
1.00553801e+00
1.00550878e+00
1.00547777e+00
1.00544442e+00
1.00540864e+00
1.00537092e+00
1.00533124e+00
1.00528939e+00
1.00524553e+00
1.00519983e+00
1.00515221e+00
1.00510267e+00
1.00505133e+00
1.00499824e+00
1.00494338e+00
1.00488682e+00
1.00482864e+00
1.00476887e+00
1.00470756e+00
1.00464480e+00
1.00458065e+00
1.00451519e+00
1.00444852e+00
1.00438072e+00
1.00431191e+00
1.00424218e+00
1.00417166e+00
1.00410045e+00
1.00402869e+00
1.00395648e+00
1.00388395e+00
1.00381121e+00
1.00373838e+00
1.00366554e+00
1.00359279e+00
1.00352021e+00
1.00344787e+00
1.00337580e+00
1.00330404e+00
1.00323261e+00
1.00316149e+00
1.00309066e+00
1.00302008e+00
1.00294968e+00
1.00287938e+00
1.00280910e+00
1.00273871e+00
1.00266810e+00
1.00259715e+00
1.00252571e+00
1.00245366e+00
1.00238086e+00
1.00230718e+00
1.00223250e+00
1.00215672e+00
1.00207973e+00
1.00200147e+00
1.00192188e+00
1.00184093e+00
1.00175861e+00
1.00167494e+00
1.00158998e+00
1.00150378e+00
1.00141646e+00
1.00132814e+00
1.00123897e+00
1.00114911e+00
1.00105877e+00
1.00096813e+00
1.00087742e+00
1.00078687e+00
1.00069669e+00
1.00060713e+00
1.00051841e+00
1.00043076e+00
1.00034438e+00
1.00025948e+00
1.00017624e+00
1.00009483e+00
1.00001540e+00
9.99938096e-01
9.99863022e-01
9.99790272e-01
9.99719921e-01
9.99652031e-01
9.99586635e-01
9.99523752e-01
9.99463398e-01
9.99405570e-01
9.99350235e-01
9.99297370e-01
9.99246962e-01
9.99198952e-01
9.99153264e-01
9.99109894e-01
9.99068809e-01
9.99029881e-01
9.98993053e-01
9.98958415e-01
9.98925836e-01
9.98895114e-01
9.98866381e-01
9.98839809e-01
9.98814930e-01
9.98791654e-01
9.98770606e-01
9.98751653e-01
9.98733644e-01
9.98717482e-01
9.98704364e-01
9.98692460e-01
9.98680283e-01
9.98672179e-01
9.98667948e-01
9.98660988e-01
9.98653935e-01
9.98661559e-01
9.98667821e-01
1.00568477e+00
1.00568255e+00
1.00568096e+00
1.00567198e+00
1.00566009e+00
1.00564659e+00
1.00563037e+00
1.00561063e+00
1.00558869e+00
1.00556468e+00
1.00553802e+00
1.00550888e+00
1.00547763e+00
1.00544422e+00
1.00540850e+00
1.00537068e+00
1.00533084e+00
1.00528896e+00
1.00524504e+00
1.00519922e+00
1.00515150e+00
1.00510191e+00
1.00505049e+00
1.00499732e+00
1.00494241e+00
1.00488581e+00
1.00482759e+00
1.00476779e+00
1.00470647e+00
1.00464371e+00
1.00457958e+00
1.00451415e+00
1.00444752e+00
1.00437978e+00
1.00431103e+00
1.00424139e+00
1.00417095e+00
1.00409984e+00
1.00402818e+00
1.00395607e+00
1.00388365e+00
1.00381102e+00
1.00373828e+00
1.00366555e+00
1.00359289e+00
1.00352040e+00
1.00344813e+00
1.00337613e+00
1.00330443e+00
1.00323303e+00
1.00316194e+00
1.00309113e+00
1.00302055e+00
1.00295014e+00
1.00287982e+00
1.00280950e+00
1.00273908e+00
1.00266842e+00
1.00259741e+00
1.00252592e+00
1.00245381e+00
1.00238095e+00
1.00230721e+00
1.00223248e+00
1.00215665e+00
1.00207962e+00
1.00200133e+00
1.00192172e+00
1.00184076e+00
1.00175845e+00
1.00167480e+00
1.00158986e+00
1.00150371e+00
1.00141643e+00
1.00132817e+00
1.00123906e+00
1.00114928e+00
1.00105901e+00
1.00096844e+00
1.00087781e+00
1.00078733e+00
1.00069722e+00
1.00060772e+00
1.00051905e+00
1.00043144e+00
1.00034508e+00
1.00026020e+00
1.00017696e+00
1.00009554e+00
1.00001610e+00
9.99938759e-01
9.99863639e-01
9.99790834e-01
9.99720419e-01
9.99652455e-01
9.99586978e-01
9.99524015e-01
9.99463575e-01
9.99405654e-01
9.99350230e-01
9.99297288e-01
9.99246791e-01
9.99198693e-01
9.99152943e-01
9.99109520e-01
9.99068349e-01
9.99029368e-01
9.98992541e-01
9.98957861e-01
9.98925194e-01
9.98894515e-01
9.98865846e-01
9.98839175e-01
9.98814237e-01
9.98791205e-01
9.98770164e-01
9.98750938e-01
9.98733095e-01
9.98717452e-01
9.98703846e-01
9.98691549e-01
9.98680323e-01
9.98672656e-01
9.98666479e-01
9.98660223e-01
9.98655661e-01
9.98660483e-01
9.98660267e-01
1.00569031e+00
1.00568662e+00
1.00567816e+00
1.00567194e+00
1.00566259e+00
1.00564702e+00
1.00562990e+00
1.00561168e+00
1.00558982e+00
1.00556486e+00
1.00553835e+00
1.00550959e+00
1.00547799e+00
1.00544425e+00
1.00540863e+00
1.00537072e+00
1.00533059e+00
1.00528857e+00
1.00524459e+00
1.00519858e+00
1.00515067e+00
1.00510097e+00
1.00504944e+00
1.00499611e+00
1.00494108e+00
1.00488439e+00
1.00482607e+00
1.00476618e+00
1.00470481e+00
1.00464201e+00
1.00457784e+00
1.00451240e+00
1.00444578e+00
1.00437805e+00
1.00430934e+00
1.00423974e+00
1.00416936e+00
1.00409832e+00
1.00402674e+00
1.00395473e+00
1.00388240e+00
1.00380987e+00
1.00373724e+00
1.00366460e+00
1.00359205e+00
1.00351966e+00
1.00344748e+00
1.00337558e+00
1.00330396e+00
1.00323265e+00
1.00316163e+00
1.00309088e+00
1.00302036e+00
1.00295000e+00
1.00287973e+00
1.00280945e+00
1.00273905e+00
1.00266843e+00
1.00259744e+00
1.00252598e+00
1.00245389e+00
1.00238106e+00
1.00230735e+00
1.00223265e+00
1.00215685e+00
1.00207987e+00
1.00200162e+00
1.00192206e+00
1.00184116e+00
1.00175891e+00
1.00167533e+00
1.00159046e+00
1.00150438e+00
1.00141719e+00
1.00132900e+00
1.00123997e+00
1.00115026e+00
1.00106006e+00
1.00096956e+00
1.00087898e+00
1.00078855e+00
1.00069847e+00
1.00060900e+00
1.00052034e+00
1.00043272e+00
1.00034634e+00
1.00026142e+00
1.00017813e+00
1.00009665e+00
1.00001713e+00
9.99939691e-01
9.99864464e-01
9.99791543e-01
9.99721004e-01
9.99652902e-01
9.99587285e-01
9.99524182e-01
9.99463594e-01
9.99405519e-01
9.99349957e-01
9.99296879e-01
9.99246229e-01
9.99197992e-01
9.99152147e-01
9.99108598e-01
9.99067279e-01
9.99028229e-01
9.98991372e-01
9.98956535e-01
9.98923759e-01
9.98893168e-01
9.98864476e-01
9.98837510e-01
9.98812672e-01
9.98789963e-01
9.98768593e-01
9.98748912e-01
9.98731900e-01
9.98716522e-01
9.98701512e-01
9.98689321e-01
9.98680649e-01
9.98671251e-01
9.98661672e-01
9.98659593e-01
9.98659721e-01
9.98652070e-01
9.98649465e-01
1.00569048e+00
1.00568823e+00
1.00568164e+00
1.00567353e+00
1.00566237e+00
1.00564830e+00
1.00563169e+00
1.00561238e+00
1.00559044e+00
1.00556605e+00
1.00553926e+00
1.00551005e+00
1.00547855e+00
1.00544480e+00
1.00540885e+00
1.00537074e+00
1.00533056e+00
1.00528832e+00
1.00524410e+00
1.00519793e+00
1.00514987e+00
1.00509995e+00
1.00504823e+00
1.00499475e+00
1.00493956e+00
1.00488271e+00
1.00482427e+00
1.00476427e+00
1.00470279e+00
1.00463990e+00
1.00457567e+00
1.00451018e+00
1.00444352e+00
1.00437579e+00
1.00430708e+00
1.00423750e+00
1.00416716e+00
1.00409617e+00
1.00402465e+00
1.00395270e+00
1.00388046e+00
1.00380801e+00
1.00373548e+00
1.00366294e+00
1.00359049e+00
1.00351820e+00
1.00344612e+00
1.00337431e+00
1.00330279e+00
1.00323156e+00
1.00316063e+00
1.00308997e+00
1.00301952e+00
1.00294924e+00
1.00287903e+00
1.00280882e+00
1.00273849e+00
1.00266792e+00
1.00259700e+00
1.00252560e+00
1.00245358e+00
1.00238081e+00
1.00230717e+00
1.00223254e+00
1.00215683e+00
1.00207993e+00
1.00200177e+00
1.00192231e+00
1.00184150e+00
1.00175936e+00
1.00167589e+00
1.00159113e+00
1.00150517e+00
1.00141809e+00
1.00133002e+00
1.00124110e+00
1.00115149e+00
1.00106138e+00
1.00097098e+00
1.00088048e+00
1.00079010e+00
1.00070008e+00
1.00061064e+00
1.00052199e+00
1.00043437e+00
1.00034798e+00
1.00026302e+00
1.00017967e+00
1.00009811e+00
1.00001850e+00
9.99940951e-01
9.99865599e-01
9.99792537e-01
9.99721844e-01
9.99653582e-01
9.99587794e-01
9.99524508e-01
9.99463739e-01
9.99405485e-01
9.99349734e-01
9.99296462e-01
9.99245644e-01
9.99197238e-01
9.99151201e-01
9.99107488e-01
9.99066056e-01
9.99026843e-01
9.98989804e-01
9.98954897e-01
9.98922070e-01
9.98891262e-01
9.98862457e-01
9.98835607e-01
9.98810663e-01
9.98787595e-01
9.98766415e-01
9.98747032e-01
9.98729465e-01
9.98713724e-01
9.98699757e-01
9.98687434e-01
9.98677070e-01
9.98668481e-01
9.98661389e-01
9.98656110e-01
9.98653318e-01
9.98649884e-01
9.98650021e-01
1.00569189e+00
1.00568936e+00
1.00568534e+00
1.00567546e+00
1.00566293e+00
1.00565021e+00
1.00563374e+00
1.00561337e+00
1.00559145e+00
1.00556753e+00
1.00554037e+00
1.00551074e+00
1.00547929e+00
1.00544547e+00
1.00540915e+00
1.00537082e+00
1.00533053e+00
1.00528805e+00
1.00524354e+00
1.00519717e+00
1.00514890e+00
1.00509873e+00
1.00504677e+00
1.00499310e+00
1.00493771e+00
1.00488066e+00
1.00482204e+00
1.00476190e+00
1.00470028e+00
1.00463726e+00
1.00457294e+00
1.00450737e+00
1.00444065e+00
1.00437288e+00
1.00430415e+00
1.00423457e+00
1.00416425e+00
1.00409329e+00
1.00402182e+00
1.00394994e+00
1.00387777e+00
1.00380541e+00
1.00373296e+00
1.00366052e+00
1.00358817e+00
1.00351598e+00
1.00344401e+00
1.00337231e+00
1.00330089e+00
1.00322976e+00
1.00315893e+00
1.00308836e+00
1.00301801e+00
1.00294782e+00
1.00287770e+00
1.00280758e+00
1.00273733e+00
1.00266686e+00
1.00259603e+00
1.00252471e+00
1.00245279e+00
1.00238012e+00
1.00230659e+00
1.00223207e+00
1.00215647e+00
1.00207970e+00
1.00200168e+00
1.00192236e+00
1.00184170e+00
1.00175971e+00
1.00167639e+00
1.00159180e+00
1.00150600e+00
1.00141908e+00
1.00133117e+00
1.00124240e+00
1.00115294e+00
1.00106297e+00
1.00097269e+00
1.00088230e+00
1.00079202e+00
1.00070207e+00
1.00061268e+00
1.00052407e+00
1.00043646e+00
1.00035006e+00
1.00026506e+00
1.00018165e+00
1.00010001e+00
1.00002028e+00
9.99942609e-01
9.99867109e-01
9.99793880e-01
9.99723004e-01
9.99654549e-01
9.99588554e-01
9.99525048e-01
9.99464056e-01
9.99405580e-01
9.99349594e-01
9.99296088e-01
9.99245052e-01
9.99196429e-01
9.99150158e-01
9.99106238e-01
9.99064636e-01
9.99025221e-01
9.98987964e-01
9.98952936e-01
9.98920005e-01
9.98888965e-01
9.98860001e-01
9.98833209e-01
9.98808134e-01
9.98784711e-01
9.98763624e-01
9.98744531e-01
9.98726434e-01
9.98710255e-01
9.98697165e-01
9.98684993e-01
9.98672905e-01
9.98664635e-01
9.98659930e-01
9.98652627e-01
9.98646687e-01
9.98647768e-01
9.98648278e-01
1.00569643e+00
1.00569257e+00
1.00568636e+00
1.00567766e+00
1.00566638e+00
1.00565188e+00
1.00563469e+00
1.00561544e+00
1.00559342e+00
1.00556853e+00
1.00554140e+00
1.00551204e+00
1.00548014e+00
1.00544589e+00
1.00540956e+00
1.00537105e+00
1.00533034e+00
1.00528761e+00
1.00524292e+00
1.00519624e+00
1.00514765e+00
1.00509724e+00
1.00504504e+00
1.00499109e+00
1.00493545e+00
1.00487819e+00
1.00481935e+00
1.00475900e+00
1.00469721e+00
1.00463404e+00
1.00456958e+00
1.00450390e+00
1.00443710e+00
1.00436926e+00
1.00430049e+00
1.00423089e+00
1.00416056e+00
1.00408963e+00
1.00401819e+00
1.00394637e+00
1.00387426e+00
1.00380198e+00
1.00372962e+00
1.00365727e+00
1.00358503e+00
1.00351294e+00
1.00344109e+00
1.00336949e+00
1.00329819e+00
1.00322718e+00
1.00315646e+00
1.00308601e+00
1.00301577e+00
1.00294569e+00
1.00287570e+00
1.00280569e+00
1.00273556e+00
1.00266521e+00
1.00259451e+00
1.00252332e+00
1.00245153e+00
1.00237901e+00
1.00230563e+00
1.00223128e+00
1.00215584e+00
1.00207925e+00
1.00200141e+00
1.00192228e+00
1.00184182e+00
1.00176003e+00
1.00167692e+00
1.00159254e+00
1.00150694e+00
1.00142023e+00
1.00133252e+00
1.00124395e+00
1.00115468e+00
1.00106488e+00
1.00097475e+00
1.00088450e+00
1.00079434e+00
1.00070449e+00
1.00061517e+00
1.00052660e+00
1.00043901e+00
1.00035259e+00
1.00026756e+00
1.00018408e+00
1.00010234e+00
1.00002250e+00
9.99944679e-01
9.99869010e-01
9.99795592e-01
9.99724507e-01
9.99655821e-01
9.99589585e-01
9.99525833e-01
9.99464577e-01
9.99405825e-01
9.99349577e-01
9.99295808e-01
9.99244484e-01
9.99195590e-01
9.99149089e-01
9.99104911e-01
9.99063020e-01
9.99023406e-01
9.98985988e-01
9.98950676e-01
9.98917494e-01
9.98886432e-01
9.98857316e-01
9.98830120e-01
9.98805005e-01
9.98781821e-01
9.98760280e-01
9.98740670e-01
9.98723211e-01
9.98707274e-01
9.98692746e-01
9.98680587e-01
9.98670473e-01
9.98661118e-01
9.98653538e-01
9.98648627e-01
9.98645015e-01
9.98642703e-01
9.98641317e-01
1.00569988e+00
1.00569610e+00
1.00568867e+00
1.00568027e+00
1.00566914e+00
1.00565388e+00
1.00563667e+00
1.00561759e+00
1.00559513e+00
1.00556991e+00
1.00554282e+00
1.00551326e+00
1.00548095e+00
1.00544649e+00
1.00540999e+00
1.00537114e+00
1.00533009e+00
1.00528710e+00
1.00524210e+00
1.00519508e+00
1.00514618e+00
1.00509548e+00
1.00504297e+00
1.00498870e+00
1.00493279e+00
1.00487526e+00
1.00481616e+00
1.00475558e+00
1.00469357e+00
1.00463022e+00
1.00456559e+00
1.00449977e+00
1.00443285e+00
1.00436492e+00
1.00429609e+00
1.00422644e+00
1.00415610e+00
1.00408517e+00
1.00401376e+00
1.00394197e+00
1.00386993e+00
1.00379771e+00
1.00372544e+00
1.00365319e+00
1.00358105e+00
1.00350908e+00
1.00343734e+00
1.00336587e+00
1.00329469e+00
1.00322382e+00
1.00315323e+00
1.00308291e+00
1.00301281e+00
1.00294287e+00
1.00287301e+00
1.00280315e+00
1.00273318e+00
1.00266298e+00
1.00259243e+00
1.00252142e+00
1.00244980e+00
1.00237746e+00
1.00230428e+00
1.00223012e+00
1.00215490e+00
1.00207853e+00
1.00200092e+00
1.00192203e+00
1.00184181e+00
1.00176027e+00
1.00167742e+00
1.00159329e+00
1.00150795e+00
1.00142149e+00
1.00133402e+00
1.00124569e+00
1.00115663e+00
1.00106704e+00
1.00097710e+00
1.00088702e+00
1.00079700e+00
1.00070726e+00
1.00061803e+00
1.00052952e+00
1.00044195e+00
1.00035553e+00
1.00027045e+00
1.00018691e+00
1.00010507e+00
1.00002509e+00
9.99947110e-01
9.99871250e-01
9.99797618e-01
9.99726298e-01
9.99657355e-01
9.99590845e-01
9.99526807e-01
9.99465255e-01
9.99406195e-01
9.99349636e-01
9.99295560e-01
9.99243926e-01
9.99194716e-01
9.99147918e-01
9.99103459e-01
9.99061269e-01
9.99021373e-01
9.98983724e-01
9.98948170e-01
9.98914709e-01
9.98883451e-01
9.98854204e-01
9.98826756e-01
9.98801391e-01
9.98778199e-01
9.98756571e-01
9.98736567e-01
9.98719016e-01
9.98703365e-01
9.98688497e-01
9.98675760e-01
9.98666107e-01
9.98656978e-01
9.98648279e-01
9.98643729e-01
9.98640928e-01
9.98636839e-01
9.98635883e-01
1.00570237e+00
1.00569896e+00
1.00569277e+00
1.00568320e+00
1.00567090e+00
1.00565664e+00
1.00563960e+00
1.00561927e+00
1.00559669e+00
1.00557197e+00
1.00554437e+00
1.00551416e+00
1.00548188e+00
1.00544731e+00
1.00541026e+00
1.00537106e+00
1.00532984e+00
1.00528648e+00
1.00524104e+00
1.00519371e+00
1.00514451e+00
1.00509341e+00
1.00504054e+00
1.00498597e+00
1.00492974e+00
1.00487188e+00
1.00481250e+00
1.00475166e+00
1.00468940e+00
1.00462582e+00
1.00456100e+00
1.00449501e+00
1.00442794e+00
1.00435990e+00
1.00429098e+00
1.00422127e+00
1.00415089e+00
1.00407995e+00
1.00400854e+00
1.00393679e+00
1.00386479e+00
1.00379264e+00
1.00372045e+00
1.00364830e+00
1.00357626e+00
1.00350441e+00
1.00343279e+00
1.00336145e+00
1.00329040e+00
1.00321967e+00
1.00314923e+00
1.00307906e+00
1.00300911e+00
1.00293933e+00
1.00286964e+00
1.00279995e+00
1.00273015e+00
1.00266014e+00
1.00258978e+00
1.00251897e+00
1.00244757e+00
1.00237545e+00
1.00230249e+00
1.00222858e+00
1.00215362e+00
1.00207750e+00
1.00200017e+00
1.00192156e+00
1.00184164e+00
1.00176039e+00
1.00167784e+00
1.00159401e+00
1.00150896e+00
1.00142280e+00
1.00133561e+00
1.00124755e+00
1.00115876e+00
1.00106941e+00
1.00097969e+00
1.00088979e+00
1.00079994e+00
1.00071034e+00
1.00062122e+00
1.00053278e+00
1.00044525e+00
1.00035883e+00
1.00027372e+00
1.00019010e+00
1.00010816e+00
1.00002803e+00
9.99949882e-01
9.99873821e-01
9.99799955e-01
9.99728377e-01
9.99659159e-01
9.99592350e-01
9.99527991e-01
9.99466114e-01
9.99406726e-01
9.99349816e-01
9.99295383e-01
9.99243420e-01
9.99193875e-01
9.99146705e-01
9.99101917e-01
9.99059459e-01
9.99019223e-01
9.98981210e-01
9.98945452e-01
9.98911796e-01
9.98880126e-01
9.98850606e-01
9.98823210e-01
9.98797576e-01
9.98773797e-01
9.98752282e-01
9.98732604e-01
9.98714248e-01
9.98698003e-01
9.98684191e-01
9.98671478e-01
9.98659953e-01
9.98651284e-01
9.98644525e-01
9.98638222e-01
9.98633733e-01
9.98632037e-01
9.98631978e-01
1.00570623e+00
1.00570227e+00
1.00569601e+00
1.00568623e+00
1.00567380e+00
1.00565941e+00
1.00564190e+00
1.00562144e+00
1.00559887e+00
1.00557374e+00
1.00554574e+00
1.00551543e+00
1.00548291e+00
1.00544788e+00
1.00541050e+00
1.00537104e+00
1.00532943e+00
1.00528565e+00
1.00523986e+00
1.00519217e+00
1.00514254e+00
1.00509106e+00
1.00503782e+00
1.00498289e+00
1.00492628e+00
1.00486809e+00
1.00480839e+00
1.00474724e+00
1.00468470e+00
1.00462087e+00
1.00455582e+00
1.00448963e+00
1.00442240e+00
1.00435422e+00
1.00428518e+00
1.00421539e+00
1.00414496e+00
1.00407398e+00
1.00400257e+00
1.00393084e+00
1.00385887e+00
1.00378679e+00
1.00371467e+00
1.00364261e+00
1.00357067e+00
1.00349893e+00
1.00342744e+00
1.00335623e+00
1.00328533e+00
1.00321475e+00
1.00314446e+00
1.00307446e+00
1.00300468e+00
1.00293508e+00
1.00286557e+00
1.00279607e+00
1.00272647e+00
1.00265666e+00
1.00258653e+00
1.00251595e+00
1.00244479e+00
1.00237292e+00
1.00230023e+00
1.00222660e+00
1.00215193e+00
1.00207612e+00
1.00199910e+00
1.00192081e+00
1.00184121e+00
1.00176031e+00
1.00167809e+00
1.00159460e+00
1.00150990e+00
1.00142406e+00
1.00133720e+00
1.00124945e+00
1.00116095e+00
1.00107187e+00
1.00098240e+00
1.00089273e+00
1.00080307e+00
1.00071363e+00
1.00062463e+00
1.00053628e+00
1.00044880e+00
1.00036239e+00
1.00027725e+00
1.00019357e+00
1.00011151e+00
1.00003125e+00
9.99952912e-01
9.99876636e-01
9.99802526e-01
9.99730672e-01
9.99661153e-01
9.99594026e-01
9.99529329e-01
9.99467093e-01
9.99407340e-01
9.99350063e-01
9.99295249e-01
9.99242900e-01
9.99192988e-01
9.99145456e-01
9.99100284e-01
9.99057468e-01
9.99016923e-01
9.98978571e-01
9.98942451e-01
9.98908534e-01
9.98876639e-01
9.98846769e-01
9.98819077e-01
9.98793365e-01
9.98769376e-01
9.98747433e-01
9.98727661e-01
9.98709425e-01
9.98692779e-01
9.98678542e-01
9.98666104e-01
9.98654589e-01
9.98645339e-01
9.98638590e-01
9.98632358e-01
9.98627712e-01
9.98626144e-01
9.98625541e-01
1.00571058e+00
1.00570612e+00
1.00569879e+00
1.00568941e+00
1.00567735e+00
1.00566196e+00
1.00564407e+00
1.00562408e+00
1.00560111e+00
1.00557525e+00
1.00554725e+00
1.00551688e+00
1.00548376e+00
1.00544831e+00
1.00541078e+00
1.00537094e+00
1.00532880e+00
1.00528466e+00
1.00523854e+00
1.00519038e+00
1.00514030e+00
1.00508845e+00
1.00503481e+00
1.00497944e+00
1.00492245e+00
1.00486390e+00
1.00480384e+00
1.00474234e+00
1.00467951e+00
1.00461540e+00
1.00455009e+00
1.00448368e+00
1.00441626e+00
1.00434791e+00
1.00427873e+00
1.00420884e+00
1.00413833e+00
1.00406731e+00
1.00399588e+00
1.00392414e+00
1.00385221e+00
1.00378017e+00
1.00370812e+00
1.00363614e+00
1.00356430e+00
1.00349268e+00
1.00342131e+00
1.00335024e+00
1.00327949e+00
1.00320906e+00
1.00313894e+00
1.00306910e+00
1.00299951e+00
1.00293010e+00
1.00286079e+00
1.00279149e+00
1.00272212e+00
1.00265254e+00
1.00258265e+00
1.00251233e+00
1.00244144e+00
1.00236985e+00
1.00229746e+00
1.00222414e+00
1.00214979e+00
1.00207432e+00
1.00199765e+00
1.00191972e+00
1.00184050e+00
1.00175997e+00
1.00167813e+00
1.00159502e+00
1.00151069e+00
1.00142523e+00
1.00133873e+00
1.00125132e+00
1.00116315e+00
1.00107438e+00
1.00098519e+00
1.00089578e+00
1.00080634e+00
1.00071709e+00
1.00062823e+00
1.00053999e+00
1.00045258e+00
1.00036619e+00
1.00028103e+00
1.00019728e+00
1.00011513e+00
1.00003472e+00
9.99956199e-01
9.99879702e-01
9.99805339e-01
9.99733203e-01
9.99663369e-01
9.99595903e-01
9.99530855e-01
9.99468246e-01
9.99408096e-01
9.99350428e-01
9.99295225e-01
9.99242456e-01
9.99192127e-01
9.99144226e-01
9.99098669e-01
9.99055418e-01
9.99014513e-01
9.98975876e-01
9.98939358e-01
9.98905021e-01
9.98872941e-01
9.98842858e-01
9.98814658e-01
9.98788665e-01
9.98764793e-01
9.98742495e-01
9.98722046e-01
9.98704020e-01
9.98687676e-01
9.98672485e-01
9.98659620e-01
9.98649149e-01
9.98639523e-01
9.98631329e-01
9.98625943e-01
9.98622244e-01
9.98619177e-01
9.98618012e-01
1.00571420e+00
1.00570982e+00
1.00570244e+00
1.00569266e+00
1.00568018e+00
1.00566476e+00
1.00564688e+00
1.00562639e+00
1.00560301e+00
1.00557715e+00
1.00554889e+00
1.00551796e+00
1.00548454e+00
1.00544889e+00
1.00541090e+00
1.00537056e+00
1.00532810e+00
1.00528357e+00
1.00523695e+00
1.00518833e+00
1.00513786e+00
1.00508555e+00
1.00503145e+00
1.00497566e+00
1.00491826e+00
1.00485930e+00
1.00479886e+00
1.00473701e+00
1.00467384e+00
1.00460942e+00
1.00454383e+00
1.00447717e+00
1.00440953e+00
1.00434099e+00
1.00427166e+00
1.00420165e+00
1.00413104e+00
1.00405995e+00
1.00398848e+00
1.00391674e+00
1.00384482e+00
1.00377282e+00
1.00370082e+00
1.00362892e+00
1.00355718e+00
1.00348566e+00
1.00341442e+00
1.00334348e+00
1.00327288e+00
1.00320260e+00
1.00313265e+00
1.00306300e+00
1.00299360e+00
1.00292438e+00
1.00285529e+00
1.00278622e+00
1.00271708e+00
1.00264775e+00
1.00257813e+00
1.00250808e+00
1.00243748e+00
1.00236621e+00
1.00229414e+00
1.00222116e+00
1.00214717e+00
1.00207207e+00
1.00199578e+00
1.00191825e+00
1.00183943e+00
1.00175930e+00
1.00167788e+00
1.00159519e+00
1.00151127e+00
1.00142621e+00
1.00134011e+00
1.00125309e+00
1.00116528e+00
1.00107685e+00
1.00098797e+00
1.00089884e+00
1.00080965e+00
1.00072060e+00
1.00063192e+00
1.00054381e+00
1.00045647e+00
1.00037013e+00
1.00028496e+00
1.00020116e+00
1.00011891e+00
1.00003835e+00
9.99959655e-01
9.99882936e-01
9.99808313e-01
9.99735885e-01
9.99665731e-01
9.99597914e-01
9.99532491e-01
9.99469497e-01
9.99408945e-01
9.99350851e-01
9.99295226e-01
9.99242047e-01
9.99191284e-01
9.99142938e-01
9.99096987e-01
9.99053352e-01
9.99012005e-01
9.98972968e-01
9.98936158e-01
9.98901460e-01
9.98868931e-01
9.98838595e-01
9.98810235e-01
9.98783809e-01
9.98759537e-01
9.98737266e-01
9.98716670e-01
9.98698035e-01
9.98681550e-01
9.98666658e-01
9.98653384e-01
9.98642322e-01
9.98632951e-01
9.98624951e-01
9.98619106e-01
9.98614998e-01
9.98612101e-01
9.98611338e-01
1.00571778e+00
1.00571326e+00
1.00570617e+00
1.00569588e+00
1.00568291e+00
1.00566770e+00
1.00564962e+00
1.00562848e+00
1.00560500e+00
1.00557909e+00
1.00555028e+00
1.00551892e+00
1.00548536e+00
1.00544933e+00
1.00541078e+00
1.00537008e+00
1.00532727e+00
1.00528223e+00
1.00523511e+00
1.00518609e+00
1.00513516e+00
1.00508234e+00
1.00502778e+00
1.00497157e+00
1.00491372e+00
1.00485432e+00
1.00479348e+00
1.00473125e+00
1.00466771e+00
1.00460295e+00
1.00453707e+00
1.00447014e+00
1.00440225e+00
1.00433350e+00
1.00426400e+00
1.00419384e+00
1.00412312e+00
1.00405195e+00
1.00398043e+00
1.00390866e+00
1.00383674e+00
1.00376476e+00
1.00369281e+00
1.00362097e+00
1.00354932e+00
1.00347790e+00
1.00340678e+00
1.00333598e+00
1.00326552e+00
1.00319541e+00
1.00312563e+00
1.00305616e+00
1.00298695e+00
1.00291795e+00
1.00284907e+00
1.00278024e+00
1.00271135e+00
1.00264229e+00
1.00257294e+00
1.00250319e+00
1.00243291e+00
1.00236196e+00
1.00229025e+00
1.00221763e+00
1.00214402e+00
1.00206932e+00
1.00199344e+00
1.00191634e+00
1.00183795e+00
1.00175827e+00
1.00167730e+00
1.00159505e+00
1.00151159e+00
1.00142697e+00
1.00134130e+00
1.00125469e+00
1.00116728e+00
1.00107922e+00
1.00099069e+00
1.00090187e+00
1.00081295e+00
1.00072415e+00
1.00063566e+00
1.00054770e+00
1.00046047e+00
1.00037418e+00
1.00028902e+00
1.00020519e+00
1.00012285e+00
1.00004217e+00
9.99963291e-01
9.99886357e-01
9.99811477e-01
9.99738754e-01
9.99668278e-01
9.99600112e-01
9.99534305e-01
9.99470909e-01
9.99409952e-01
9.99351429e-01
9.99295352e-01
9.99241739e-01
9.99190553e-01
9.99141745e-01
9.99095337e-01
9.99051315e-01
9.99009563e-01
9.98970052e-01
9.98932863e-01
9.98897887e-01
9.98864936e-01
9.98834143e-01
9.98805607e-01
9.98778976e-01
9.98754165e-01
9.98731608e-01
9.98711123e-01
9.98692106e-01
9.98675011e-01
9.98660330e-01
9.98647160e-01
9.98635280e-01
9.98625809e-01
9.98618404e-01
9.98611970e-01
9.98607260e-01
9.98605097e-01
9.98604376e-01
1.00572174e+00
1.00571683e+00
1.00570928e+00
1.00569899e+00
1.00568602e+00
1.00567036e+00
1.00565188e+00
1.00563076e+00
1.00560706e+00
1.00558058e+00
1.00555149e+00
1.00552000e+00
1.00548597e+00
1.00544941e+00
1.00541057e+00
1.00536950e+00
1.00532613e+00
1.00528062e+00
1.00523310e+00
1.00518359e+00
1.00513212e+00
1.00507885e+00
1.00502383e+00
1.00496712e+00
1.00490880e+00
1.00484898e+00
1.00478771e+00
1.00472506e+00
1.00466115e+00
1.00459604e+00
1.00452983e+00
1.00446260e+00
1.00439445e+00
1.00432548e+00
1.00425578e+00
1.00418545e+00
1.00411460e+00
1.00404333e+00
1.00397174e+00
1.00389993e+00
1.00382799e+00
1.00375603e+00
1.00368411e+00
1.00361233e+00
1.00354076e+00
1.00346944e+00
1.00339842e+00
1.00332775e+00
1.00325743e+00
1.00318748e+00
1.00311787e+00
1.00304859e+00
1.00297958e+00
1.00291079e+00
1.00284214e+00
1.00277355e+00
1.00270492e+00
1.00263613e+00
1.00256708e+00
1.00249764e+00
1.00242768e+00
1.00235709e+00
1.00228574e+00
1.00221351e+00
1.00214031e+00
1.00206603e+00
1.00199059e+00
1.00191393e+00
1.00183601e+00
1.00175681e+00
1.00167631e+00
1.00159455e+00
1.00151156e+00
1.00142741e+00
1.00134221e+00
1.00125604e+00
1.00116906e+00
1.00108140e+00
1.00099325e+00
1.00090477e+00
1.00081616e+00
1.00072762e+00
1.00063935e+00
1.00055157e+00
1.00046447e+00
1.00037826e+00
1.00029313e+00
1.00020927e+00
1.00012686e+00
1.00004606e+00
9.99967016e-01
9.99889870e-01
9.99814741e-01
9.99741729e-01
9.99670925e-01
9.99602405e-01
9.99536222e-01
9.99472417e-01
9.99411030e-01
9.99352082e-01
9.99295564e-01
9.99241477e-01
9.99189836e-01
9.99140605e-01
9.99093731e-01
9.99049226e-01
9.99007082e-01
9.98967193e-01
9.98929517e-01
9.98894122e-01
9.98860926e-01
9.98829761e-01
9.98800708e-01
9.98773856e-01
9.98748951e-01
9.98725895e-01
9.98704967e-01
9.98686066e-01
9.98668825e-01
9.98653474e-01
9.98640211e-01
9.98628637e-01
9.98618752e-01
9.98610814e-01
9.98604615e-01
9.98600140e-01
9.98597456e-01
9.98596342e-01
1.00572534e+00
1.00572022e+00
1.00571228e+00
1.00570194e+00
1.00568887e+00
1.00567277e+00
1.00565408e+00
1.00563289e+00
1.00560878e+00
1.00558191e+00
1.00555265e+00
1.00552080e+00
1.00548626e+00
1.00544936e+00
1.00541019e+00
1.00536860e+00
1.00532474e+00
1.00527882e+00
1.00523082e+00
1.00518076e+00
1.00512882e+00
1.00507507e+00
1.00501955e+00
1.00496234e+00
1.00490356e+00
1.00484327e+00
1.00478155e+00
1.00471848e+00
1.00465418e+00
1.00458870e+00
1.00452213e+00
1.00445460e+00
1.00438617e+00
1.00431695e+00
1.00424703e+00
1.00417652e+00
1.00410553e+00
1.00403414e+00
1.00396246e+00
1.00389059e+00
1.00381863e+00
1.00374666e+00
1.00367477e+00
1.00360303e+00
1.00353152e+00
1.00346029e+00
1.00338938e+00
1.00331883e+00
1.00324865e+00
1.00317885e+00
1.00310941e+00
1.00304031e+00
1.00297150e+00
1.00290292e+00
1.00283450e+00
1.00276616e+00
1.00269779e+00
1.00262929e+00
1.00256054e+00
1.00249142e+00
1.00242180e+00
1.00235158e+00
1.00228061e+00
1.00220879e+00
1.00213600e+00
1.00206217e+00
1.00198719e+00
1.00191101e+00
1.00183358e+00
1.00175487e+00
1.00167488e+00
1.00159363e+00
1.00151115e+00
1.00142751e+00
1.00134279e+00
1.00125710e+00
1.00117058e+00
1.00108336e+00
1.00099561e+00
1.00090751e+00
1.00081923e+00
1.00073099e+00
1.00064297e+00
1.00055539e+00
1.00046845e+00
1.00038234e+00
1.00029726e+00
1.00021341e+00
1.00013094e+00
1.00005004e+00
9.99970854e-01
9.99893511e-01
9.99818143e-01
9.99744856e-01
9.99673735e-01
9.99604862e-01
9.99538306e-01
9.99474105e-01
9.99412289e-01
9.99352898e-01
9.99295943e-01
9.99241402e-01
9.99189278e-01
9.99139591e-01
9.99092288e-01
9.99047307e-01
9.99004683e-01
9.98964409e-01
9.98926339e-01
9.98890455e-01
9.98856868e-01
9.98825446e-01
9.98795986e-01
9.98768666e-01
9.98743574e-01
9.98720327e-01
9.98698904e-01
9.98679727e-01
9.98662519e-01
9.98646814e-01
9.98633128e-01
9.98621664e-01
9.98611667e-01
9.98603249e-01
9.98597108e-01
9.98592764e-01
9.98589664e-01
9.98588451e-01
1.00572841e+00
1.00572323e+00
1.00571530e+00
1.00570459e+00
1.00569116e+00
1.00567506e+00
1.00565622e+00
1.00563454e+00
1.00561014e+00
1.00558319e+00
1.00555352e+00
1.00552117e+00
1.00548637e+00
1.00544915e+00
1.00540943e+00
1.00536737e+00
1.00532315e+00
1.00527674e+00
1.00522818e+00
1.00517766e+00
1.00512525e+00
1.00507096e+00
1.00501492e+00
1.00495724e+00
1.00489797e+00
1.00483719e+00
1.00477502e+00
1.00471153e+00
1.00464680e+00
1.00458093e+00
1.00451402e+00
1.00444615e+00
1.00437742e+00
1.00430794e+00
1.00423779e+00
1.00416709e+00
1.00409592e+00
1.00402440e+00
1.00395263e+00
1.00388069e+00
1.00380868e+00
1.00373669e+00
1.00366481e+00
1.00359311e+00
1.00352165e+00
1.00345049e+00
1.00337968e+00
1.00330924e+00
1.00323919e+00
1.00316954e+00
1.00310026e+00
1.00303134e+00
1.00296272e+00
1.00289435e+00
1.00282617e+00
1.00275807e+00
1.00268996e+00
1.00262175e+00
1.00255330e+00
1.00248451e+00
1.00241525e+00
1.00234539e+00
1.00227482e+00
1.00220342e+00
1.00213107e+00
1.00205769e+00
1.00198319e+00
1.00190751e+00
1.00183059e+00
1.00175240e+00
1.00167294e+00
1.00159222e+00
1.00151027e+00
1.00142716e+00
1.00134297e+00
1.00125779e+00
1.00117176e+00
1.00108500e+00
1.00099769e+00
1.00090999e+00
1.00082208e+00
1.00073416e+00
1.00064642e+00
1.00055907e+00
1.00047231e+00
1.00038633e+00
1.00030133e+00
1.00021750e+00
1.00013501e+00
1.00005402e+00
9.99974704e-01
9.99897185e-01
9.99821590e-01
9.99748034e-01
9.99676614e-01
9.99607402e-01
9.99540469e-01
9.99475876e-01
9.99413652e-01
9.99353816e-01
9.99296402e-01
9.99241422e-01
9.99188842e-01
9.99138658e-01
9.99090895e-01
9.99045503e-01
9.99002406e-01
9.98961633e-01
9.98923197e-01
9.98886956e-01
9.98852862e-01
9.98821028e-01
9.98791371e-01
9.98763677e-01
9.98738055e-01
9.98714634e-01
9.98693129e-01
9.98673433e-01
9.98655845e-01
9.98640271e-01
9.98626379e-01
9.98614338e-01
9.98604324e-01
9.98596119e-01
9.98589593e-01
9.98584846e-01
9.98581994e-01
9.98580920e-01
1.00573124e+00
1.00572583e+00
1.00571780e+00
1.00570688e+00
1.00569323e+00
1.00567698e+00
1.00565786e+00
1.00563588e+00
1.00561130e+00
1.00558403e+00
1.00555395e+00
1.00552130e+00
1.00548619e+00
1.00544849e+00
1.00540833e+00
1.00536590e+00
1.00532121e+00
1.00527426e+00
1.00522525e+00
1.00517425e+00
1.00512130e+00
1.00506650e+00
1.00500997e+00
1.00495179e+00
1.00489201e+00
1.00483076e+00
1.00476813e+00
1.00470419e+00
1.00463903e+00
1.00457277e+00
1.00450549e+00
1.00443728e+00
1.00436824e+00
1.00429848e+00
1.00422809e+00
1.00415717e+00
1.00408583e+00
1.00401416e+00
1.00394227e+00
1.00387024e+00
1.00379818e+00
1.00372616e+00
1.00365428e+00
1.00358259e+00
1.00351118e+00
1.00344008e+00
1.00336935e+00
1.00329901e+00
1.00322908e+00
1.00315956e+00
1.00309044e+00
1.00302169e+00
1.00295326e+00
1.00288510e+00
1.00281714e+00
1.00274929e+00
1.00268145e+00
1.00261352e+00
1.00254538e+00
1.00247692e+00
1.00240801e+00
1.00233853e+00
1.00226836e+00
1.00219738e+00
1.00212549e+00