# vtk DataFile Version 2.0
LBM Flow Field - Timestep 1750
ASCII
DATASET STRUCTURED_POINTS
DIMENSIONS 128 128 1
ORIGIN 0.0 0.0 0.0
SPACING 1.0 1.0 1.0
POINT_DATA 16384
SCALARS density double 1
LOOKUP_TABLE default
1.00849705e+00
1.00849135e+00
1.00848464e+00
1.00849545e+00
1.00850274e+00
1.00850483e+00
1.00850830e+00
1.00851123e+00
1.00850699e+00
1.00849650e+00
1.00847819e+00
1.00844970e+00
1.00840916e+00
1.00835551e+00
1.00828687e+00
1.00820297e+00
1.00810317e+00
1.00798686e+00
1.00785440e+00
1.00770694e+00
1.00754509e+00
1.00737003e+00
1.00718372e+00
1.00698803e+00
1.00678462e+00
1.00657553e+00
1.00636286e+00
1.00614831e+00
1.00593343e+00
1.00571974e+00
1.00550841e+00
1.00530028e+00
1.00509599e+00
1.00489597e+00
1.00470039e+00
1.00450924e+00
1.00432237e+00
1.00413957e+00
1.00396053e+00
1.00378494e+00
1.00361248e+00
1.00344288e+00
1.00327593e+00
1.00311145e+00
1.00294936e+00
1.00278963e+00
1.00263230e+00
1.00247746e+00
1.00232527e+00
1.00217592e+00
1.00202964e+00
1.00188669e+00
1.00174735e+00
1.00161192e+00
1.00148067e+00
1.00135387e+00
1.00123177e+00
1.00111453e+00
1.00100228e+00
1.00089504e+00
1.00079275e+00
1.00069524e+00
1.00060223e+00
1.00051331e+00
1.00042800e+00
1.00034570e+00
1.00026576e+00
1.00018750e+00
1.00011019e+00
1.00003314e+00
9.99955702e-01
9.99877276e-01
9.99797355e-01
9.99715525e-01
9.99631467e-01
9.99544948e-01
9.99455812e-01
9.99363951e-01
9.99269280e-01
9.99171705e-01
9.99071089e-01
9.98967227e-01
9.98859817e-01
9.98748455e-01
9.98632623e-01
9.98511710e-01
9.98385031e-01
9.98251872e-01
9.98111529e-01
9.97963372e-01
9.97806907e-01
9.97641822e-01
9.97468032e-01
9.97285737e-01
9.97095431e-01
9.96897879e-01
9.96694122e-01
9.96485487e-01
9.96273472e-01
9.96059651e-01
9.95845741e-01
9.95633537e-01
9.95424618e-01
9.95220443e-01
9.95022546e-01
9.94832224e-01
9.94650166e-01
9.94477193e-01
9.94314206e-01
9.94161371e-01
9.94018282e-01
9.93885534e-01
9.93763174e-01
9.93650195e-01
9.93545959e-01
9.93451374e-01
9.93365117e-01
9.93286381e-01
9.93215100e-01
9.93151449e-01
9.93093733e-01
9.93044638e-01
9.92999928e-01
9.92958675e-01
9.92928674e-01
9.92912915e-01
9.92878936e-01
9.92854679e-01
1.00848777e+00
1.00848957e+00
1.00848321e+00
1.00848939e+00
1.00849558e+00
1.00849969e+00
1.00850095e+00
1.00850170e+00
1.00849651e+00
1.00848514e+00
1.00846493e+00
1.00843516e+00
1.00839341e+00
1.00833882e+00
1.00826939e+00
1.00818496e+00
1.00808477e+00
1.00796865e+00
1.00783657e+00
1.00768961e+00
1.00752856e+00
1.00735465e+00
1.00716948e+00
1.00697498e+00
1.00677287e+00
1.00656509e+00
1.00635355e+00
1.00614005e+00
1.00592614e+00
1.00571322e+00
1.00550247e+00
1.00529477e+00
1.00509078e+00
1.00489090e+00
1.00469535e+00
1.00450415e+00
1.00431717e+00
1.00413423e+00
1.00395504e+00
1.00377931e+00
1.00360676e+00
1.00343713e+00
1.00327020e+00
1.00310582e+00
1.00294391e+00
1.00278443e+00
1.00262744e+00
1.00247301e+00
1.00232130e+00
1.00217249e+00
1.00202682e+00
1.00188452e+00
1.00174588e+00
1.00161116e+00
1.00148063e+00
1.00135455e+00
1.00123313e+00
1.00111654e+00
1.00100487e+00
1.00089815e+00
1.00079629e+00
1.00069913e+00
1.00060638e+00
1.00051765e+00
1.00043244e+00
1.00035020e+00
1.00027029e+00
1.00019202e+00
1.00011471e+00
1.00003768e+00
9.99960284e-01
9.99881944e-01
9.99802155e-01
9.99720501e-01
9.99636652e-01
9.99550365e-01
9.99461464e-01
9.99369821e-01
9.99275329e-01
9.99177871e-01
9.99077293e-01
9.98973375e-01
9.98865810e-01
9.98754192e-01
9.98638016e-01
9.98516687e-01
9.98389548e-01
9.98255913e-01
9.98115118e-01
9.97966569e-01
9.97809802e-01
9.97644531e-01
9.97470702e-01
9.97288521e-01
9.97098475e-01
9.96901327e-01
9.96698121e-01
9.96490137e-01
9.96278827e-01
9.96065784e-01
9.95852700e-01
9.95641270e-01
9.95433068e-01
9.95229651e-01
9.95032437e-01
9.94842609e-01
9.94661012e-01
9.94488589e-01
9.94325894e-01
9.94173172e-01
9.94030353e-01
9.93897932e-01
9.93775422e-01
9.93662439e-01
9.93558415e-01
9.93463950e-01
9.93377403e-01
9.93298892e-01
9.93227452e-01
9.93164274e-01
9.93106819e-01
9.93057319e-01
9.93011568e-01
9.92974166e-01
9.92944086e-01
9.92922978e-01
9.92889717e-01
9.92879632e-01
1.00847329e+00
1.00847502e+00
1.00848349e+00
1.00848275e+00
1.00848325e+00
1.00848968e+00
1.00849175e+00
1.00848861e+00
1.00848215e+00
1.00846965e+00
1.00844803e+00
1.00841669e+00
1.00837360e+00
1.00831750e+00
1.00824755e+00
1.00816246e+00
1.00806146e+00
1.00794512e+00
1.00781349e+00
1.00766667e+00
1.00750594e+00
1.00733289e+00
1.00714867e+00
1.00695491e+00
1.00675375e+00
1.00654702e+00
1.00633636e+00
1.00612362e+00
1.00591046e+00
1.00569816e+00
1.00548786e+00
1.00528051e+00
1.00507677e+00
1.00487702e+00
1.00468151e+00
1.00449030e+00
1.00430329e+00
1.00412029e+00
1.00394106e+00
1.00376533e+00
1.00359283e+00
1.00342332e+00
1.00325660e+00
1.00309253e+00
1.00293103e+00
1.00277207e+00
1.00261569e+00
1.00246200e+00
1.00231111e+00
1.00216323e+00
1.00201857e+00
1.00187736e+00
1.00173985e+00
1.00160632e+00
1.00147700e+00
1.00135214e+00
1.00123193e+00
1.00111651e+00
1.00100597e+00
1.00090032e+00
1.00079947e+00
1.00070324e+00
1.00061134e+00
1.00052338e+00
1.00043889e+00
1.00035730e+00
1.00027799e+00
1.00020030e+00
1.00012354e+00
1.00004706e+00
9.99970216e-01
9.99892434e-01
9.99813211e-01
9.99732126e-01
9.99648843e-01
9.99563104e-01
9.99474718e-01
9.99383538e-01
9.99289440e-01
9.99192290e-01
9.99091919e-01
9.98988095e-01
9.98880508e-01
9.98768753e-01
9.98652333e-01
9.98530670e-01
9.98403126e-01
9.98269042e-01
9.98127783e-01
9.97978787e-01
9.97821613e-01
9.97656006e-01
9.97481935e-01
9.97299617e-01
9.97109537e-01
9.96912480e-01
9.96709488e-01
9.96501796e-01
9.96290853e-01
9.96078298e-01
9.95865756e-01
9.95654814e-01
9.95447172e-01
9.95244424e-01
9.95047746e-01
9.94858285e-01
9.94677302e-01
9.94505484e-01
9.94342945e-01
9.94190361e-01
9.94048269e-01
9.93916024e-01
9.93793119e-01
9.93680352e-01
9.93577137e-01
9.93482003e-01
9.93395084e-01
9.93317018e-01
9.93246013e-01
9.93182102e-01
9.93125070e-01
9.93073947e-01
9.93030400e-01
9.92996177e-01
9.92960651e-01
9.92930851e-01
9.92923452e-01
9.92914785e-01
1.00847248e+00
1.00846998e+00
1.00847159e+00
1.00847225e+00
1.00847528e+00
1.00847748e+00
1.00847700e+00
1.00847315e+00
1.00846510e+00
1.00844983e+00
1.00842625e+00
1.00839301e+00
1.00834834e+00
1.00829059e+00
1.00821908e+00
1.00813292e+00
1.00803144e+00
1.00791453e+00
1.00778256e+00
1.00763602e+00
1.00747583e+00
1.00730323e+00
1.00711975e+00
1.00692701e+00
1.00672679e+00
1.00652092e+00
1.00631122e+00
1.00609936e+00
1.00588690e+00
1.00567519e+00
1.00546539e+00
1.00525838e+00
1.00505484e+00
1.00485521e+00
1.00465974e+00
1.00446850e+00
1.00428144e+00
1.00409840e+00
1.00391917e+00
1.00374349e+00
1.00357114e+00
1.00340187e+00
1.00323553e+00
1.00307196e+00
1.00291111e+00
1.00275294e+00
1.00259751e+00
1.00244489e+00
1.00229523e+00
1.00214869e+00
1.00200548e+00
1.00186582e+00
1.00172995e+00
1.00159811e+00
1.00147053e+00
1.00134741e+00
1.00122895e+00
1.00111525e+00
1.00100640e+00
1.00090236e+00
1.00080306e+00
1.00070829e+00
1.00061776e+00
1.00053109e+00
1.00044780e+00
1.00036735e+00
1.00028911e+00
1.00021244e+00
1.00013668e+00
1.00006115e+00
9.99985254e-01
9.99908403e-01
9.99830098e-01
9.99749912e-01
9.99667499e-01
9.99582588e-01
9.99494971e-01
9.99404480e-01
9.99310969e-01
9.99214286e-01
9.99114245e-01
9.99010602e-01
9.98903038e-01
9.98791151e-01
9.98674451e-01
9.98552376e-01
9.98424313e-01
9.98289633e-01
9.98147735e-01
9.97998093e-01
9.97840310e-01
9.97674165e-01
9.97499652e-01
9.97317020e-01
9.97126783e-01
9.96929719e-01
9.96726861e-01
9.96519475e-01
9.96308995e-01
9.96096978e-01
9.95885058e-01
9.95674882e-01
9.95468025e-01
9.95265960e-01
9.95070031e-01
9.94881401e-01
9.94701004e-01
9.94529560e-01
9.94367624e-01
9.94215525e-01
9.94073371e-01
9.93941072e-01
9.93818576e-01
9.93705610e-01
9.93601707e-01
9.93506375e-01
9.93419639e-01
9.93340810e-01
9.93269137e-01
9.93204676e-01
9.93148052e-01
9.93097056e-01
9.93051995e-01
9.93015315e-01
9.92985822e-01
9.92957876e-01
9.92940020e-01
9.92926951e-01
1.00846630e+00
1.00846289e+00
1.00845861e+00
1.00846185e+00
1.00846475e+00
1.00846206e+00
1.00845948e+00
1.00845481e+00
1.00844363e+00
1.00842547e+00
1.00839973e+00
1.00836387e+00
1.00831684e+00
1.00825734e+00
1.00818389e+00
1.00809615e+00
1.00799388e+00
1.00787633e+00
1.00774381e+00
1.00759740e+00
1.00743770e+00
1.00726561e+00
1.00708287e+00
1.00689118e+00
1.00669200e+00
1.00648711e+00
1.00627843e+00
1.00606753e+00
1.00585584e+00
1.00564479e+00
1.00543552e+00
1.00522888e+00
1.00502556e+00
1.00482606e+00
1.00463063e+00
1.00443937e+00
1.00425226e+00
1.00406921e+00
1.00389001e+00
1.00371445e+00
1.00354232e+00
1.00337343e+00
1.00320760e+00
1.00304473e+00
1.00288474e+00
1.00272763e+00
1.00257343e+00
1.00242223e+00
1.00227415e+00
1.00212936e+00
1.00198803e+00
1.00185038e+00
1.00171662e+00
1.00158696e+00
1.00146162e+00
1.00134078e+00
1.00122457e+00
1.00111312e+00
1.00100645e+00
1.00090453e+00
1.00080725e+00
1.00071441e+00
1.00062571e+00
1.00054076e+00
1.00045910e+00
1.00038018e+00
1.00030340e+00
1.00022812e+00
1.00015369e+00
1.00007948e+00
1.00000485e+00
9.99929249e-01
9.99852167e-01
9.99773174e-01
9.99691910e-01
9.99608088e-01
9.99521476e-01
9.99431886e-01
9.99339146e-01
9.99243081e-01
9.99143483e-01
9.99040096e-01
9.98932592e-01
9.98820570e-01
9.98703551e-01
9.98580991e-01
9.98452307e-01
9.98316909e-01
9.98174235e-01
9.98023805e-01
9.97865271e-01
9.97698456e-01
9.97523387e-01
9.97340348e-01
9.97149883e-01
9.96952773e-01
9.96750048e-01
9.96542987e-01
9.96333013e-01
9.96121616e-01
9.95910426e-01
9.95701118e-01
9.95495162e-01
9.95293927e-01
9.95098880e-01
9.94911173e-01
9.94731448e-01
9.94560500e-01
9.94399209e-01
9.94247565e-01
9.94105311e-01
9.93973025e-01
9.93850786e-01
9.93737372e-01
9.93632652e-01
9.93537256e-01
9.93450120e-01
9.93370099e-01
9.93298018e-01
9.93233168e-01
9.93175035e-01
9.93124690e-01
9.93080129e-01
9.93039349e-01
9.93010116e-01
9.92988366e-01
9.92965764e-01
9.92951129e-01
1.00845310e+00
1.00845187e+00
1.00844985e+00
1.00844888e+00
1.00844700e+00
1.00844482e+00
1.00844083e+00
1.00843182e+00
1.00841728e+00
1.00839692e+00
1.00836836e+00
1.00832949e+00
1.00827956e+00
1.00821768e+00
1.00814247e+00
1.00805301e+00
1.00794911e+00
1.00783077e+00
1.00769805e+00
1.00755138e+00
1.00739176e+00
1.00722038e+00
1.00703850e+00
1.00684760e+00
1.00664944e+00
1.00644573e+00
1.00623807e+00
1.00602807e+00
1.00581727e+00
1.00560696e+00
1.00539823e+00
1.00519200e+00
1.00498899e+00
1.00478965e+00
1.00459430e+00
1.00440308e+00
1.00421601e+00
1.00403301e+00
1.00385393e+00
1.00367860e+00
1.00350683e+00
1.00333846e+00
1.00317334e+00
1.00301136e+00
1.00285249e+00
1.00269669e+00
1.00254403e+00
1.00239456e+00
1.00224841e+00
1.00210572e+00
1.00196666e+00
1.00183142e+00
1.00170019e+00
1.00157315e+00
1.00145048e+00
1.00133235e+00
1.00121885e+00
1.00111008e+00
1.00100604e+00
1.00090667e+00
1.00081186e+00
1.00072137e+00
1.00063491e+00
1.00055209e+00
1.00047244e+00
1.00039543e+00
1.00032048e+00
1.00024695e+00
1.00017420e+00
1.00010162e+00
1.00002857e+00
9.99954515e-01
9.99878934e-01
9.99801391e-01
9.99721514e-01
9.99638998e-01
9.99553590e-01
9.99465077e-01
9.99373262e-01
9.99277945e-01
9.99178900e-01
9.99075854e-01
9.98968472e-01
9.98856353e-01
9.98739029e-01
9.98615980e-01
9.98486651e-01
9.98350488e-01
9.98206979e-01
9.98055692e-01
9.97896326e-01
9.97728751e-01
9.97553052e-01
9.97369537e-01
9.97178767e-01
9.96981566e-01
9.96778976e-01
9.96572227e-01
9.96362740e-01
9.96152055e-01
9.95941716e-01
9.95733269e-01
9.95528279e-01
9.95328160e-01
9.95134083e-01
9.94947146e-01
9.94768346e-01
9.94598289e-01
9.94437317e-01
9.94285860e-01
9.94144155e-01
9.94011943e-01
9.93888958e-01
9.93775240e-01
9.93670563e-01
9.93574244e-01
9.93485728e-01
9.93405159e-01
9.93332655e-01
9.93267077e-01
9.93207361e-01
9.93155226e-01
9.93111559e-01
9.93072834e-01
9.93039528e-01
9.93014631e-01
9.92994962e-01
9.92983962e-01
1.00844026e+00
1.00843726e+00
1.00843636e+00
1.00843291e+00
1.00842887e+00
1.00842522e+00
1.00841719e+00
1.00840464e+00
1.00838792e+00
1.00836404e+00
1.00833138e+00
1.00828964e+00
1.00823695e+00
1.00817196e+00
1.00809433e+00
1.00800310e+00
1.00789754e+00
1.00777805e+00
1.00764480e+00
1.00749792e+00
1.00733843e+00
1.00716762e+00
1.00698653e+00
1.00679657e+00
1.00659951e+00
1.00639695e+00
1.00619038e+00
1.00598141e+00
1.00577156e+00
1.00556202e+00
1.00535391e+00
1.00514816e+00
1.00494548e+00
1.00474636e+00
1.00455115e+00
1.00436003e+00
1.00417306e+00
1.00399019e+00
1.00381133e+00
1.00363634e+00
1.00346507e+00
1.00329738e+00
1.00313315e+00
1.00297229e+00
1.00281475e+00
1.00266054e+00
1.00250969e+00
1.00236227e+00
1.00221838e+00
1.00207815e+00
1.00194173e+00
1.00180929e+00
1.00168097e+00
1.00155696e+00
1.00143738e+00
1.00132236e+00
1.00121199e+00
1.00110630e+00
1.00100529e+00
1.00090888e+00
1.00081690e+00
1.00072914e+00
1.00064528e+00
1.00056493e+00
1.00048763e+00
1.00041286e+00
1.00034003e+00
1.00026854e+00
1.00019776e+00
1.00012707e+00
1.00005587e+00
9.99983608e-01
9.99909770e-01
9.99833910e-01
9.99755642e-01
9.99674643e-01
9.99590635e-01
9.99503377e-01
9.99412647e-01
9.99318218e-01
9.99219840e-01
9.99117225e-01
9.99010029e-01
9.98897853e-01
9.98780241e-01
9.98656695e-01
9.98526695e-01
9.98389730e-01
9.98245336e-01
9.98093140e-01
9.97932893e-01
9.97764518e-01
9.97588149e-01
9.97404140e-01
9.97213075e-01
9.97015794e-01
9.96813363e-01
9.96607001e-01
9.96398091e-01
9.96188171e-01
9.95978771e-01
9.95771351e-01
9.95567429e-01
9.95368442e-01
9.95175476e-01
9.94989506e-01
9.94811590e-01
9.94642344e-01
9.94481900e-01
9.94330727e-01
9.94189244e-01
9.94056956e-01
9.93933515e-01
9.93819384e-01
9.93714089e-01
9.93616591e-01
9.93527238e-01
9.93446062e-01
9.93371703e-01
9.93304659e-01
9.93245443e-01
9.93192031e-01
9.93145311e-01
9.93107266e-01
9.93074484e-01
9.93048001e-01
9.93030294e-01
9.93018148e-01
1.00842747e+00
1.00842301e+00
1.00841823e+00
1.00841400e+00
1.00840918e+00
1.00840124e+00
1.00838960e+00
1.00837468e+00
1.00835423e+00
1.00832612e+00
1.00828985e+00
1.00824458e+00
1.00818859e+00
1.00812060e+00
1.00804004e+00
1.00794653e+00
1.00783951e+00
1.00771868e+00
1.00758438e+00
1.00743734e+00
1.00727813e+00
1.00710762e+00
1.00692722e+00
1.00673839e+00
1.00654246e+00
1.00634097e+00
1.00613559e+00
1.00592780e+00
1.00571890e+00
1.00551019e+00
1.00530281e+00
1.00509762e+00
1.00489534e+00
1.00469652e+00
1.00450155e+00
1.00431061e+00
1.00412383e+00
1.00394122e+00
1.00376272e+00
1.00358821e+00
1.00341761e+00
1.00325078e+00
1.00308764e+00
1.00292812e+00
1.00277217e+00
1.00261981e+00
1.00247105e+00
1.00232597e+00
1.00218465e+00
1.00204721e+00
1.00191376e+00
1.00178445e+00
1.00165941e+00
1.00153876e+00
1.00142262e+00
1.00131107e+00
1.00120417e+00
1.00110192e+00
1.00100428e+00
1.00091114e+00
1.00082233e+00
1.00073761e+00
1.00065665e+00
1.00057907e+00
1.00050440e+00
1.00043213e+00
1.00036169e+00
1.00029249e+00
1.00022391e+00
1.00015535e+00
1.00008622e+00
1.00001596e+00
9.99944061e-01
9.99870070e-01
9.99793588e-01
9.99714270e-01
9.99631814e-01
9.99545954e-01
9.99456436e-01
9.99363009e-01
9.99265401e-01
9.99163303e-01
9.99056368e-01
9.98944195e-01
9.98826343e-01
9.98702337e-01
9.98571693e-01
9.98433947e-01
9.98288684e-01
9.98135587e-01
9.97974471e-01
9.97805314e-01
9.97628291e-01
9.97443808e-01
9.97252497e-01
9.97055191e-01
9.96852954e-01
9.96647051e-01
9.96438842e-01
9.96229755e-01
9.96021335e-01
9.95815108e-01
9.95612406e-01
9.95414514e-01
9.95222726e-01
9.95038001e-01
9.94860944e-01
9.94692272e-01
9.94532607e-01
9.94381952e-01
9.94240187e-01
9.94107635e-01
9.93984269e-01
9.93869398e-01
9.93762709e-01
9.93664422e-01
9.93574275e-01
9.93491512e-01
9.93415695e-01
9.93347296e-01
9.93286768e-01
9.93232779e-01
9.93184694e-01
9.93144707e-01
9.93112415e-01
9.93085875e-01
9.93065694e-01
9.93053157e-01
1.00840948e+00
1.00840451e+00
1.00839870e+00
1.00839299e+00
1.00838498e+00
1.00837351e+00
1.00835956e+00
1.00834083e+00
1.00831540e+00
1.00828364e+00
1.00824402e+00
1.00819436e+00
1.00813435e+00
1.00806337e+00
1.00797999e+00
1.00788377e+00
1.00777476e+00
1.00765260e+00
1.00751741e+00
1.00736994e+00
1.00721076e+00
1.00704072e+00
1.00686114e+00
1.00667331e+00
1.00647851e+00
1.00627829e+00
1.00607419e+00
1.00586755e+00
1.00565972e+00
1.00545199e+00
1.00524540e+00
1.00504085e+00
1.00483908e+00
1.00464067e+00
1.00444602e+00
1.00425539e+00
1.00406893e+00
1.00388671e+00
1.00370870e+00
1.00353484e+00
1.00336508e+00
1.00319931e+00
1.00303748e+00
1.00287952e+00
1.00272541e+00
1.00257514e+00
1.00242875e+00
1.00228629e+00
1.00214784e+00
1.00201347e+00
1.00188331e+00
1.00175744e+00
1.00163597e+00
1.00151900e+00
1.00140660e+00
1.00129882e+00
1.00119568e+00
1.00109715e+00
1.00100316e+00
1.00091357e+00
1.00082819e+00
1.00074675e+00
1.00066893e+00
1.00059434e+00
1.00052251e+00
1.00045295e+00
1.00038509e+00
1.00031836e+00
1.00025215e+00
1.00018589e+00
1.00011898e+00
1.00005087e+00
9.99981062e-01
9.99909085e-01
9.99834527e-01
9.99757024e-01
9.99676249e-01
9.99591907e-01
9.99503716e-01
9.99411397e-01
9.99314653e-01
9.99213161e-01
9.99106562e-01
9.98994462e-01
9.98876430e-01
9.98752020e-01
9.98620784e-01
9.98482305e-01
9.98336226e-01
9.98182286e-01
9.98020359e-01
9.97850488e-01
9.97672898e-01
9.97488030e-01
9.97296552e-01
9.97099336e-01
9.96897430e-01
9.96692077e-01
9.96484657e-01
9.96276573e-01
9.96069270e-01
9.95864249e-01
9.95662868e-01
9.95466295e-01
9.95275691e-01
9.95092082e-01
9.94916077e-01
9.94748184e-01
9.94588992e-01
9.94438651e-01
9.94296985e-01
9.94164172e-01
9.94040205e-01
9.93924479e-01
9.93816896e-01
9.93717608e-01
9.93625779e-01
9.93541150e-01
9.93464534e-01
9.93395016e-01
9.93331708e-01
9.93276273e-01
9.93228550e-01
9.93186792e-01
9.93152515e-01
9.93126271e-01
9.93106604e-01
9.93093755e-01
1.00838861e+00
1.00838336e+00
1.00837648e+00
1.00836790e+00
1.00835685e+00
1.00834297e+00
1.00832528e+00
1.00830208e+00
1.00827286e+00
1.00823689e+00
1.00819267e+00
1.00813901e+00
1.00807516e+00
1.00800040e+00
1.00791398e+00
1.00781521e+00
1.00770386e+00
1.00758015e+00
1.00744415e+00
1.00729609e+00
1.00713681e+00
1.00696736e+00
1.00678860e+00
1.00660169e+00
1.00640813e+00
1.00620931e+00
1.00600649e+00
1.00580109e+00
1.00559449e+00
1.00538782e+00
1.00518211e+00
1.00497831e+00
1.00477719e+00
1.00457931e+00
1.00438511e+00
1.00419492e+00
1.00400895e+00
1.00382726e+00
1.00364992e+00
1.00347692e+00
1.00330819e+00
1.00314370e+00
1.00298340e+00
1.00282724e+00
1.00267520e+00
1.00252730e+00
1.00238353e+00
1.00224396e+00
1.00210863e+00
1.00197761e+00
1.00185098e+00
1.00172882e+00
1.00161118e+00
1.00149814e+00
1.00138973e+00
1.00128595e+00
1.00118680e+00
1.00109221e+00
1.00100207e+00
1.00091623e+00
1.00083446e+00
1.00075649e+00
1.00068198e+00
1.00061053e+00
1.00054170e+00
1.00047498e+00
1.00040983e+00
1.00034569e+00
1.00028198e+00
1.00021812e+00
1.00015354e+00
1.00008769e+00
1.00002006e+00
9.99950188e-01
9.99877644e-01
9.99802044e-01
9.99723036e-01
9.99640298e-01
9.99553519e-01
9.99462392e-01
9.99366597e-01
9.99265794e-01
9.99159618e-01
9.99047675e-01
9.98929551e-01
9.98804828e-01
9.98673094e-01
9.98533980e-01
9.98387188e-01
9.98232519e-01
9.98069901e-01
9.97899434e-01
9.97721411e-01
9.97536305e-01
9.97344799e-01
9.97147803e-01
9.96946392e-01
9.96741752e-01
9.96535230e-01
9.96328279e-01
9.96122278e-01
9.95918559e-01
9.95718527e-01
9.95523425e-01
9.95334145e-01
9.95151568e-01
9.94976611e-01
9.94809693e-01
9.94650890e-01
9.94500627e-01
9.94359191e-01
9.94226132e-01
9.94101167e-01
9.93984609e-01
9.93876222e-01
9.93775291e-01
9.93681764e-01
9.93595878e-01
9.93517397e-01
9.93445889e-01
9.93381344e-01
9.93324324e-01
9.93274806e-01
9.93232080e-01
9.93197107e-01
9.93169747e-01
9.93148861e-01
9.93136388e-01
1.00836460e+00
1.00835794e+00
1.00834974e+00
1.00833902e+00
1.00832559e+00
1.00830848e+00
1.00828626e+00
1.00825903e+00
1.00822614e+00
1.00818536e+00
1.00813620e+00
1.00807854e+00
1.00801082e+00
1.00793203e+00
1.00784216e+00
1.00774074e+00
1.00762723e+00
1.00750175e+00
1.00736461e+00
1.00721610e+00
1.00705689e+00
1.00688783e+00
1.00670983e+00
1.00652409e+00
1.00633187e+00
1.00613439e+00
1.00593298e+00
1.00572902e+00
1.00552371e+00
1.00531818e+00
1.00511351e+00
1.00491062e+00
1.00471026e+00
1.00451303e+00
1.00431946e+00
1.00412989e+00
1.00394454e+00
1.00376359e+00
1.00358712e+00
1.00341516e+00
1.00324769e+00
1.00308470e+00
1.00292615e+00
1.00277203e+00
1.00262232e+00
1.00247701e+00
1.00233612e+00
1.00219968e+00
1.00206771e+00
1.00194028e+00
1.00181741e+00
1.00169917e+00
1.00158558e+00
1.00147666e+00
1.00137242e+00
1.00127283e+00
1.00117783e+00
1.00108734e+00
1.00100120e+00
1.00091923e+00
1.00084119e+00
1.00076680e+00
1.00069569e+00
1.00062748e+00
1.00056172e+00
1.00049792e+00
1.00043555e+00
1.00037406e+00
1.00031289e+00
1.00025148e+00
1.00018927e+00
1.00012572e+00
1.00006032e+00
9.99992595e-01
9.99922112e-01
9.99848464e-01
9.99771277e-01
9.99690201e-01
9.99604896e-01
9.99515028e-01
9.99420254e-01
9.99320219e-01
9.99214550e-01
9.99102858e-01
9.98984744e-01
9.98859817e-01
9.98727708e-01
9.98588096e-01
9.98440736e-01
9.98285492e-01
9.98122359e-01
9.97951483e-01
9.97773205e-01
9.97588055e-01
9.97396741e-01
9.97200161e-01
9.96999408e-01
9.96795691e-01
9.96590287e-01
9.96384578e-01
9.96179982e-01
9.95977796e-01
9.95779238e-01
9.95585528e-01
9.95397673e-01
9.95216385e-01
9.95042349e-01
9.94876155e-01
9.94718004e-01
9.94567987e-01
9.94426279e-01
9.94292788e-01
9.94167280e-01
9.94049734e-01
9.93939871e-01
9.93837354e-01
9.93742441e-01
9.93654952e-01
9.93574149e-01
9.93500615e-01
9.93435006e-01
9.93376229e-01
9.93324385e-01
9.93280694e-01
9.93245014e-01
9.93216626e-01
9.93195681e-01
9.93182731e-01
1.00833652e+00
1.00832900e+00
1.00831906e+00
1.00830614e+00
1.00828966e+00
1.00826898e+00
1.00824325e+00
1.00821186e+00
1.00817400e+00
1.00812878e+00
1.00807537e+00
1.00801293e+00
1.00794085e+00
1.00785846e+00
1.00776511e+00
1.00766063e+00
1.00754493e+00
1.00741776e+00
1.00727939e+00
1.00713042e+00
1.00697128e+00
1.00680260e+00
1.00662547e+00
1.00644098e+00
1.00625010e+00
1.00605407e+00
1.00585425e+00
1.00565181e+00
1.00544788e+00
1.00524366e+00
1.00504019e+00
1.00483834e+00
1.00463888e+00
1.00444251e+00
1.00424973e+00
1.00406093e+00
1.00387643e+00
1.00369642e+00
1.00352103e+00
1.00335032e+00
1.00318434e+00
1.00302308e+00
1.00286654e+00
1.00271469e+00
1.00256754e+00
1.00242507e+00
1.00228728e+00
1.00215418e+00
1.00202580e+00
1.00190214e+00
1.00178323e+00
1.00166908e+00
1.00155969e+00
1.00145504e+00
1.00135510e+00
1.00125981e+00
1.00116907e+00
1.00108276e+00
1.00100069e+00
1.00092267e+00
1.00084842e+00
1.00077764e+00
1.00070997e+00
1.00064503e+00
1.00058235e+00
1.00052148e+00
1.00046188e+00
1.00040305e+00
1.00034442e+00
1.00028545e+00
1.00022559e+00
1.00016433e+00
1.00010115e+00
1.00003557e+00
9.99967146e-01
9.99895457e-01
9.99820105e-01
9.99740713e-01
9.99656916e-01
9.99568353e-01
9.99474660e-01
9.99375466e-01
9.99270392e-01
9.99159053e-01
9.99041070e-01
9.98916076e-01
9.98783745e-01
9.98643807e-01
9.98496070e-01
9.98340453e-01
9.98177016e-01
9.98005967e-01
9.97827676e-01
9.97642712e-01
9.97451831e-01
9.97255930e-01
9.97056063e-01
9.96853461e-01
9.96649405e-01
9.96445164e-01
9.96242093e-01
9.96041554e-01
9.95844673e-01
9.95652460e-01
9.95465988e-01
9.95286073e-01
9.95113099e-01
9.94947541e-01
9.94789935e-01
9.94640242e-01
9.94498232e-01
9.94364170e-01
9.94238078e-01
9.94119366e-01
9.94007923e-01
9.93904063e-01
9.93807444e-01
9.93717664e-01
9.93635097e-01
9.93560001e-01
9.93492059e-01
9.93431190e-01
9.93378254e-01
9.93333396e-01
9.93295937e-01
9.93266326e-01
9.93245197e-01
9.93232101e-01
1.00830346e+00
1.00829488e+00
1.00828350e+00
1.00826856e+00
1.00824905e+00
1.00822466e+00
1.00819533e+00
1.00815972e+00
1.00811699e+00
1.00806719e+00
1.00800936e+00
1.00794226e+00
1.00786574e+00
1.00777953e+00
1.00768281e+00
1.00757534e+00
1.00745719e+00
1.00732836e+00
1.00718898e+00
1.00703944e+00
1.00688028e+00
1.00671222e+00
1.00653609e+00
1.00635278e+00
1.00616336e+00
1.00596902e+00
1.00577086e+00
1.00557001e+00
1.00536767e+00
1.00516494e+00
1.00496278e+00
1.00476212e+00
1.00456378e+00
1.00436843e+00
1.00417662e+00
1.00398882e+00
1.00380536e+00
1.00362650e+00
1.00345241e+00
1.00328320e+00
1.00311894e+00
1.00295965e+00
1.00280535e+00
1.00265601e+00
1.00251165e+00
1.00237223e+00
1.00223775e+00
1.00210820e+00
1.00198357e+00
1.00186386e+00
1.00174905e+00
1.00163912e+00
1.00153404e+00
1.00143376e+00
1.00133820e+00
1.00124727e+00
1.00116083e+00
1.00107872e+00
1.00100074e+00
1.00092666e+00
1.00085618e+00
1.00078900e+00
1.00072474e+00
1.00066302e+00
1.00060339e+00
1.00054538e+00
1.00048851e+00
1.00043226e+00
1.00037610e+00
1.00031951e+00
1.00026195e+00
1.00020292e+00
1.00014190e+00
1.00007841e+00
1.00001201e+00
9.99942244e-01
9.99868706e-01
9.99790992e-01
9.99708712e-01
9.99621478e-01
9.99528909e-01
9.99430618e-01
9.99326222e-01
9.99215343e-01
9.99097617e-01
9.98972711e-01
9.98840334e-01
9.98700266e-01
9.98552374e-01
9.98396632e-01
9.98233148e-01
9.98062191e-01
9.97884182e-01
9.97699703e-01
9.97509523e-01
9.97314579e-01
9.97115911e-01
9.96914673e-01
9.96712149e-01
9.96509632e-01
9.96308341e-01
9.96109523e-01
9.95914398e-01
9.95723936e-01
9.95538940e-01
9.95360237e-01
9.95188427e-01
9.95023764e-01
9.94866490e-01
9.94716871e-01
9.94574863e-01
9.94440297e-01
9.94313129e-01
9.94193273e-01
9.94080617e-01
9.93975054e-01
9.93876376e-01
9.93784706e-01
9.93700388e-01
9.93623126e-01
9.93552918e-01
9.93490533e-01
9.93436089e-01
9.93389214e-01
9.93350611e-01
9.93320613e-01
9.93298688e-01
9.93284776e-01
1.00826535e+00
1.00825593e+00
1.00824261e+00
1.00822530e+00
1.00820322e+00
1.00817544e+00
1.00814184e+00
1.00810204e+00
1.00805517e+00
1.00800053e+00
1.00793779e+00
1.00786645e+00
1.00778577e+00
1.00769541e+00
1.00759528e+00
1.00748504e+00
1.00736451e+00
1.00723398e+00
1.00709362e+00
1.00694361e+00
1.00678456e+00
1.00661719e+00
1.00644208e+00
1.00626011e+00
1.00607234e+00
1.00587977e+00
1.00568337e+00
1.00548432e+00
1.00528374e+00
1.00508262e+00
1.00488195e+00
1.00468270e+00
1.00448565e+00
1.00429151e+00
1.00410089e+00
1.00391429e+00
1.00373211e+00
1.00355462e+00
1.00338207e+00
1.00321460e+00
1.00305229e+00
1.00289521e+00
1.00274338e+00
1.00259678e+00
1.00245542e+00
1.00231925e+00
1.00218827e+00
1.00206244e+00
1.00194172e+00
1.00182608e+00
1.00171548e+00
1.00160986e+00
1.00150915e+00
1.00141327e+00
1.00132211e+00
1.00123553e+00
1.00115337e+00
1.00107544e+00
1.00100150e+00
1.00093130e+00
1.00086452e+00
1.00080085e+00
1.00073992e+00
1.00068132e+00
1.00062463e+00
1.00056939e+00
1.00051513e+00
1.00046135e+00
1.00040756e+00
1.00035323e+00
1.00029786e+00
1.00024094e+00
1.00018198e+00
1.00012050e+00
1.00005603e+00
9.99988120e-01
9.99916341e-01
9.99840268e-01
9.99759486e-01
9.99673587e-01
9.99582168e-01
9.99484834e-01
9.99381196e-01
9.99270883e-01
9.99153551e-01
9.99028896e-01
9.98896668e-01
9.98756691e-01
9.98608886e-01
9.98453290e-01
9.98290057e-01
9.98119493e-01
9.97942072e-01
9.97758411e-01
9.97569268e-01
9.97375576e-01
9.97178402e-01
9.96978858e-01
9.96778135e-01
9.96577526e-01
9.96378258e-01
9.96181423e-01
9.95988145e-01
9.95799488e-01
9.95616181e-01
9.95438812e-01
9.95268062e-01
9.95104312e-01
9.94947553e-01
9.94797969e-01
9.94655797e-01
9.94520759e-01
9.94392607e-01
9.94271582e-01
9.94157586e-01
9.94050193e-01
9.93949623e-01
9.93856246e-01
9.93769789e-01
9.93690200e-01
9.93618269e-01
9.93554286e-01
9.93497767e-01
9.93449185e-01
9.93409810e-01
9.93378869e-01
9.93355553e-01
9.93341327e-01
1.00822084e+00
1.00821044e+00
1.00819606e+00
1.00817637e+00
1.00815128e+00
1.00812042e+00
1.00808297e+00
1.00803877e+00
1.00798760e+00
1.00792853e+00
1.00786112e+00
1.00778531e+00
1.00770058e+00
1.00760643e+00
1.00750286e+00
1.00738982e+00
1.00726719e+00
1.00713505e+00
1.00699366e+00
1.00684339e+00
1.00668467e+00
1.00651797e+00
1.00634401e+00
1.00616364e+00
1.00597763e+00
1.00578689e+00
1.00559248e+00
1.00539545e+00
1.00519675e+00
1.00499741e+00
1.00479847e+00
1.00460081e+00
1.00440524e+00
1.00421252e+00
1.00402332e+00
1.00383815e+00
1.00365745e+00
1.00348159e+00
1.00331081e+00
1.00314531e+00
1.00298519e+00
1.00283055e+00
1.00268141e+00
1.00253776e+00
1.00239960e+00
1.00226687e+00
1.00213955e+00
1.00201757e+00
1.00190087e+00
1.00178940e+00
1.00168307e+00
1.00158179e+00
1.00148547e+00
1.00139399e+00
1.00130719e+00
1.00122492e+00
1.00114697e+00
1.00107312e+00
1.00100312e+00
1.00093667e+00
1.00087348e+00
1.00081318e+00
1.00075542e+00
1.00069980e+00
1.00064589e+00
1.00059327e+00
1.00054146e+00
1.00049000e+00
1.00043841e+00
1.00038619e+00
1.00033285e+00
1.00027791e+00
1.00022087e+00
1.00016126e+00
1.00009861e+00
1.00003246e+00
9.99962361e-01
9.99887865e-01
9.99808539e-01
9.99723958e-01
9.99633700e-01
9.99537360e-01
9.99434550e-01
9.99324906e-01
9.99208104e-01
9.99083866e-01
9.98951988e-01
9.98812340e-01
9.98664887e-01
9.98509719e-01
9.98347050e-01
9.98177222e-01
9.98000726e-01
9.97818219e-01
9.97630481e-01
9.97438403e-01
9.97243021e-01
9.97045477e-01
9.96846904e-01
9.96648461e-01
9.96451377e-01
9.96256782e-01
9.96065615e-01
9.95878806e-01
9.95697238e-01
9.95521466e-01
9.95351854e-01
9.95188855e-01
9.95032742e-01
9.94883430e-01
9.94740900e-01
9.94605288e-01
9.94476489e-01
9.94354267e-01
9.94238625e-01
9.94129710e-01
9.94027537e-01
9.93932024e-01
9.93843408e-01
9.93762174e-01
9.93688417e-01
9.93622137e-01
9.93564042e-01
9.93514528e-01
9.93473515e-01
9.93441188e-01
9.93417985e-01
9.93403362e-01
1.00817003e+00
1.00815869e+00
1.00814290e+00
1.00812108e+00
1.00809306e+00
1.00805895e+00
1.00801806e+00
1.00796980e+00
1.00791414e+00
1.00785081e+00
1.00777920e+00
1.00769900e+00
1.00761019e+00
1.00751256e+00
1.00740582e+00
1.00729006e+00
1.00716542e+00
1.00703189e+00
1.00688971e+00
1.00673931e+00
1.00658097e+00
1.00641517e+00
1.00624260e+00
1.00606392e+00
1.00587979e+00
1.00569115e+00
1.00549893e+00
1.00530402e+00
1.00510740e+00
1.00491010e+00
1.00471307e+00
1.00451718e+00
1.00432331e+00
1.00413226e+00
1.00394468e+00
1.00376116e+00
1.00358220e+00
1.00340819e+00
1.00323942e+00
1.00307611e+00
1.00291842e+00
1.00276644e+00
1.00262019e+00
1.00247969e+00
1.00234490e+00
1.00221577e+00
1.00209223e+00
1.00197421e+00
1.00186161e+00
1.00175435e+00
1.00165232e+00
1.00155539e+00
1.00146343e+00
1.00137628e+00
1.00129377e+00
1.00121569e+00
1.00114183e+00
1.00107193e+00
1.00100570e+00
1.00094285e+00
1.00088306e+00
1.00082595e+00
1.00077118e+00
1.00071834e+00
1.00066702e+00