# vtk DataFile Version 2.0
LBM Flow Field - Timestep 1340
ASCII
DATASET STRUCTURED_POINTS
DIMENSIONS 128 128 1
ORIGIN 0.0 0.0 0.0
SPACING 1.0 1.0 1.0
POINT_DATA 16384
SCALARS density double 1
LOOKUP_TABLE default
1.00828356e+00
1.00825803e+00
1.00821359e+00
1.00814634e+00
1.00805467e+00
1.00794653e+00
1.00782075e+00
1.00767749e+00
1.00752299e+00
1.00735923e+00
1.00718415e+00
1.00700195e+00
1.00681648e+00
1.00662671e+00
1.00643292e+00
1.00623862e+00
1.00604432e+00
1.00584911e+00
1.00565422e+00
1.00546101e+00
1.00526900e+00
1.00507822e+00
1.00488957e+00
1.00470333e+00
1.00451939e+00
1.00433812e+00
1.00415997e+00
1.00398503e+00
1.00381345e+00
1.00364550e+00
1.00348139e+00
1.00332123e+00
1.00316519e+00
1.00301349e+00
1.00286630e+00
1.00272380e+00
1.00258621e+00
1.00245370e+00
1.00232645e+00
1.00220459e+00
1.00208817e+00
1.00197721e+00
1.00187163e+00
1.00177127e+00
1.00167591e+00
1.00158525e+00
1.00149894e+00
1.00141659e+00
1.00133782e+00
1.00126222e+00
1.00118940e+00
1.00111904e+00
1.00105081e+00
1.00098447e+00
1.00091983e+00
1.00085672e+00
1.00079505e+00
1.00073477e+00
1.00067586e+00
1.00061836e+00
1.00056231e+00
1.00050778e+00
1.00045486e+00
1.00040364e+00
1.00035420e+00
1.00030661e+00
1.00026092e+00
1.00021713e+00
1.00017519e+00
1.00013500e+00
1.00009641e+00
1.00005919e+00
1.00002304e+00
9.99987623e-01
9.99952540e-01
9.99917348e-01
9.99881570e-01
9.99844704e-01
9.99806225e-01
9.99765590e-01
9.99722247e-01
9.99675626e-01
9.99625155e-01
9.99570253e-01
9.99510348e-01
9.99444878e-01
9.99373314e-01
9.99295168e-01
9.99210020e-01
9.99117527e-01
9.99017446e-01
9.98909635e-01
9.98794069e-01
9.98670835e-01
9.98540141e-01
9.98402259e-01
9.98257544e-01
9.98106425e-01
9.97949334e-01
9.97786601e-01
9.97618593e-01
9.97445679e-01
9.97267937e-01
9.97085287e-01
9.96897962e-01
9.96706073e-01
9.96509124e-01
9.96307255e-01
9.96101473e-01
9.95891993e-01
9.95678710e-01
9.95464029e-01
9.95250257e-01
9.95037707e-01
9.94828207e-01
9.94626737e-01
9.94434323e-01
9.94251533e-01
9.94081944e-01
9.93928616e-01
9.93789892e-01
9.93668919e-01
9.93565008e-01
9.93476455e-01
9.93408050e-01
9.93362494e-01
9.93322666e-01
9.93299831e-01
1.00826920e+00
1.00824649e+00
1.00819739e+00
1.00812929e+00
1.00804032e+00
1.00793306e+00
1.00780788e+00
1.00766669e+00
1.00751280e+00
1.00734954e+00
1.00717618e+00
1.00699523e+00
1.00680968e+00
1.00662065e+00
1.00642798e+00
1.00623379e+00
1.00603929e+00
1.00584452e+00
1.00564983e+00
1.00545627e+00
1.00526410e+00
1.00507340e+00
1.00488461e+00
1.00469815e+00
1.00451423e+00
1.00433306e+00
1.00415497e+00
1.00398021e+00
1.00380897e+00
1.00364143e+00
1.00347783e+00
1.00331830e+00
1.00316302e+00
1.00301215e+00
1.00286588e+00
1.00272438e+00
1.00258781e+00
1.00245634e+00
1.00233011e+00
1.00220920e+00
1.00209367e+00
1.00198349e+00
1.00187857e+00
1.00177875e+00
1.00168380e+00
1.00159341e+00
1.00150726e+00
1.00142497e+00
1.00134615e+00
1.00127042e+00
1.00119741e+00
1.00112680e+00
1.00105828e+00
1.00099162e+00
1.00092662e+00
1.00086314e+00
1.00080109e+00
1.00074040e+00
1.00068109e+00
1.00062316e+00
1.00056667e+00
1.00051168e+00
1.00045829e+00
1.00040658e+00
1.00035662e+00
1.00030849e+00
1.00026223e+00
1.00021784e+00
1.00017528e+00
1.00013446e+00
1.00009522e+00
1.00005734e+00
1.00002055e+00
9.99984522e-01
9.99948859e-01
9.99913135e-01
9.99876881e-01
9.99839598e-01
9.99800761e-01
9.99759828e-01
9.99716239e-01
9.99669421e-01
9.99618793e-01
9.99563770e-01
9.99503776e-01
9.99438246e-01
9.99366650e-01
9.99288502e-01
9.99203382e-01
9.99110950e-01
9.99010963e-01
9.98903279e-01
9.98787880e-01
9.98664848e-01
9.98534382e-01
9.98396758e-01
9.98252345e-01
9.98101535e-01
9.97944739e-01
9.97782337e-01
9.97614705e-01
9.97442100e-01
9.97264658e-01
9.97082485e-01
9.96895698e-01
9.96704234e-01
9.96507966e-01
9.96307252e-01
9.96102513e-01
9.95894022e-01
9.95682433e-01
9.95469806e-01
9.95257325e-01
9.95046292e-01
9.94838983e-01
9.94639170e-01
9.94447246e-01
9.94265623e-01
9.94096748e-01
9.93943615e-01
9.93804646e-01
9.93683150e-01
9.93577364e-01
9.93490445e-01
9.93422521e-01
9.93372021e-01
9.93328526e-01
9.93312973e-01
1.00825398e+00
1.00822983e+00
1.00818479e+00
1.00811802e+00
1.00803045e+00
1.00792068e+00
1.00779484e+00
1.00765699e+00
1.00750392e+00
1.00733800e+00
1.00716571e+00
1.00698699e+00
1.00680041e+00
1.00661016e+00
1.00641880e+00
1.00622486e+00
1.00602906e+00
1.00583397e+00
1.00563959e+00
1.00544532e+00
1.00525232e+00
1.00506141e+00
1.00487233e+00
1.00468534e+00
1.00450114e+00
1.00431996e+00
1.00414189e+00
1.00396729e+00
1.00379649e+00
1.00362960e+00
1.00346680e+00
1.00330831e+00
1.00315428e+00
1.00300484e+00
1.00286015e+00
1.00272035e+00
1.00258558e+00
1.00245593e+00
1.00233151e+00
1.00221236e+00
1.00209849e+00
1.00198983e+00
1.00188626e+00
1.00178761e+00
1.00169363e+00
1.00160401e+00
1.00151843e+00
1.00143653e+00
1.00135792e+00
1.00128224e+00
1.00120915e+00
1.00113833e+00
1.00106951e+00
1.00100245e+00
1.00093697e+00
1.00087295e+00
1.00081030e+00
1.00074898e+00
1.00068898e+00
1.00063033e+00
1.00057308e+00
1.00051729e+00
1.00046307e+00
1.00041048e+00
1.00035962e+00
1.00031056e+00
1.00026333e+00
1.00021796e+00
1.00017441e+00
1.00013260e+00
1.00009239e+00
1.00005358e+00
1.00001593e+00
9.99979109e-01
9.99942753e-01
9.99906444e-01
9.99869724e-01
9.99832098e-01
9.99793041e-01
9.99752005e-01
9.99708419e-01
9.99661697e-01
9.99611245e-01
9.99556462e-01
9.99496755e-01
9.99431549e-01
9.99360300e-01
9.99282514e-01
9.99197764e-01
9.99105706e-01
9.99006091e-01
9.98898784e-01
9.98783765e-01
9.98661123e-01
9.98531050e-01
9.98393846e-01
9.98249881e-01
9.98099530e-01
9.97943206e-01
9.97781365e-01
9.97614323e-01
9.97442252e-01
9.97265451e-01
9.97084152e-01
9.96898123e-01
9.96707307e-01
9.96512241e-01
9.96312954e-01
9.96108994e-01
9.95901516e-01
9.95692185e-01
9.95480936e-01
9.95268623e-01
9.95059197e-01
9.94854376e-01
9.94653928e-01
9.94461422e-01
9.94281367e-01
9.94112853e-01
9.93957027e-01
9.93817626e-01
9.93694929e-01
9.93588827e-01
9.93501562e-01
9.93428973e-01
9.93373501e-01
9.93343682e-01
9.93326936e-01
1.00824730e+00
1.00822430e+00
1.00817505e+00
1.00810516e+00
1.00801777e+00
1.00791056e+00
1.00778498e+00
1.00764463e+00
1.00749199e+00
1.00732770e+00
1.00715427e+00
1.00697407e+00
1.00678827e+00
1.00659806e+00
1.00640510e+00
1.00621044e+00
1.00601472e+00
1.00581868e+00
1.00562301e+00
1.00542821e+00
1.00523467e+00
1.00504279e+00
1.00485298e+00
1.00466563e+00
1.00448105e+00
1.00429958e+00
1.00412156e+00
1.00394728e+00
1.00377698e+00
1.00361091e+00
1.00344925e+00
1.00329219e+00
1.00313985e+00
1.00299238e+00
1.00284988e+00
1.00271244e+00
1.00258014e+00
1.00245303e+00
1.00233114e+00
1.00221444e+00
1.00210289e+00
1.00199637e+00
1.00189473e+00
1.00179775e+00
1.00170517e+00
1.00161669e+00
1.00153197e+00
1.00145068e+00
1.00137244e+00
1.00129693e+00
1.00122381e+00
1.00115279e+00
1.00108364e+00
1.00101612e+00
1.00095009e+00
1.00088543e+00
1.00082206e+00
1.00075995e+00
1.00069910e+00
1.00063954e+00
1.00058133e+00
1.00052453e+00
1.00046923e+00
1.00041552e+00
1.00036348e+00
1.00031319e+00
1.00026470e+00
1.00021805e+00
1.00017320e+00
1.00013011e+00
1.00008865e+00
1.00004867e+00
1.00000992e+00
9.99972113e-01
9.99934912e-01
9.99897915e-01
9.99860676e-01
9.99822704e-01
9.99783476e-01
9.99742434e-01
9.99698992e-01
9.99652549e-01
9.99602485e-01
9.99548179e-01
9.99489016e-01
9.99424398e-01
9.99353768e-01
9.99276616e-01
9.99192507e-01
9.99101091e-01
9.99002122e-01
9.98895464e-01
9.98781097e-01
9.98659123e-01
9.98529748e-01
9.98393264e-01
9.98250034e-01
9.98100478e-01
9.97945002e-01
9.97783992e-01
9.97617801e-01
9.97446718e-01
9.97270894e-01
9.97090441e-01
9.96905426e-01
9.96715876e-01
9.96521791e-01
9.96323332e-01
9.96120828e-01
9.95914838e-01
9.95706110e-01
9.95495702e-01
9.95285227e-01
9.95076511e-01
9.94871183e-01
9.94671273e-01
9.94479762e-01
9.94298273e-01
9.94128055e-01
9.93971631e-01
9.93831468e-01
9.93706163e-01
9.93597605e-01
9.93507959e-01
9.93436663e-01
9.93379886e-01
9.93341554e-01
9.93321552e-01
1.00823428e+00
1.00820900e+00
1.00816388e+00
1.00809477e+00
1.00800438e+00
1.00789763e+00
1.00777321e+00
1.00763084e+00
1.00747737e+00
1.00731454e+00
1.00714028e+00
1.00695804e+00
1.00677235e+00
1.00658219e+00
1.00638751e+00
1.00619164e+00
1.00599562e+00
1.00579848e+00
1.00560132e+00
1.00540567e+00
1.00521134e+00
1.00501835e+00
1.00482769e+00
1.00463984e+00
1.00445483e+00
1.00427309e+00
1.00409519e+00
1.00392134e+00
1.00375175e+00
1.00358674e+00
1.00342655e+00
1.00327128e+00
1.00312108e+00
1.00297606e+00
1.00283628e+00
1.00270177e+00
1.00257253e+00
1.00244855e+00
1.00232977e+00
1.00221610e+00
1.00210742e+00
1.00200356e+00
1.00190430e+00
1.00180940e+00
1.00171858e+00
1.00163154e+00
1.00154793e+00
1.00146744e+00
1.00138973e+00
1.00131448e+00
1.00124140e+00
1.00117022e+00
1.00110072e+00
1.00103272e+00
1.00096608e+00
1.00090069e+00
1.00083650e+00
1.00077348e+00
1.00071164e+00
1.00065101e+00
1.00059164e+00
1.00053362e+00
1.00047702e+00
1.00042194e+00
1.00036847e+00
1.00031668e+00
1.00026665e+00
1.00021841e+00
1.00017197e+00
1.00012730e+00
1.00008431e+00
1.00004287e+00
1.00000277e+00
9.99963763e-01
9.99925530e-01
9.99887696e-01
9.99849831e-01
9.99811453e-01
9.99772035e-01
9.99731010e-01
9.99687777e-01
9.99641707e-01
9.99592157e-01
9.99538477e-01
9.99480023e-01
9.99416176e-01
9.99346353e-01
9.99270032e-01
9.99186764e-01
9.99096194e-01
9.98998073e-01
9.98892270e-01
9.98778770e-01
9.98657682e-01
9.98529225e-01
9.98393698e-01
9.98251458e-01
9.98102945e-01
9.97948575e-01
9.97788685e-01
9.97623633e-01
9.97453784e-01
9.97279213e-01
9.97099908e-01
9.96916155e-01
9.96728059e-01
9.96535199e-01
9.96337843e-01
9.96136959e-01
9.95932511e-01
9.95724512e-01
9.95515236e-01
9.95306535e-01
9.95098155e-01
9.94892335e-01
9.94693359e-01
9.94501906e-01
9.94318101e-01
9.94146595e-01
9.93989557e-01
9.93846179e-01
9.93718431e-01
9.93608446e-01
9.93514481e-01
9.93440358e-01
9.93385221e-01
9.93344122e-01
9.93321785e-01
1.00822371e+00
1.00819801e+00
1.00814949e+00
1.00808101e+00
1.00799101e+00
1.00788148e+00
1.00775631e+00
1.00761609e+00
1.00746143e+00
1.00729564e+00
1.00712169e+00
1.00694019e+00
1.00675223e+00
1.00656024e+00
1.00636572e+00
1.00616897e+00
1.00597083e+00
1.00577263e+00
1.00557496e+00
1.00537793e+00
1.00518223e+00
1.00498859e+00
1.00479731e+00
1.00460868e+00
1.00442330e+00
1.00424165e+00
1.00406398e+00
1.00389065e+00
1.00372206e+00
1.00355845e+00
1.00339999e+00
1.00324687e+00
1.00309920e+00
1.00295704e+00
1.00282039e+00
1.00268924e+00
1.00256351e+00
1.00244310e+00
1.00232786e+00
1.00221764e+00
1.00211222e+00
1.00201137e+00
1.00191483e+00
1.00182232e+00
1.00173354e+00
1.00164817e+00
1.00156588e+00
1.00148637e+00
1.00140932e+00
1.00133445e+00
1.00126148e+00
1.00119020e+00
1.00112040e+00
1.00105193e+00
1.00098466e+00
1.00091852e+00
1.00085345e+00
1.00078945e+00
1.00072653e+00
1.00066471e+00
1.00060406e+00
1.00054466e+00
1.00048658e+00
1.00042993e+00
1.00037479e+00
1.00032126e+00
1.00026943e+00
1.00021934e+00
1.00017103e+00
1.00012451e+00
1.00007971e+00
1.00003655e+00
9.99994859e-01
9.99954422e-01
9.99914956e-01
9.99876112e-01
9.99837481e-01
9.99798588e-01
9.99758908e-01
9.99717861e-01
9.99674827e-01
9.99629154e-01
9.99580166e-01
9.99527183e-01
9.99469528e-01
9.99406554e-01
9.99337655e-01
9.99262288e-01
9.99179993e-01
9.99090408e-01
9.98993283e-01
9.98888493e-01
9.98776037e-01
9.98656026e-01
9.98528688e-01
9.98394348e-01
9.98253381e-01
9.98106181e-01
9.97953182e-01
9.97794798e-01
9.97631308e-01
9.97462943e-01
9.97289966e-01
9.97112467e-01
9.96930331e-01
9.96743638e-01
9.96552620e-01
9.96357227e-01
9.96157514e-01
9.95954258e-01
9.95748375e-01
9.95540439e-01
9.95331602e-01
9.95124015e-01
9.94919646e-01
9.94719741e-01
9.94526198e-01
9.94342166e-01
9.94169867e-01
9.94009460e-01
9.93862550e-01
9.93732729e-01
9.93620594e-01
9.93524263e-01
9.93445731e-01
9.93386912e-01
9.93344985e-01
9.93323841e-01
1.00820814e+00
1.00818127e+00
1.00813136e+00
1.00806279e+00
1.00797410e+00
1.00786360e+00
1.00773628e+00
1.00759604e+00
1.00744131e+00
1.00727393e+00
1.00709896e+00
1.00691704e+00
1.00672774e+00
1.00653432e+00
1.00633897e+00
1.00614101e+00
1.00594138e+00
1.00574211e+00
1.00554340e+00
1.00534512e+00
1.00514844e+00
1.00495412e+00
1.00476216e+00
1.00457307e+00
1.00438763e+00
1.00420617e+00
1.00402897e+00
1.00385654e+00
1.00368925e+00
1.00352730e+00
1.00337092e+00
1.00322029e+00
1.00307548e+00
1.00293650e+00
1.00280332e+00
1.00267584e+00
1.00255391e+00
1.00243735e+00
1.00232593e+00
1.00221939e+00
1.00211746e+00
1.00201984e+00
1.00192622e+00
1.00183627e+00
1.00174968e+00
1.00166612e+00
1.00158528e+00
1.00150686e+00
1.00143058e+00
1.00135617e+00
1.00128341e+00
1.00121210e+00
1.00114206e+00
1.00107317e+00
1.00100533e+00
1.00093846e+00
1.00087254e+00
1.00080756e+00
1.00074353e+00
1.00068049e+00
1.00061849e+00
1.00055762e+00
1.00049795e+00
1.00043959e+00
1.00038264e+00
1.00032719e+00
1.00027335e+00
1.00022120e+00
1.00017080e+00
1.00012218e+00
1.00007534e+00
1.00003021e+00
9.99986689e-01
9.99944595e-01
9.99903682e-01
9.99863634e-01
9.99824061e-01
9.99784502e-01
9.99744429e-01
9.99703254e-01
9.99660338e-01
9.99615000e-01
9.99566534e-01
9.99514226e-01
9.99457368e-01
9.99395281e-01
9.99327335e-01
9.99252969e-01
9.99171710e-01
9.99083195e-01
9.98987174e-01
9.98883526e-01
9.98772264e-01
9.98653520e-01
9.98527526e-01
9.98394612e-01
9.98255186e-01
9.98109639e-01
9.97958365e-01
9.97801795e-01
9.97640248e-01
9.97473857e-01
9.97302832e-01
9.97127390e-01
9.96947368e-01
9.96762627e-01
9.96573559e-01
9.96380261e-01
9.96182396e-01
9.95980728e-01
9.95776586e-01
9.95570058e-01
9.95361947e-01
9.95155163e-01
9.94951204e-01
9.94750360e-01
9.94555925e-01
9.94371190e-01
9.94195983e-01
9.94032239e-01
9.93883986e-01
9.93751109e-01
9.93633471e-01
9.93534625e-01
9.93454528e-01
9.93392809e-01
9.93350181e-01
9.93326312e-01
1.00818717e+00
1.00816075e+00
1.00811228e+00
1.00804095e+00
1.00794981e+00
1.00784116e+00
1.00771388e+00
1.00757036e+00
1.00741503e+00
1.00724885e+00
1.00707192e+00
1.00688746e+00
1.00669828e+00
1.00650448e+00
1.00630673e+00
1.00610738e+00
1.00590754e+00
1.00570702e+00
1.00550666e+00
1.00530778e+00
1.00511069e+00
1.00491551e+00
1.00472309e+00
1.00453414e+00
1.00434892e+00
1.00416784e+00
1.00399155e+00
1.00382044e+00
1.00365474e+00
1.00349478e+00
1.00334083e+00
1.00319299e+00
1.00305128e+00
1.00291573e+00
1.00278622e+00
1.00266258e+00
1.00254460e+00
1.00243200e+00
1.00232449e+00
1.00222171e+00
1.00212333e+00
1.00202898e+00
1.00193831e+00
1.00185096e+00
1.00176660e+00
1.00168490e+00
1.00160555e+00
1.00152829e+00
1.00145284e+00
1.00137899e+00
1.00130652e+00
1.00123527e+00
1.00116509e+00
1.00109588e+00
1.00102756e+00
1.00096006e+00
1.00089337e+00
1.00082747e+00
1.00076238e+00
1.00069814e+00
1.00063480e+00
1.00057244e+00
1.00051114e+00
1.00045100e+00
1.00039214e+00
1.00033465e+00
1.00027867e+00
1.00022429e+00
1.00017162e+00
1.00012072e+00
1.00007163e+00
1.00002434e+00
9.99978770e-01
9.99934802e-01
9.99892228e-01
9.99850764e-01
9.99810045e-01
9.99769624e-01
9.99728975e-01
9.99687502e-01
9.99644546e-01
9.99599402e-01
9.99551333e-01
9.99499592e-01
9.99443439e-01
9.99382166e-01
9.99315121e-01
9.99241725e-01
9.99161496e-01
9.99074067e-01
9.98979198e-01
9.98876777e-01
9.98766823e-01
9.98649494e-01
9.98525048e-01
9.98393808e-01
9.98256174e-01
9.98112597e-01
9.97963458e-01
9.97809073e-01
9.97649805e-01
9.97485919e-01
9.97317401e-01
9.97144281e-01
9.96966779e-01
9.96784790e-01
9.96597985e-01
9.96406676e-01
9.96211419e-01
9.96012125e-01
9.95809085e-01
9.95603908e-01
9.95397924e-01
9.95191609e-01
9.94986636e-01
9.94786024e-01
9.94591576e-01
9.94404059e-01
9.94225907e-01
9.94060638e-01
9.93909361e-01
9.93772014e-01
9.93651083e-01
9.93549539e-01
9.93466289e-01
9.93401302e-01
9.93356099e-01
9.93330820e-01
1.00816117e+00
1.00813290e+00
1.00808513e+00
1.00801406e+00
1.00792147e+00
1.00781174e+00
1.00768457e+00
1.00754052e+00
1.00738376e+00
1.00721663e+00
1.00703912e+00
1.00685375e+00
1.00666334e+00
1.00646834e+00
1.00626965e+00
1.00606947e+00
1.00586852e+00
1.00566696e+00
1.00546602e+00
1.00526666e+00
1.00506898e+00
1.00487358e+00
1.00468137e+00
1.00449276e+00
1.00430808e+00
1.00412802e+00
1.00395311e+00
1.00378362e+00
1.00361992e+00
1.00346238e+00
1.00331116e+00
1.00316634e+00
1.00302798e+00
1.00289601e+00
1.00277027e+00
1.00265052e+00
1.00253648e+00
1.00242781e+00
1.00232412e+00
1.00222501e+00
1.00213007e+00
1.00203888e+00
1.00195104e+00
1.00186620e+00
1.00178398e+00
1.00170408e+00
1.00162621e+00
1.00155009e+00
1.00147551e+00
1.00140225e+00
1.00133016e+00
1.00125907e+00
1.00118887e+00
1.00111947e+00
1.00105080e+00
1.00098281e+00
1.00091548e+00
1.00084878e+00
1.00078275e+00
1.00071741e+00
1.00065281e+00
1.00058902e+00
1.00052611e+00
1.00046420e+00
1.00040340e+00
1.00034383e+00
1.00028564e+00
1.00022894e+00
1.00017388e+00
1.00012056e+00
1.00006906e+00
1.00001942e+00
9.99971613e-01
9.99925566e-01
9.99881114e-01
9.99838009e-01
9.99795913e-01
9.99754394e-01
9.99712932e-01
9.99670925e-01
9.99627698e-01
9.99582524e-01
9.99534638e-01
9.99483264e-01
9.99427633e-01
9.99367012e-01
9.99300729e-01
9.99228194e-01
9.99148918e-01
9.99062535e-01
9.98968813e-01
9.98867660e-01
9.98759112e-01
9.98643331e-01
9.98520605e-01
9.98391288e-01
9.98255757e-01
9.98114441e-01
9.97967776e-01
9.97816061e-01
9.97659524e-01
9.97498449e-01
9.97332939e-01
9.97162841e-01
9.96988185e-01
9.96809116e-01
9.96625353e-01
9.96436769e-01
9.96243932e-01
9.96047130e-01
9.95846383e-01
9.95642899e-01
9.95438136e-01
9.95232661e-01
9.95028159e-01
9.94827401e-01
9.94631474e-01
9.94441905e-01
9.94262397e-01
9.94094612e-01
9.93938608e-01
9.93797895e-01
9.93675089e-01
9.93569262e-01
9.93481612e-01
9.93415028e-01
9.93368953e-01
9.93341665e-01
1.00812989e+00
1.00810063e+00
1.00804921e+00
1.00797910e+00
1.00788799e+00
1.00777565e+00
1.00764702e+00
1.00750445e+00
1.00734698e+00
1.00717741e+00
1.00699979e+00
1.00681472e+00
1.00662250e+00
1.00642614e+00
1.00622761e+00
1.00602673e+00
1.00582439e+00
1.00562255e+00
1.00542173e+00
1.00522189e+00
1.00502406e+00
1.00482928e+00
1.00463772e+00
1.00444978e+00
1.00426634e+00
1.00408792e+00
1.00391477e+00
1.00374737e+00
1.00358619e+00
1.00343142e+00
1.00328320e+00
1.00314167e+00
1.00300681e+00
1.00287849e+00
1.00275651e+00
1.00264059e+00
1.00253037e+00
1.00242544e+00
1.00232536e+00
1.00222967e+00
1.00213790e+00
1.00204961e+00
1.00196438e+00
1.00188181e+00
1.00180155e+00
1.00172330e+00
1.00164678e+00
1.00157175e+00
1.00149800e+00
1.00142537e+00
1.00135370e+00
1.00128287e+00
1.00121278e+00
1.00114335e+00
1.00107450e+00
1.00100619e+00
1.00093839e+00
1.00087109e+00
1.00080428e+00
1.00073800e+00
1.00067227e+00
1.00060716e+00
1.00054275e+00
1.00047915e+00
1.00041646e+00
1.00035483e+00
1.00029441e+00
1.00023537e+00
1.00017786e+00
1.00012203e+00
1.00006801e+00
1.00001589e+00
9.99965688e-01
9.99917378e-01
9.99870840e-01
9.99825864e-01
9.99782141e-01
9.99739259e-01
9.99696705e-01
9.99653874e-01
9.99610083e-01
9.99564584e-01
9.99516593e-01
9.99465308e-01
9.99409937e-01
9.99349729e-01
9.99283997e-01
9.99212142e-01
9.99133678e-01
9.99048246e-01
9.98955624e-01
9.98855735e-01
9.98748651e-01
9.98634548e-01
9.98513709e-01
9.98386524e-01
9.98253404e-01
9.98114715e-01
9.97970854e-01
9.97822214e-01
9.97668967e-01
9.97511169e-01
9.97349018e-01
9.97182553e-01
9.97011420e-01
9.96835527e-01
9.96655173e-01
9.96470144e-01
9.96280080e-01
9.96085717e-01
9.95887957e-01
9.95686762e-01
9.95482879e-01
9.95278613e-01
9.95075429e-01
9.94873914e-01
9.94676443e-01
9.94486345e-01
9.94304900e-01
9.94133129e-01
9.93974327e-01
9.93831458e-01
9.93704356e-01
9.93594192e-01
9.93504752e-01
9.93436120e-01
9.93386057e-01
9.93357477e-01
1.00808699e+00
1.00805778e+00
1.00800706e+00
1.00793584e+00
1.00784416e+00
1.00773250e+00
1.00760338e+00
1.00745955e+00
1.00730201e+00
1.00713265e+00
1.00695413e+00
1.00676804e+00
1.00657574e+00
1.00637927e+00
1.00617989e+00
1.00597843e+00
1.00577629e+00
1.00557453e+00
1.00537351e+00
1.00517404e+00
1.00497714e+00
1.00478322e+00
1.00459267e+00
1.00440634e+00
1.00422482e+00
1.00404840e+00
1.00387760e+00
1.00371294e+00
1.00355468e+00
1.00340300e+00
1.00325811e+00
1.00312009e+00
1.00298882e+00
1.00286416e+00
1.00274587e+00
1.00263362e+00
1.00252697e+00
1.00242548e+00
1.00232867e+00
1.00223602e+00
1.00214705e+00
1.00206128e+00
1.00197829e+00
1.00189767e+00
1.00181908e+00
1.00174224e+00
1.00166689e+00
1.00159281e+00
1.00151983e+00
1.00144780e+00
1.00137660e+00
1.00130611e+00
1.00123625e+00
1.00116692e+00
1.00109808e+00
1.00102965e+00
1.00096160e+00
1.00089390e+00
1.00082654e+00
1.00075952e+00
1.00069286e+00
1.00062662e+00
1.00056086e+00
1.00049569e+00
1.00043124e+00
1.00036764e+00
1.00030507e+00
1.00024372e+00
1.00018377e+00
1.00012542e+00
1.00006883e+00
1.00001414e+00
9.99961419e-01
9.99910690e-01
9.99861877e-01
9.99814808e-01
9.99769202e-01
9.99724671e-01
9.99680714e-01
9.99636729e-01
9.99592028e-01
9.99545854e-01
9.99497405e-01
9.99445864e-01
9.99390425e-01
9.99330325e-01
9.99264871e-01
9.99193462e-01
9.99115618e-01
9.99030996e-01
9.98939394e-01
9.98840751e-01
9.98735155e-01
9.98622827e-01
9.98504062e-01
9.98379223e-01
9.98248750e-01
9.98113051e-01
9.97972426e-01
9.97827187e-01
9.97677615e-01
9.97523728e-01
9.97365437e-01
9.97202825e-01
9.97035795e-01
9.96863942e-01
9.96687195e-01
9.96505769e-01
9.96319484e-01
9.96128342e-01
9.95933109e-01
9.95734444e-01
9.95532928e-01
9.95330005e-01
9.95127199e-01
9.94925867e-01
9.94728353e-01
9.94536916e-01
9.94352822e-01
9.94178829e-01
9.94018082e-01
9.93871448e-01
9.93740274e-01
9.93627951e-01
9.93535863e-01
9.93464168e-01
9.93413233e-01
9.93383424e-01
1.00803428e+00
1.00800511e+00
1.00795617e+00
1.00788370e+00
1.00779046e+00
1.00768028e+00
1.00755178e+00
1.00740644e+00
1.00724885e+00
1.00708054e+00
1.00690143e+00
1.00671459e+00
1.00652289e+00
1.00632661e+00
1.00612667e+00
1.00592551e+00
1.00572416e+00
1.00552264e+00
1.00532215e+00
1.00512402e+00
1.00492847e+00
1.00473587e+00
1.00454728e+00
1.00436330e+00
1.00418415e+00
1.00401039e+00
1.00384266e+00
1.00368122e+00
1.00352625e+00
1.00337808e+00
1.00323683e+00
1.00310243e+00
1.00297480e+00
1.00285377e+00
1.00273903e+00
1.00263018e+00
1.00252679e+00
1.00242836e+00
1.00233438e+00
1.00224432e+00
1.00215767e+00
1.00207396e+00
1.00199275e+00
1.00191367e+00
1.00183639e+00
1.00176065e+00
1.00168621e+00
1.00161291e+00
1.00154057e+00
1.00146909e+00
1.00139835e+00
1.00132826e+00
1.00125873e+00
1.00118966e+00
1.00112100e+00
1.00105266e+00
1.00098459e+00
1.00091673e+00
1.00084905e+00
1.00078153e+00
1.00071418e+00
1.00064703e+00
1.00058015e+00
1.00051362e+00
1.00044757e+00
1.00038216e+00
1.00031758e+00
1.00025402e+00
1.00019172e+00
1.00013089e+00
1.00007174e+00
1.00001445e+00
9.99959151e-01
9.99905891e-01
9.99854644e-01
9.99805277e-01
9.99757543e-01
9.99711075e-01
9.99665391e-01
9.99619899e-01
9.99573912e-01
9.99526670e-01
9.99477368e-01
9.99425180e-01
9.99369296e-01
9.99308951e-01
9.99243452e-01
9.99172212e-01
9.99094762e-01
9.99010773e-01
9.98920073e-01
9.98822631e-01
9.98718548e-01
9.98608060e-01
9.98491511e-01
9.98369261e-01
9.98241695e-01
9.98109250e-01
9.97972265e-01
9.97830901e-01
9.97685342e-01
9.97535755e-01
9.97381966e-01
9.97223701e-01
9.97061006e-01
9.96893746e-01
9.96721352e-01
9.96543769e-01
9.96361474e-01
9.96174292e-01
9.95982091e-01
9.95786073e-01
9.95587390e-01
9.95386269e-01
9.95184128e-01
9.94983704e-01
9.94786421e-01
9.94593360e-01
9.94407717e-01
9.94232715e-01
9.94069097e-01
9.93918641e-01
9.93785522e-01
9.93671495e-01
9.93575493e-01
9.93500850e-01
9.93449896e-01
9.93419262e-01
1.00797232e+00
1.00794209e+00
1.00789225e+00
1.00782118e+00
1.00772893e+00
1.00761777e+00
1.00748936e+00
1.00734561e+00
1.00718825e+00
1.00701938e+00
1.00684109e+00
1.00665536e+00
1.00646363e+00
1.00626748e+00
1.00606873e+00
1.00586856e+00
1.00566769e+00
1.00546733e+00
1.00526867e+00
1.00507216e+00
1.00487833e+00
1.00468819e+00
1.00450237e+00
1.00432112e+00
1.00414505e+00
1.00397480e+00
1.00381064e+00
1.00365281e+00
1.00350166e+00
1.00335738e+00
1.00321993e+00
1.00308928e+00
1.00296534e+00
1.00284783e+00
1.00273641e+00
1.00263067e+00
1.00253016e+00
1.00243435e+00
1.00234271e+00
1.00225471e+00
1.00216985e+00
1.00208766e+00
1.00200775e+00
1.00192974e+00
1.00185335e+00
1.00177835e+00
1.00170454e+00
1.00163177e+00
1.00155992e+00
1.00148889e+00
1.00141858e+00
1.00134890e+00
1.00127977e+00
1.00121109e+00
1.00114277e+00
1.00107472e+00
1.00100684e+00
1.00093906e+00
1.00087131e+00
1.00080356e+00
1.00073578e+00
1.00066799e+00
1.00060023e+00
1.00053259e+00
1.00046519e+00
1.00039820e+00
1.00033180e+00
1.00026622e+00
1.00020171e+00
1.00013852e+00
1.00007689e+00
1.00001704e+00
9.99959143e-01
9.99903290e-01
9.99849494e-01
9.99797659e-01
9.99747572e-01
9.99698893e-01
9.99651163e-01
9.99603803e-01
9.99556139e-01
9.99507419e-01
9.99456842e-01
9.99403587e-01
9.99346852e-01
9.99285880e-01
9.99219990e-01
9.99148612e-01
9.99071304e-01
9.98987760e-01
9.98897827e-01
9.98801514e-01
9.98698955e-01
9.98590386e-01
9.98476156e-01
9.98356677e-01
9.98232312e-01
9.98103398e-01
9.97970299e-01
9.97833228e-01
9.97692172e-01
9.97547147e-01
9.97398180e-01
9.97244945e-01
9.97087042e-01
9.96924428e-01
9.96756949e-01
9.96584102e-01
9.96405853e-01
9.96222641e-01
9.96034572e-01
9.95841879e-01
9.95645580e-01
9.95446871e-01
9.95246896e-01
9.95047251e-01
9.94849814e-01
9.94656853e-01
9.94470808e-01
9.94293675e-01
9.94127718e-01
9.93976107e-01
9.93840760e-01
9.93723192e-01
9.93625604e-01
9.93550445e-01
9.93497472e-01
9.93465148e-01
1.00789816e+00
1.00786821e+00
1.00781748e+00
1.00774738e+00
1.00765659e+00
1.00754536e+00
1.00741746e+00
1.00727537e+00
1.00711881e+00
1.00695038e+00
1.00677347e+00
1.00658901e+00
1.00639797e+00
1.00620308e+00
1.00600599e+00
1.00580706e+00
1.00560768e+00
1.00540952e+00
1.00521305e+00
1.00501871e+00
1.00482771e+00
1.00464080e+00
1.00445816e+00
1.00428041e+00
1.00410829e+00
1.00394206e+00
1.00378192e+00
1.00362829e+00
1.00348140e+00
1.00334121e+00
1.00320775e+00
1.00308098e+00
1.00296067e+00
1.00284652e+00
1.00273819e+00
1.00263524e+00
1.00253719e+00
1.00244351e+00
1.00235368e+00
1.00226720e+00
1.00218357e+00
1.00210237e+00
1.00202322e+00
1.00194580e+00
1.00186986e+00
1.00179521e+00
1.00172170e+00
1.00164921e+00
1.00157765e+00
1.00150693e+00
1.00143698e+00
1.00136771e+00
1.00129902e+00
1.00123081e+00
1.00116296e+00
1.00109535e+00
1.00102786e+00
1.00096038e+00
1.00089281e+00
1.00082508e+00
1.00075714e+00
1.00068899e+00
1.00062064e+00
1.00055218e+00
1.00048371e+00
1.00041540e+00
1.00034745e+00
1.00028010e+00
1.00021360e+00
1.00014824e+00
1.00008429e+00
1.00002199e+00
9.99961546e-01
9.99903099e-01
9.99846694e-01
9.99792270e-01
9.99739646e-01
9.99688514e-01
9.99638439e-01
9.99588868e-01
9.99539146e-01
9.99488539e-01
9.99436264e-01
9.99381517e-01
9.99323514e-01
9.99261521e-01
9.99194884e-01
9.99123054e-01
9.99045620e-01
9.98962316e-01
9.98873018e-01
9.98777751e-01
9.98676691e-01
9.98570110e-01
9.98458329e-01
9.98341749e-01
9.98220784e-01
9.98095726e-01
9.97966794e-01
9.97834226e-01
9.97698068e-01
9.97558092e-01
9.97414162e-01
9.97266191e-01
9.97113699e-01
9.96956182e-01
9.96793652e-01
9.96625952e-01
9.96452532e-01
9.96273542e-01
9.96089680e-01
9.95901000e-01
9.95707834e-01
9.95511830e-01
9.95314372e-01
9.95116212e-01
9.94919517e-01
9.94727302e-01
9.94541073e-01
9.94362599e-01
9.94195686e-01
9.94043262e-01
9.93905695e-01
9.93785844e-01
9.93687674e-01
9.93611561e-01
9.93556412e-01
9.93523706e-01
1.00781009e+00
1.00778114e+00
1.00773259e+00
1.00766233e+00
1.00757170e+00
1.00746292e+00
1.00733672e+00
1.00719489e+00
1.00703999e+00
1.00687413e+00
1.00669849e+00
1.00651514e+00
1.00632646e+00
1.00613384e+00
1.00593826e+00
1.00574146e+00
1.00554496e+00
1.00534937e+00
1.00515546e+00
1.00496449e+00
1.00477719e+00
1.00459384e+00
1.00441514e+00
1.00424183e+00
1.00407417e+00
1.00391237e+00
1.00375690e+00
1.00360796e+00
1.00346555e+00
1.00332970e+00
1.00320043e+00
1.00307754e+00
1.00296076e+00
1.00284981e+00
1.00274430e+00
1.00264378e+00
1.00254775e+00
1.00245572e+00
1.00236720e+00
1.00228168e+00
1.00219874e+00
1.00211798e+00
1.00203907e+00
1.00196176e+00
1.00188583e+00
1.00181115e+00
1.00173760e+00
1.00166511e+00
1.00159362e+00
1.00152306e+00
1.00145336e+00
1.00138444e+00
1.00131619e+00
1.00124849e+00
1.00118119e+00
1.00111415e+00
1.00104721e+00
1.00098021e+00
1.00091304e+00
1.00084557e+00
1.00077774e+00
1.00070950e+00
1.00064086e+00
1.00057188e+00
1.00050266e+00
1.00043336e+00
1.00036418e+00
1.00029535e+00
1.00022715e+00
1.00015988e+00
1.00009382e+00
1.00002925e+00
9.99966399e-01
9.99905430e-01
9.99846421e-01
9.99789347e-01
9.99734057e-01
9.99680277e-01
9.99627602e-01
9.99575511e-01
9.99523378e-01
9.99470498e-01
9.99416118e-01
9.99359469e-01
9.99299796e-01
9.99236398e-01
9.99168660e-01
9.99096072e-01
9.99018256e-01
9.98934984e-01
9.98846178e-01
9.98751890e-01
9.98652301e-01
9.98547721e-01
9.98438499e-01
9.98324978e-01
9.98207535e-01
9.98086516e-01
9.97962071e-01
9.97834243e-01
9.97703105e-01
9.97568525e-01
9.97430074e-01
9.97287465e-01
9.97140528e-01
9.96988724e-01
9.96831501e-01
9.96668861e-01
9.96500769e-01
9.96326825e-01
9.96147199e-01
9.95962687e-01
9.95773796e-01
9.95581076e-01
9.95385986e-01
9.95190404e-01
9.94995897e-01
9.94804272e-01
9.94618197e-01
9.94440617e-01
9.94273527e-01
9.94119277e-01
9.93981091e-01
9.93861546e-01
9.93761588e-01
9.93683716e-01
9.93629728e-01
9.93597284e-01
1.00771058e+00
1.00768213e+00
1.00763498e+00
1.00756584e+00
1.00747645e+00
1.00736964e+00
1.00724537e+00
1.00710540e+00
1.00695289e+00
1.00678939e+00
1.00661590e+00
1.00643516e+00
1.00624927e+00
1.00605910e+00
1.00586624e+00
1.00567271e+00
1.00547937e+00
1.00528694e+00
1.00509683e+00
1.00490998e+00
1.00472672e+00
1.00454775e+00
1.00437392e+00
1.00420552e+00
1.00404274e+00
1.00388606e+00
1.00373574e+00
1.00359172e+00
1.00345406e+00
1.00332280e+00
1.00319777e+00
1.00307870e+00
1.00296535e+00
1.00285741e+00
1.00275441e+00
1.00265593e+00
1.00256152e+00
1.00247068e+00
1.00238294e+00
1.00229788e+00
1.00221511e+00
1.00213429e+00
1.00205515e+00
1.00197749e+00
1.00190117e+00
1.00182609e+00
1.00175219e+00
1.00167943e+00
1.00160777e+00
1.00153719e+00
1.00146761e+00
1.00139896e+00
1.00133110e+00
1.00126390e+00
1.00119719e+00
1.00113078e+00
1.00106449e+00
1.00099812e+00
1.00093151e+00
1.00086451e+00
1.00079701e+00
1.00072896e+00
1.00066032e+00
1.00059114e+00
1.00052150e+00