# vtk DataFile Version 2.0
LBM Flow Field - Timestep 2850
ASCII
DATASET STRUCTURED_POINTS
DIMENSIONS 128 128 1
ORIGIN 0.0 0.0 0.0
SPACING 1.0 1.0 1.0
POINT_DATA 16384
SCALARS density double 1
LOOKUP_TABLE default
9.95135321e-01
9.95143195e-01
9.95153784e-01
9.95160004e-01
9.95171298e-01
9.95186329e-01
9.95203234e-01
9.95222350e-01
9.95244535e-01
9.95269100e-01
9.95296582e-01
9.95326856e-01
9.95359731e-01
9.95395512e-01
9.95434528e-01
9.95476434e-01
9.95521366e-01
9.95569729e-01
9.95621517e-01
9.95676631e-01
9.95735361e-01
9.95797897e-01
9.95864190e-01
9.95934322e-01
9.96008484e-01
9.96086714e-01
9.96168995e-01
9.96255404e-01
9.96345984e-01
9.96440697e-01
9.96539514e-01
9.96642424e-01
9.96749371e-01
9.96860275e-01
9.96975067e-01
9.97093672e-01
9.97215994e-01
9.97341939e-01
9.97471419e-01
9.97604341e-01
9.97740609e-01
9.97880135e-01
9.98022830e-01
9.98168602e-01
9.98317357e-01
9.98469002e-01
9.98623433e-01
9.98780542e-01
9.98940208e-01
9.99102305e-01
9.99266692e-01
9.99433215e-01
9.99601714e-01
9.99772012e-01
9.99943925e-01
1.00011726e+00
1.00029181e+00
1.00046738e+00
1.00064374e+00
1.00082068e+00
1.00099797e+00
1.00117539e+00
1.00135270e+00
1.00152968e+00
1.00170610e+00
1.00188171e+00
1.00205630e+00
1.00222962e+00
1.00240146e+00
1.00257159e+00
1.00273979e+00
1.00290586e+00
1.00306959e+00
1.00323079e+00
1.00338928e+00
1.00354489e+00
1.00369746e+00
1.00384683e+00
1.00399289e+00
1.00413549e+00
1.00427455e+00
1.00440997e+00
1.00454167e+00
1.00466961e+00
1.00479375e+00
1.00491408e+00
1.00503060e+00
1.00514335e+00
1.00525239e+00
1.00535779e+00
1.00545965e+00
1.00555807e+00
1.00565320e+00
1.00574516e+00
1.00583409e+00
1.00592013e+00
1.00600340e+00
1.00608403e+00
1.00616209e+00
1.00623769e+00
1.00631086e+00
1.00638162e+00
1.00644997e+00
1.00651590e+00
1.00657933e+00
1.00664020e+00
1.00669843e+00
1.00675391e+00
1.00680656e+00
1.00685628e+00
1.00690297e+00
1.00694656e+00
1.00698704e+00
1.00702434e+00
1.00705844e+00
1.00708943e+00
1.00711732e+00
1.00714221e+00
1.00716416e+00
1.00718333e+00
1.00719987e+00
1.00721403e+00
1.00722573e+00
1.00723516e+00
1.00724274e+00
1.00724788e+00
1.00725128e+00
1.00725393e+00
9.95145557e-01
9.95149689e-01
9.95160507e-01
9.95168417e-01
9.95179883e-01
9.95193981e-01
9.95211210e-01
9.95230449e-01
9.95252585e-01
9.95277071e-01
9.95304547e-01
9.95334740e-01
9.95367691e-01
9.95403442e-01
9.95442363e-01
9.95484296e-01
9.95529313e-01
9.95577634e-01
9.95629412e-01
9.95684621e-01
9.95743407e-01
9.95805943e-01
9.95872294e-01
9.95942509e-01
9.96016703e-01
9.96094955e-01
9.96177284e-01
9.96263720e-01
9.96354293e-01
9.96448996e-01
9.96547794e-01
9.96650656e-01
9.96757534e-01
9.96868359e-01
9.96983053e-01
9.97101538e-01
9.97223726e-01
9.97349527e-01
9.97478847e-01
9.97611597e-01
9.97747687e-01
9.97887026e-01
9.98029526e-01
9.98175097e-01
9.98323646e-01
9.98475079e-01
9.98629293e-01
9.98786178e-01
9.98945615e-01
9.99107475e-01
9.99271616e-01
9.99437887e-01
9.99606122e-01
9.99776146e-01
9.99947773e-01
1.00012081e+00
1.00029505e+00
1.00047029e+00
1.00064630e+00
1.00082288e+00
1.00099979e+00
1.00117681e+00
1.00135372e+00
1.00153027e+00
1.00170625e+00
1.00188142e+00
1.00205555e+00
1.00222842e+00
1.00239980e+00
1.00256949e+00
1.00273725e+00
1.00290290e+00
1.00306622e+00
1.00322704e+00
1.00338516e+00
1.00354043e+00
1.00369268e+00
1.00384177e+00
1.00398756e+00
1.00412993e+00
1.00426878e+00
1.00440401e+00
1.00453555e+00
1.00466334e+00
1.00478735e+00
1.00490756e+00
1.00502399e+00
1.00513666e+00
1.00524563e+00
1.00535097e+00
1.00545277e+00
1.00555115e+00
1.00564622e+00
1.00573813e+00
1.00582701e+00
1.00591299e+00
1.00599620e+00
1.00607675e+00
1.00615474e+00
1.00623025e+00
1.00630332e+00
1.00637398e+00
1.00644223e+00
1.00650805e+00
1.00657138e+00
1.00663215e+00
1.00669028e+00
1.00674570e+00
1.00679829e+00
1.00684796e+00
1.00689464e+00
1.00693827e+00
1.00697878e+00
1.00701615e+00
1.00705037e+00
1.00708152e+00
1.00710955e+00
1.00713462e+00
1.00715679e+00
1.00717624e+00
1.00719297e+00
1.00720737e+00
1.00721930e+00
1.00722894e+00
1.00723668e+00
1.00724227e+00
1.00724618e+00
1.00724886e+00
9.95161196e-01
9.95165394e-01
9.95169314e-01
9.95179713e-01
9.95192464e-01
9.95205906e-01
9.95222691e-01
9.95242166e-01
9.95264162e-01
9.95288927e-01
9.95316255e-01
9.95346182e-01
9.95379276e-01
9.95415231e-01
9.95453889e-01
9.95495752e-01
9.95540988e-01
9.95589318e-01
9.95640958e-01
9.95696259e-01
9.95755171e-01
9.95817673e-01
9.95884020e-01
9.95954331e-01
9.96028563e-01
9.96106793e-01
9.96189141e-01
9.96275600e-01
9.96366142e-01
9.96460797e-01
9.96559553e-01
9.96662345e-01
9.96769120e-01
9.96879830e-01
9.96994395e-01
9.97112725e-01
9.97234739e-01
9.97360353e-01
9.97489472e-01
9.97622004e-01
9.97757864e-01
9.97896964e-01
9.98039214e-01
9.98184526e-01
9.98332808e-01
9.98483966e-01
9.98637894e-01
9.98794486e-01
9.98953620e-01
9.99115165e-01
9.99278979e-01
9.99444909e-01
9.99612787e-01
9.99782437e-01
9.99953670e-01
1.00012629e+00
1.00030009e+00
1.00047486e+00
1.00065039e+00
1.00082645e+00
1.00100281e+00
1.00117926e+00
1.00135556e+00
1.00153150e+00
1.00170683e+00
1.00188134e+00
1.00205479e+00
1.00222698e+00
1.00239769e+00
1.00256669e+00
1.00273379e+00
1.00289878e+00
1.00306148e+00
1.00322170e+00
1.00337926e+00
1.00353400e+00
1.00368576e+00
1.00383440e+00
1.00397979e+00
1.00412180e+00
1.00426033e+00
1.00439528e+00
1.00452659e+00
1.00465418e+00
1.00477803e+00
1.00489811e+00
1.00501443e+00
1.00512702e+00
1.00523591e+00
1.00534120e+00
1.00544295e+00
1.00554129e+00
1.00563633e+00
1.00572820e+00
1.00581703e+00
1.00590296e+00
1.00598610e+00
1.00606658e+00
1.00614449e+00
1.00621990e+00
1.00629286e+00
1.00636342e+00
1.00643155e+00
1.00649724e+00
1.00656045e+00
1.00662111e+00
1.00667914e+00
1.00673445e+00
1.00678697e+00
1.00683660e+00
1.00688325e+00
1.00692688e+00
1.00696741e+00
1.00700485e+00
1.00703920e+00
1.00707044e+00
1.00709864e+00
1.00712390e+00
1.00714628e+00
1.00716596e+00
1.00718298e+00
1.00719743e+00
1.00720966e+00
1.00721971e+00
1.00722750e+00
1.00723328e+00
1.00723716e+00
1.00724026e+00
9.95173469e-01
9.95178563e-01
9.95185411e-01
9.95195628e-01
9.95206798e-01
9.95220724e-01
9.95237841e-01
9.95257334e-01
9.95279181e-01
9.95303919e-01
9.95331394e-01
9.95361507e-01
9.95394466e-01
9.95430405e-01
9.95469294e-01
9.95511231e-01
9.95556374e-01
9.95604811e-01
9.95656619e-01
9.95711917e-01
9.95770828e-01
9.95833444e-01
9.95899851e-01
9.95970138e-01
9.96044385e-01
9.96122646e-01
9.96204959e-01
9.96291356e-01
9.96381849e-01
9.96476427e-01
9.96575065e-01
9.96677728e-01
9.96784363e-01
9.96894904e-01
9.97009279e-01
9.97127408e-01
9.97249208e-01
9.97374588e-01
9.97503462e-01
9.97635740e-01
9.97771334e-01
9.97910156e-01
9.98052118e-01
9.98197130e-01
9.98345101e-01
9.98495931e-01
9.98649520e-01
9.98805753e-01
9.98964511e-01
9.99125659e-01
9.99289054e-01
9.99454539e-01
9.99621946e-01
9.99791096e-01
9.99961797e-01
1.00013385e+00
1.00030705e+00
1.00048119e+00
1.00065604e+00
1.00083139e+00
1.00100700e+00
1.00118266e+00
1.00135815e+00
1.00153322e+00
1.00170767e+00
1.00188127e+00
1.00205380e+00
1.00222505e+00
1.00239480e+00
1.00256287e+00
1.00272904e+00
1.00289312e+00
1.00305493e+00
1.00321430e+00
1.00337106e+00
1.00352505e+00
1.00367611e+00
1.00382411e+00
1.00396892e+00
1.00411042e+00
1.00424851e+00
1.00438309e+00
1.00451408e+00
1.00464143e+00
1.00476508e+00
1.00488503e+00
1.00500127e+00
1.00511381e+00
1.00522270e+00
1.00532801e+00
1.00542981e+00
1.00552821e+00
1.00562331e+00
1.00571524e+00
1.00580412e+00
1.00589009e+00
1.00597326e+00
1.00605374e+00
1.00613163e+00
1.00620700e+00
1.00627989e+00
1.00635035e+00
1.00641837e+00
1.00648394e+00
1.00654701e+00
1.00660752e+00
1.00666541e+00
1.00672059e+00
1.00677298e+00
1.00682251e+00
1.00686909e+00
1.00691266e+00
1.00695319e+00
1.00699067e+00
1.00702506e+00
1.00705638e+00
1.00708475e+00
1.00711020e+00
1.00713275e+00
1.00715258e+00
1.00716990e+00
1.00718466e+00
1.00719707e+00
1.00720718e+00
1.00721518e+00
1.00722152e+00
1.00722611e+00
1.00722890e+00
9.95191783e-01
9.95197237e-01
9.95204888e-01
9.95213360e-01
9.95224631e-01
9.95239564e-01
9.95256366e-01
9.95275686e-01
9.95297841e-01
9.95322494e-01
9.95349990e-01
9.95380401e-01
9.95413356e-01
9.95449228e-01
9.95488365e-01
9.95530466e-01
9.95575563e-01
9.95624104e-01
9.95676113e-01
9.95731458e-01
9.95790390e-01
9.95853124e-01
9.95919609e-01
9.95989890e-01
9.96064152e-01
9.96142434e-01
9.96224709e-01
9.96311035e-01
9.96401457e-01
9.96495933e-01
9.96594429e-01
9.96696931e-01
9.96803389e-01
9.96913724e-01
9.97027869e-01
9.97145755e-01
9.97267294e-01
9.97392394e-01
9.97520975e-01
9.97652948e-01
9.97788222e-01
9.97926710e-01
9.98068325e-01
9.98212975e-01
9.98360566e-01
9.98511000e-01
9.98664171e-01
9.98819965e-01
9.98978256e-01
9.99138911e-01
9.99301783e-01
9.99466710e-01
9.99633524e-01
9.99802041e-01
9.99972070e-01
1.00014341e+00
1.00031585e+00
1.00048917e+00
1.00066316e+00
1.00083760e+00
1.00101226e+00
1.00118692e+00
1.00136135e+00
1.00153533e+00
1.00170865e+00
1.00188108e+00
1.00205243e+00
1.00222248e+00
1.00239103e+00
1.00255789e+00
1.00272287e+00
1.00288579e+00
1.00304648e+00
1.00320477e+00
1.00336051e+00
1.00351353e+00
1.00366371e+00
1.00381091e+00
1.00395500e+00
1.00409587e+00
1.00423341e+00
1.00436753e+00
1.00449815e+00
1.00462521e+00
1.00474866e+00
1.00486847e+00
1.00498464e+00
1.00509717e+00
1.00520610e+00
1.00531148e+00
1.00541338e+00
1.00551189e+00
1.00560713e+00
1.00569919e+00
1.00578819e+00
1.00587425e+00
1.00595751e+00
1.00603804e+00
1.00611594e+00
1.00619129e+00
1.00626415e+00
1.00633452e+00
1.00640243e+00
1.00646787e+00
1.00653079e+00
1.00659113e+00
1.00664886e+00
1.00670389e+00
1.00675613e+00
1.00680553e+00
1.00685201e+00
1.00689552e+00
1.00693603e+00
1.00697350e+00
1.00700794e+00
1.00703940e+00
1.00706790e+00
1.00709349e+00
1.00711630e+00
1.00713638e+00
1.00715388e+00
1.00716893e+00
1.00718158e+00
1.00719195e+00
1.00720040e+00
1.00720681e+00
1.00721102e+00
1.00721418e+00
9.95214433e-01
9.95218766e-01
9.95225894e-01
9.95235021e-01
9.95247129e-01
9.95261534e-01
9.95278022e-01
9.95297564e-01
9.95319987e-01
9.95344811e-01
9.95372241e-01
9.95402608e-01
9.95435897e-01
9.95472004e-01
9.95511045e-01
9.95553245e-01
9.95598667e-01
9.95647300e-01
9.95699287e-01
9.95754810e-01
9.95813920e-01
9.95876659e-01
9.95943167e-01
9.96013550e-01
9.96087828e-01
9.96166051e-01
9.96248294e-01
9.96334574e-01
9.96424878e-01
9.96519210e-01
9.96617559e-01
9.96719878e-01
9.96826111e-01
9.96936208e-01
9.97050098e-01
9.97167700e-01
9.97288935e-01
9.97413720e-01
9.97541966e-01
9.97673585e-01
9.97808491e-01
9.97946595e-01
9.98087806e-01
9.98232032e-01
9.98379178e-01
9.98529142e-01
9.98681815e-01
9.98837080e-01
9.98994811e-01
9.99154869e-01
9.99317103e-01
9.99481352e-01
9.99647441e-01
9.99815186e-01
9.99984391e-01
1.00015485e+00
1.00032636e+00
1.00049870e+00
1.00067164e+00
1.00084497e+00
1.00101847e+00
1.00119190e+00
1.00136506e+00
1.00153773e+00
1.00170968e+00
1.00188072e+00
1.00205064e+00
1.00221924e+00
1.00238634e+00
1.00255176e+00
1.00271532e+00
1.00287685e+00
1.00303619e+00
1.00319319e+00
1.00334770e+00
1.00349958e+00
1.00364870e+00
1.00379493e+00
1.00393816e+00
1.00407827e+00
1.00421516e+00
1.00434875e+00
1.00447894e+00
1.00460567e+00
1.00472889e+00
1.00484856e+00
1.00496466e+00
1.00507720e+00
1.00518619e+00
1.00529168e+00
1.00539374e+00
1.00549242e+00
1.00558783e+00
1.00568007e+00
1.00576925e+00
1.00585546e+00
1.00593883e+00
1.00601945e+00
1.00609741e+00
1.00617277e+00
1.00624558e+00
1.00631589e+00
1.00638370e+00
1.00644900e+00
1.00651176e+00
1.00657195e+00
1.00662950e+00
1.00668434e+00
1.00673642e+00
1.00678568e+00
1.00683205e+00
1.00687548e+00
1.00691595e+00
1.00695343e+00
1.00698794e+00
1.00701950e+00
1.00704813e+00
1.00707390e+00
1.00709695e+00
1.00711731e+00
1.00713503e+00
1.00715033e+00
1.00716330e+00
1.00717397e+00
1.00718253e+00
1.00718917e+00
1.00719386e+00
1.00719702e+00
9.95240219e-01
9.95244816e-01
9.95251185e-01
9.95260470e-01
9.95272266e-01
9.95286410e-01
9.95303582e-01
9.95323233e-01
9.95345324e-01
9.95370401e-01
9.95398152e-01
9.95428506e-01
9.95461915e-01
9.95498278e-01
9.95537435e-01
9.95579755e-01
9.95625386e-01
9.95674163e-01
9.95726253e-01
9.95781927e-01
9.95841160e-01
9.95903962e-01
9.95970537e-01
9.96040976e-01
9.96115254e-01
9.96193447e-01
9.96275647e-01
9.96361843e-01
9.96452020e-01
9.96546202e-01
9.96644373e-01
9.96746476e-01
9.96852466e-01
9.96962298e-01
9.97075897e-01
9.97193183e-01
9.97314082e-01
9.97438512e-01
9.97566382e-01
9.97697606e-01
9.97832097e-01
9.97969765e-01
9.98110516e-01
9.98254257e-01
9.98400889e-01
9.98550307e-01
9.98702401e-01
9.98857048e-01
9.99014119e-01
9.99173472e-01
9.99334954e-01
9.99498398e-01
9.99663628e-01
9.99830456e-01
9.99998684e-01
1.00016811e+00
1.00033851e+00
1.00050968e+00
1.00068138e+00
1.00085341e+00
1.00102554e+00
1.00119755e+00
1.00136921e+00
1.00154033e+00
1.00171069e+00
1.00188010e+00
1.00204836e+00
1.00221529e+00
1.00238071e+00
1.00254445e+00
1.00270636e+00
1.00286627e+00
1.00302405e+00
1.00317956e+00
1.00333265e+00
1.00348321e+00
1.00363111e+00
1.00377624e+00
1.00391848e+00
1.00405772e+00
1.00419388e+00
1.00432685e+00
1.00445655e+00
1.00458291e+00
1.00470587e+00
1.00482539e+00
1.00494143e+00
1.00505399e+00
1.00516308e+00
1.00526872e+00
1.00537096e+00
1.00546986e+00
1.00556549e+00
1.00565796e+00
1.00574735e+00
1.00583376e+00
1.00591729e+00
1.00599803e+00
1.00607606e+00
1.00615145e+00
1.00622425e+00
1.00629451e+00
1.00636222e+00
1.00642737e+00
1.00648998e+00
1.00654999e+00
1.00660734e+00
1.00666200e+00
1.00671391e+00
1.00676301e+00
1.00680925e+00
1.00685260e+00
1.00689303e+00
1.00693053e+00
1.00696509e+00
1.00699674e+00
1.00702554e+00
1.00705154e+00
1.00707478e+00
1.00709539e+00
1.00711346e+00
1.00712902e+00
1.00714223e+00
1.00715329e+00
1.00716208e+00
1.00716875e+00
1.00717342e+00
1.00717663e+00
9.95268599e-01
9.95272985e-01
9.95279817e-01
9.95289153e-01
9.95300729e-01
9.95315002e-01
9.95332285e-01
9.95352024e-01
9.95374245e-01
9.95399345e-01
9.95427329e-01
9.95458009e-01
9.95491427e-01
9.95527860e-01
9.95567406e-01
9.95609941e-01
9.95655563e-01
9.95704544e-01
9.95756928e-01
9.95812670e-01
9.95871942e-01
9.95934918e-01
9.96001595e-01
9.96072005e-01
9.96146288e-01
9.96224500e-01
9.96306623e-01
9.96392694e-01
9.96482756e-01
9.96576783e-01
9.96674739e-01
9.96776606e-01
9.96882346e-01
9.96991887e-01
9.97105165e-01
9.97222114e-01
9.97342653e-01
9.97466694e-01
9.97594154e-01
9.97724948e-01
9.97858981e-01
9.97996163e-01
9.98136401e-01
9.98279596e-01
9.98425646e-01
9.98574443e-01
9.98725872e-01
9.98879807e-01
9.99036115e-01
9.99194651e-01
9.99355257e-01
9.99517765e-01
9.99681994e-01
9.99847754e-01
1.00001485e+00
1.00018306e+00
1.00035218e+00
1.00052199e+00
1.00069227e+00
1.00086280e+00
1.00103335e+00
1.00120371e+00
1.00137367e+00
1.00154303e+00
1.00171157e+00
1.00187913e+00
1.00204550e+00
1.00221053e+00
1.00237405e+00
1.00253591e+00
1.00269596e+00
1.00285406e+00
1.00301008e+00
1.00316391e+00
1.00331542e+00
1.00346450e+00
1.00361103e+00
1.00375492e+00
1.00389606e+00
1.00403434e+00
1.00416967e+00
1.00430195e+00
1.00443111e+00
1.00455706e+00
1.00467974e+00
1.00479909e+00
1.00491508e+00
1.00502767e+00
1.00513687e+00
1.00524269e+00
1.00534514e+00
1.00544429e+00
1.00554020e+00
1.00563293e+00
1.00572257e+00
1.00580921e+00
1.00589294e+00
1.00597383e+00
1.00605196e+00
1.00612741e+00
1.00620022e+00
1.00627042e+00
1.00633803e+00
1.00640308e+00
1.00646552e+00
1.00652534e+00
1.00658251e+00
1.00663699e+00
1.00668873e+00
1.00673767e+00
1.00678379e+00
1.00682706e+00
1.00686744e+00
1.00690495e+00
1.00693958e+00
1.00697135e+00
1.00700032e+00
1.00702654e+00
1.00705003e+00
1.00707090e+00
1.00708928e+00
1.00710519e+00
1.00711868e+00
1.00712992e+00
1.00713897e+00
1.00714596e+00
1.00715090e+00
1.00715391e+00
9.95300751e-01
9.95305165e-01
9.95311596e-01
9.95320597e-01
9.95332510e-01
9.95347068e-01
9.95364016e-01
9.95383863e-01
9.95406576e-01
9.95431736e-01
9.95459693e-01
9.95490660e-01
9.95524368e-01
9.95560946e-01
9.95600656e-01
9.95643411e-01
9.95689252e-01
9.95738418e-01
9.95790945e-01
9.95846833e-01
9.95906259e-01
9.95969334e-01
9.96036058e-01
9.96106515e-01
9.96180820e-01
9.96258990e-01
9.96341036e-01
9.96427015e-01
9.96516941e-01
9.96610783e-01
9.96708529e-01
9.96810160e-01
9.96915624e-01
9.97024859e-01
9.97137808e-01
9.97254400e-01
9.97374552e-01
9.97498182e-01
9.97625205e-01
9.97755531e-01
9.97889067e-01
9.98025718e-01
9.98165389e-01
9.98307976e-01
9.98453373e-01
9.98601470e-01
9.98752146e-01
9.98905271e-01
9.99060709e-01
9.99218310e-01
9.99377913e-01
9.99539347e-01
9.99702428e-01
9.99866965e-01
1.00003275e+00
1.00019959e+00
1.00036725e+00
1.00053551e+00
1.00070417e+00
1.00087299e+00
1.00104177e+00
1.00121028e+00
1.00137832e+00
1.00154570e+00
1.00171222e+00
1.00187770e+00
1.00204198e+00
1.00220491e+00
1.00236632e+00
1.00252609e+00
1.00268408e+00
1.00284019e+00
1.00299428e+00
1.00314627e+00
1.00329604e+00
1.00344349e+00
1.00358854e+00
1.00373107e+00
1.00387100e+00
1.00400823e+00
1.00414266e+00
1.00427420e+00
1.00440277e+00
1.00452828e+00
1.00465066e+00
1.00476983e+00
1.00488576e+00
1.00499839e+00
1.00510771e+00
1.00521371e+00
1.00531641e+00
1.00541584e+00
1.00551204e+00
1.00560506e+00
1.00569498e+00
1.00578188e+00
1.00586582e+00
1.00594689e+00
1.00602515e+00
1.00610067e+00
1.00617350e+00
1.00624367e+00
1.00631121e+00
1.00637614e+00
1.00643843e+00
1.00649808e+00
1.00655508e+00
1.00660937e+00
1.00666093e+00
1.00670974e+00
1.00675575e+00
1.00679894e+00
1.00683931e+00
1.00687684e+00
1.00691156e+00
1.00694348e+00
1.00697262e+00
1.00699905e+00
1.00702285e+00
1.00704405e+00
1.00706268e+00
1.00707891e+00
1.00709278e+00
1.00710430e+00
1.00711360e+00
1.00712073e+00
1.00712566e+00
1.00712885e+00
9.95335458e-01
9.95339608e-01
9.95346436e-01
9.95355488e-01
9.95367259e-01
9.95381926e-01
9.95399111e-01
9.95418985e-01
9.95441756e-01
9.95467263e-01
9.95495413e-01
9.95526416e-01
9.95560439e-01
9.95597343e-01
9.95637122e-01
9.95680064e-01
9.95726256e-01
9.95775579e-01
9.95828178e-01
9.95884290e-01
9.95943903e-01
9.96007008e-01
9.96073786e-01
9.96144340e-01
9.96218640e-01
9.96296737e-01
9.96378731e-01
9.96464622e-01
9.96554384e-01
9.96648038e-01
9.96745585e-01
9.96846968e-01
9.96952142e-01
9.97061070e-01
9.97173684e-01
9.97289903e-01
9.97409654e-01
9.97532857e-01
9.97659420e-01
9.97789248e-01
9.97922251e-01
9.98058331e-01
9.98197383e-01
9.98339302e-01
9.98483979e-01
9.98631296e-01
9.98781129e-01
9.98933344e-01
9.99087801e-01
9.99244345e-01
9.99402813e-01
9.99563030e-01
9.99724812e-01
9.99887964e-01
1.00005228e+00
1.00021755e+00
1.00038357e+00
1.00055010e+00
1.00071694e+00
1.00088386e+00
1.00105065e+00
1.00121710e+00
1.00138302e+00
1.00154822e+00
1.00171250e+00
1.00187572e+00
1.00203771e+00
1.00219833e+00
1.00235745e+00
1.00251495e+00
1.00267072e+00
1.00282466e+00
1.00297668e+00
1.00312667e+00
1.00327457e+00
1.00342028e+00
1.00356372e+00
1.00370480e+00
1.00384344e+00
1.00397954e+00
1.00411301e+00
1.00424376e+00
1.00437169e+00
1.00449673e+00
1.00461877e+00
1.00473776e+00
1.00485361e+00
1.00496628e+00
1.00507573e+00
1.00518193e+00
1.00528489e+00
1.00538461e+00
1.00548112e+00
1.00557446e+00
1.00566469e+00
1.00575186e+00
1.00583604e+00
1.00591730e+00
1.00599571e+00
1.00607132e+00
1.00614419e+00
1.00621435e+00
1.00628184e+00
1.00634666e+00
1.00640882e+00
1.00646833e+00
1.00652516e+00
1.00657929e+00
1.00663071e+00
1.00667939e+00
1.00672531e+00
1.00676845e+00
1.00680882e+00
1.00684641e+00
1.00688122e+00
1.00691330e+00
1.00694267e+00
1.00696935e+00
1.00699343e+00
1.00701495e+00
1.00703394e+00
1.00705050e+00
1.00706468e+00
1.00707650e+00
1.00708605e+00
1.00709345e+00
1.00709870e+00
1.00710190e+00
9.95373448e-01
9.95377593e-01
9.95384158e-01
9.95393273e-01
9.95405030e-01
9.95419647e-01
9.95437151e-01
9.95457237e-01
9.95479966e-01
9.95505667e-01
9.95534172e-01
9.95565372e-01
9.95599517e-01
9.95636660e-01
9.95676746e-01
9.95719906e-01
9.95766238e-01
9.95815765e-01
9.95868606e-01
9.95924857e-01
9.95984550e-01
9.96047782e-01
9.96114664e-01
9.96185225e-01
9.96259507e-01
9.96337595e-01
9.96419523e-01
9.96505285e-01
9.96594905e-01
9.96688395e-01
9.96785722e-01
9.96886851e-01
9.96991753e-01
9.97100373e-01
9.97212640e-01
9.97328485e-01
9.97447832e-01
9.97570592e-01
9.97696673e-01
9.97825983e-01
9.97958422e-01
9.98093887e-01
9.98232270e-01
9.98373464e-01
9.98517350e-01
9.98663807e-01
9.98812706e-01
9.98963909e-01
9.99117270e-01
9.99272632e-01
9.99429830e-01
9.99588686e-01
9.99749012e-01
9.99910614e-01
1.00007329e+00
1.00023682e+00
1.00040100e+00
1.00056561e+00
1.00073043e+00
1.00089525e+00
1.00105986e+00
1.00122405e+00
1.00138765e+00
1.00155046e+00
1.00171232e+00
1.00187308e+00
1.00203259e+00
1.00219073e+00
1.00234738e+00
1.00250245e+00
1.00265584e+00
1.00280748e+00
1.00295727e+00
1.00310516e+00
1.00325107e+00
1.00339493e+00
1.00353668e+00
1.00367622e+00
1.00381349e+00
1.00394840e+00
1.00408086e+00
1.00421077e+00
1.00433803e+00
1.00446256e+00
1.00458426e+00
1.00470303e+00
1.00481880e+00
1.00493150e+00
1.00504108e+00
1.00514748e+00
1.00525070e+00
1.00535071e+00
1.00544754e+00
1.00554120e+00
1.00563174e+00
1.00571920e+00
1.00580364e+00
1.00588511e+00
1.00596368e+00
1.00603940e+00
1.00611232e+00
1.00618249e+00
1.00624994e+00
1.00631468e+00
1.00637675e+00
1.00643612e+00
1.00649281e+00
1.00654682e+00
1.00659812e+00
1.00664670e+00
1.00669256e+00
1.00673569e+00
1.00677609e+00
1.00681376e+00
1.00684871e+00
1.00688097e+00
1.00691058e+00
1.00693757e+00
1.00696194e+00
1.00698379e+00
1.00700317e+00
1.00702008e+00
1.00703458e+00
1.00704677e+00
1.00705663e+00
1.00706419e+00
1.00706958e+00
1.00707294e+00
9.95414114e-01
9.95418069e-01
9.95424494e-01
9.95433809e-01
9.95445837e-01
9.95460383e-01
9.95477843e-01
9.95498244e-01
9.95521257e-01
9.95546984e-01
9.95575680e-01
9.95607252e-01
9.95641569e-01
9.95678857e-01
9.95719267e-01
9.95762668e-01
9.95809119e-01
9.95858875e-01
9.95911951e-01
9.95968297e-01
9.96028090e-01
9.96091475e-01
9.96158418e-01
9.96228967e-01
9.96303265e-01
9.96381342e-01
9.96463174e-01
9.96548819e-01
9.96638317e-01
9.96731632e-01
9.96828738e-01
9.96929631e-01
9.97034268e-01
9.97142578e-01
9.97254504e-01
9.97369980e-01
9.97488919e-01
9.97611227e-01
9.97736816e-01
9.97865588e-01
9.97997434e-01
9.98132248e-01
9.98269919e-01
9.98410329e-01
9.98553356e-01
9.98698873e-01
9.98846747e-01
9.98996834e-01
9.99148985e-01
9.99303039e-01
9.99458828e-01
9.99616173e-01
9.99774886e-01
9.99934771e-01
1.00009562e+00
1.00025724e+00
1.00041939e+00
1.00058188e+00
1.00074449e+00
1.00090702e+00
1.00106924e+00
1.00123099e+00
1.00139206e+00
1.00155230e+00
1.00171155e+00
1.00186967e+00
1.00202653e+00
1.00218203e+00
1.00233606e+00
1.00248856e+00
1.00263944e+00
1.00278863e+00
1.00293610e+00
1.00308177e+00
1.00322560e+00
1.00336753e+00
1.00350750e+00
1.00364545e+00
1.00378129e+00
1.00391496e+00
1.00404635e+00
1.00417539e+00
1.00430195e+00
1.00442595e+00
1.00454727e+00
1.00466581e+00
1.00478149e+00
1.00489421e+00
1.00500389e+00
1.00511050e+00
1.00521396e+00
1.00531427e+00
1.00541142e+00
1.00550541e+00
1.00559626e+00
1.00568401e+00
1.00576872e+00
1.00585041e+00
1.00592915e+00
1.00600500e+00
1.00607800e+00
1.00614820e+00
1.00621563e+00
1.00628033e+00
1.00634232e+00
1.00640160e+00
1.00645819e+00
1.00651211e+00
1.00656332e+00
1.00661185e+00
1.00665769e+00
1.00670084e+00
1.00674130e+00
1.00677909e+00
1.00681423e+00
1.00684671e+00
1.00687657e+00
1.00690386e+00
1.00692860e+00
1.00695081e+00
1.00697055e+00
1.00698784e+00
1.00700272e+00
1.00701524e+00
1.00702535e+00
1.00703321e+00
1.00703896e+00
1.00704238e+00
9.95457386e-01
9.95461447e-01
9.95467913e-01
9.95477022e-01
9.95489061e-01
9.95503928e-01
9.95521485e-01
9.95541881e-01
9.95565167e-01
9.95591188e-01
9.95619997e-01
9.95651737e-01
9.95686380e-01
9.95723926e-01
9.95764466e-01
9.95808073e-01
9.95854815e-01
9.95904742e-01
9.95957908e-01
9.96014427e-01
9.96074389e-01
9.96137819e-01
9.96204786e-01
9.96275403e-01
9.96349706e-01
9.96427707e-01
9.96509470e-01
9.96595036e-01
9.96684389e-01
9.96777522e-01
9.96874441e-01
9.96975112e-01
9.97079478e-01
9.97187493e-01
9.97299096e-01
9.97414206e-01
9.97532733e-01
9.97654592e-01
9.97779683e-01
9.97907897e-01
9.98039125e-01
9.98173256e-01
9.98310168e-01
9.98449739e-01
9.98591840e-01
9.98736340e-01
9.98883096e-01
9.99031964e-01
9.99182788e-01
9.99335407e-01
9.99489649e-01
9.99645334e-01
9.99802275e-01
9.99960275e-01
1.00011913e+00
1.00027864e+00
1.00043859e+00
1.00059877e+00
1.00075898e+00
1.00091901e+00
1.00107867e+00
1.00123777e+00
1.00139614e+00
1.00155363e+00
1.00171009e+00
1.00186540e+00
1.00201946e+00
1.00217216e+00
1.00232344e+00
1.00247323e+00
1.00262148e+00
1.00276814e+00
1.00291318e+00
1.00305655e+00
1.00319822e+00
1.00333815e+00
1.00347629e+00
1.00361259e+00
1.00374696e+00
1.00387935e+00
1.00400965e+00
1.00413777e+00
1.00426361e+00
1.00438704e+00
1.00450797e+00
1.00462626e+00
1.00474182e+00
1.00485453e+00
1.00496432e+00
1.00507109e+00
1.00517480e+00
1.00527539e+00
1.00537284e+00
1.00546714e+00
1.00555830e+00
1.00564635e+00
1.00573131e+00
1.00581323e+00
1.00589216e+00
1.00596815e+00
1.00604124e+00
1.00611149e+00
1.00617894e+00
1.00624362e+00
1.00630555e+00
1.00636479e+00
1.00642133e+00
1.00647518e+00
1.00652636e+00
1.00657489e+00
1.00662076e+00
1.00666397e+00
1.00670454e+00
1.00674250e+00
1.00677784e+00
1.00681058e+00
1.00684076e+00
1.00686838e+00
1.00689349e+00
1.00691610e+00
1.00693622e+00
1.00695392e+00
1.00696919e+00
1.00698205e+00
1.00699251e+00
1.00700062e+00
1.00700651e+00
1.00701012e+00
9.95503177e-01
9.95507097e-01
9.95513856e-01
9.95522987e-01
9.95534918e-01
9.95549973e-01
9.95567775e-01
9.95588219e-01
9.95611622e-01
9.95637950e-01
9.95666979e-01
9.95698846e-01
9.95733740e-01
9.95771551e-01
9.95812252e-01
9.95856058e-01
9.95903029e-01
9.95953095e-01
9.96006389e-01
9.96063074e-01
9.96123131e-01
9.96186597e-01
9.96253628e-01
9.96324281e-01
9.96398544e-01
9.96476494e-01
9.96558207e-01
9.96643670e-01
9.96732877e-01
9.96825860e-01
9.96922601e-01
9.97023048e-01
9.97127163e-01
9.97234905e-01
9.97346193e-01
9.97460942e-01
9.97579071e-01
9.97700483e-01
9.97825067e-01
9.97952712e-01
9.98083304e-01
9.98216720e-01
9.98352832e-01
9.98491511e-01
9.98632624e-01
9.98776027e-01
9.98921578e-01
9.99069124e-01
9.99218508e-01
9.99369565e-01
9.99522122e-01
9.99675999e-01
9.99831009e-01
9.99986957e-01
1.00014365e+00
1.00030087e+00
1.00045843e+00
1.00061611e+00
1.00077373e+00
1.00093108e+00
1.00108797e+00
1.00124425e+00
1.00139974e+00
1.00155430e+00
1.00170782e+00
1.00186017e+00
1.00201128e+00
1.00216106e+00
1.00230946e+00
1.00245644e+00
1.00260196e+00
1.00274600e+00
1.00288853e+00
1.00302954e+00
1.00316900e+00
1.00330688e+00
1.00344315e+00
1.00357775e+00
1.00371063e+00
1.00384170e+00
1.00397088e+00
1.00409807e+00
1.00422315e+00
1.00434600e+00
1.00446650e+00
1.00458452e+00
1.00469994e+00
1.00481263e+00
1.00492248e+00
1.00502941e+00
1.00513333e+00
1.00523418e+00
1.00533192e+00
1.00542652e+00
1.00551798e+00
1.00560631e+00
1.00569153e+00
1.00577368e+00
1.00585281e+00
1.00592895e+00
1.00600215e+00
1.00607248e+00
1.00613997e+00
1.00620467e+00
1.00626661e+00
1.00632584e+00
1.00638236e+00
1.00643621e+00
1.00648742e+00
1.00653599e+00
1.00658192e+00
1.00662526e+00
1.00666600e+00
1.00670416e+00
1.00673974e+00
1.00677279e+00
1.00680331e+00
1.00683130e+00
1.00685680e+00
1.00687981e+00
1.00690036e+00
1.00691848e+00
1.00693413e+00
1.00694733e+00
1.00695812e+00
1.00696656e+00
1.00697275e+00
1.00697648e+00
9.95551796e-01
9.95555613e-01
9.95562057e-01
9.95571363e-01
9.95583514e-01
9.95598467e-01
9.95616359e-01
9.95637148e-01
9.95660683e-01
9.95687053e-01
9.95716358e-01
9.95748518e-01
9.95783521e-01
9.95821482e-01
9.95862469e-01
9.95906465e-01
9.95953512e-01
9.96003742e-01
9.96057229e-01
9.96113975e-01
9.96174064e-01
9.96237630e-01
9.96304708e-01
9.96375316e-01
9.96449554e-01
9.96527489e-01
9.96609117e-01
9.96694458e-01
9.96783558e-01
9.96876404e-01
9.96972958e-01
9.97073200e-01
9.97177097e-01
9.97284574e-01
9.97395555e-01
9.97509964e-01
9.97627707e-01
9.97748671e-01
9.97872746e-01
9.97999816e-01
9.98129752e-01
9.98262424e-01
9.98397698e-01
9.98535437e-01
9.98675497e-01
9.98817731e-01
9.98961989e-01
9.99108114e-01
9.99255946e-01
9.99405318e-01
9.99556055e-01
9.99707979e-01
9.99860903e-01
1.00001464e+00
1.00016898e+00
1.00032375e+00
1.00047873e+00
1.00063374e+00
1.00078858e+00
1.00094307e+00
1.00109703e+00
1.00125030e+00
1.00140274e+00
1.00155423e+00
1.00170464e+00
1.00185390e+00
1.00200193e+00
1.00214867e+00
1.00229409e+00
1.00243816e+00
1.00258088e+00
1.00272222e+00
1.00286219e+00
1.00300079e+00
1.00313799e+00
1.00327379e+00
1.00340816e+00
1.00354105e+00
1.00367240e+00
1.00380215e+00
1.00393019e+00
1.00405642e+00
1.00418073e+00
1.00430298e+00
1.00442303e+00
1.00454075e+00
1.00465599e+00
1.00476862e+00
1.00487851e+00
1.00498556e+00
1.00508966e+00
1.00519074e+00
1.00528874e+00
1.00538361e+00
1.00547535e+00
1.00556395e+00
1.00564942e+00
1.00573180e+00
1.00581111e+00
1.00588741e+00
1.00596075e+00
1.00603118e+00
1.00609874e+00
1.00616349e+00
1.00622548e+00
1.00628474e+00
1.00634130e+00
1.00639521e+00
1.00644648e+00
1.00649514e+00
1.00654122e+00
1.00658473e+00
1.00662568e+00
1.00666409e+00
1.00669998e+00
1.00673337e+00
1.00676425e+00
1.00679265e+00
1.00681857e+00
1.00684203e+00
1.00686301e+00
1.00688154e+00
1.00689760e+00
1.00691122e+00
1.00692234e+00
1.00693101e+00
1.00693746e+00
1.00694142e+00
9.95602568e-01
9.95606330e-01
9.95612744e-01
9.95622115e-01
9.95634401e-01
9.95649410e-01
9.95667371e-01
9.95688338e-01
9.95712057e-01
9.95738564e-01
9.95768040e-01
9.95800403e-01
9.95835573e-01
9.95873702e-01
9.95914864e-01
9.95958992e-01
9.96006167e-01
9.96056537e-01
9.96110105e-01
9.96166897e-01
9.96227059e-01
9.96290665e-01
9.96357717e-01
9.96428305e-01
9.96502529e-01
9.96580397e-01
9.96661928e-01
9.96747183e-01
9.96836174e-01
9.96928868e-01
9.97025257e-01
9.97125324e-01
9.97229006e-01
9.97336230e-01
9.97446929e-01
9.97561015e-01
9.97678376e-01
9.97798899e-01
9.97922470e-01
9.98048956e-01
9.98178220e-01
9.98310125e-01
9.98444527e-01
9.98581278e-01
9.98720227e-01
9.98861222e-01
9.99004105e-01
9.99148715e-01
9.99294889e-01
9.99442456e-01
9.99591245e-01
9.99741075e-01
9.99891764e-01
1.00004313e+00
1.00019497e+00
1.00034710e+00
1.00049934e+00
1.00065150e+00
1.00080338e+00
1.00095484e+00
1.00110569e+00
1.00125580e+00
1.00140504e+00
1.00155329e+00
1.00170047e+00