# vtk DataFile Version 2.0
LBM Flow Field - Timestep 830
ASCII
DATASET STRUCTURED_POINTS
DIMENSIONS 128 128 1
ORIGIN 0.0 0.0 0.0
SPACING 1.0 1.0 1.0
POINT_DATA 16384
SCALARS density double 1
LOOKUP_TABLE default
1.00182453e+00
1.00184024e+00
1.00186134e+00
1.00188399e+00
1.00191957e+00
1.00195258e+00
1.00199646e+00
1.00205277e+00
1.00211119e+00
1.00217375e+00
1.00225028e+00
1.00233428e+00
1.00242192e+00
1.00251803e+00
1.00262284e+00
1.00273216e+00
1.00284564e+00
1.00296392e+00
1.00308482e+00
1.00320655e+00
1.00332831e+00
1.00344909e+00
1.00356749e+00
1.00368276e+00
1.00379430e+00
1.00390170e+00
1.00400464e+00
1.00410301e+00
1.00419663e+00
1.00428524e+00
1.00436832e+00
1.00444510e+00
1.00451440e+00
1.00457466e+00
1.00462398e+00
1.00466020e+00
1.00468102e+00
1.00468419e+00
1.00466768e+00
1.00462985e+00
1.00456964e+00
1.00448666e+00
1.00438133e+00
1.00425485e+00
1.00410924e+00
1.00394725e+00
1.00377222e+00
1.00358792e+00
1.00339838e+00
1.00320759e+00
1.00301930e+00
1.00283675e+00
1.00266248e+00
1.00249814e+00
1.00234444e+00
1.00220103e+00
1.00206658e+00
1.00193875e+00
1.00181433e+00
1.00168929e+00
1.00155897e+00
1.00141829e+00
1.00126204e+00
1.00108531e+00
1.00088389e+00
1.00065484e+00
1.00039682e+00
1.00011048e+00
9.99798525e-01
9.99465618e-01
9.99118034e-01
9.98763151e-01
9.98408836e-01
9.98062819e-01
9.97732149e-01
9.97422779e-01
9.97139320e-01
9.96884960e-01
9.96661511e-01
9.96469569e-01
9.96308719e-01
9.96177771e-01
9.96074992e-01
9.95998318e-01
9.95945536e-01
9.95914434e-01
9.95902906e-01
9.95909025e-01
9.95931070e-01
9.95967533e-01
9.96017087e-01
9.96078554e-01
9.96150848e-01
9.96232948e-01
9.96323844e-01
9.96422517e-01
9.96527909e-01
9.96638941e-01
9.96754462e-01
9.96873314e-01
9.96994271e-01
9.97116119e-01
9.97237617e-01
9.97357631e-01
9.97474916e-01
9.97588383e-01
9.97697169e-01
9.97800508e-01
9.97897234e-01
9.97987047e-01
9.98070241e-01
9.98145958e-01
9.98213177e-01
9.98273995e-01
9.98329294e-01
9.98376081e-01
9.98415796e-01
9.98453260e-01
9.98485671e-01
9.98509372e-01
9.98531353e-01
9.98552549e-01
9.98566976e-01
9.98576736e-01
9.98588365e-01
9.98596171e-01
9.98593887e-01
9.98592174e-01
1.00184375e+00
1.00185563e+00
1.00187986e+00
1.00190054e+00
1.00193768e+00
1.00197312e+00
1.00201636e+00
1.00207008e+00
1.00213115e+00
1.00219496e+00
1.00226882e+00
1.00235142e+00
1.00243955e+00
1.00253400e+00
1.00263574e+00
1.00274311e+00
1.00285453e+00
1.00296982e+00
1.00308765e+00
1.00320683e+00
1.00332594e+00
1.00344416e+00
1.00356032e+00
1.00367373e+00
1.00378362e+00
1.00388966e+00
1.00399146e+00
1.00408884e+00
1.00418152e+00
1.00426919e+00
1.00435128e+00
1.00442697e+00
1.00449509e+00
1.00455414e+00
1.00460228e+00
1.00463743e+00
1.00465741e+00
1.00466007e+00
1.00464344e+00
1.00460593e+00
1.00454650e+00
1.00446475e+00
1.00436101e+00
1.00423644e+00
1.00409295e+00
1.00393317e+00
1.00376034e+00
1.00357815e+00
1.00339051e+00
1.00320135e+00
1.00301435e+00
1.00283274e+00
1.00265906e+00
1.00249500e+00
1.00234127e+00
1.00219758e+00
1.00206256e+00
1.00193386e+00
1.00180823e+00
1.00168162e+00
1.00154943e+00
1.00140670e+00
1.00124848e+00
1.00107016e+00
1.00086791e+00
1.00063912e+00
1.00038268e+00
1.00009930e+00
9.99791565e-01
9.99463826e-01
9.99121932e-01
9.98772784e-01
9.98423801e-01
9.98082363e-01
9.97755307e-01
9.97448521e-01
9.97166671e-01
9.96913090e-01
9.96689783e-01
9.96497542e-01
9.96336131e-01
9.96204508e-01
9.96101049e-01
9.96023764e-01
9.95970483e-01
9.95939011e-01
9.95927232e-01
9.95933190e-01
9.95955113e-01
9.95991434e-01
9.96040752e-01
9.96101824e-01
9.96173496e-01
9.96254699e-01
9.96344374e-01
9.96441488e-01
9.96544964e-01
9.96653740e-01
9.96766675e-01
9.96882659e-01
9.97000499e-01
9.97119088e-01
9.97237218e-01
9.97353838e-01
9.97467794e-01
9.97578215e-01
9.97684097e-01
9.97784750e-01
9.97879346e-01
9.97967705e-01
9.98049347e-01
9.98123908e-01
9.98191280e-01
9.98252547e-01
9.98307267e-01
9.98354623e-01
9.98396739e-01
9.98435038e-01
9.98467140e-01
9.98492954e-01
9.98517714e-01
9.98538616e-01
9.98553920e-01
9.98566029e-01
9.98577949e-01
9.98585053e-01
9.98587338e-01
9.98590121e-01
1.00187202e+00
1.00188871e+00
1.00191094e+00
1.00193308e+00
1.00196241e+00
1.00200584e+00
1.00205415e+00
1.00210088e+00
1.00216040e+00
1.00223079e+00
1.00230247e+00
1.00237976e+00
1.00246801e+00
1.00256164e+00
1.00265867e+00
1.00276193e+00
1.00287038e+00
1.00298129e+00
1.00309430e+00
1.00320909e+00
1.00332403e+00
1.00343801e+00
1.00355036e+00
1.00366034e+00
1.00376723e+00
1.00387062e+00
1.00397016e+00
1.00406558e+00
1.00415655e+00
1.00424267e+00
1.00432334e+00
1.00439773e+00
1.00446465e+00
1.00452265e+00
1.00456994e+00
1.00460453e+00
1.00462433e+00
1.00462723e+00
1.00461133e+00
1.00457507e+00
1.00451737e+00
1.00443775e+00
1.00433649e+00
1.00421461e+00
1.00407389e+00
1.00391685e+00
1.00374660e+00
1.00356671e+00
1.00338102e+00
1.00319340e+00
1.00300753e+00
1.00282663e+00
1.00265330e+00
1.00248929e+00
1.00233539e+00
1.00219133e+00
1.00205578e+00
1.00192639e+00
1.00179986e+00
1.00167217e+00
1.00153874e+00
1.00139473e+00
1.00123538e+00
1.00105634e+00
1.00085408e+00
1.00062620e+00
1.00037178e+00
1.00009154e+00
9.99787919e-01
9.99465016e-01
9.99128316e-01
9.98784331e-01
9.98440133e-01
9.98102842e-01
9.97779151e-01
9.97474924e-01
9.97194904e-01
9.96942563e-01
9.96720077e-01
9.96528404e-01
9.96367449e-01
9.96236275e-01
9.96133324e-01
9.96056637e-01
9.96004047e-01
9.95973333e-01
9.95962336e-01
9.95969034e-01
9.95991581e-01
9.96028318e-01
9.96077752e-01
9.96138547e-01
9.96209475e-01
9.96289389e-01
9.96377187e-01
9.96471803e-01
9.96572169e-01
9.96677221e-01
9.96785885e-01
9.96897098e-01
9.97009787e-01
9.97122928e-01
9.97235483e-01
9.97346457e-01
9.97454973e-01
9.97560245e-01
9.97661326e-01
9.97757578e-01
9.97848819e-01
9.97934398e-01
9.98013343e-01
9.98086404e-01
9.98154275e-01
9.98214962e-01
9.98268566e-01
9.98318779e-01
9.98364254e-01
9.98401036e-01
9.98434167e-01
9.98466993e-01
9.98492757e-01
9.98511324e-01
9.98531286e-01
9.98549527e-01
9.98558165e-01
9.98563655e-01
9.98575461e-01
9.98584040e-01
1.00191362e+00
1.00192924e+00
1.00195009e+00
1.00197982e+00
1.00200973e+00
1.00204856e+00
1.00209757e+00
1.00215037e+00
1.00220879e+00
1.00227498e+00
1.00234737e+00
1.00242517e+00
1.00250910e+00
1.00259823e+00
1.00269249e+00
1.00279115e+00
1.00289341e+00
1.00299849e+00
1.00310587e+00
1.00321433e+00
1.00332306e+00
1.00343128e+00
1.00353826e+00
1.00364321e+00
1.00374567e+00
1.00384516e+00
1.00394132e+00
1.00403378e+00
1.00412219e+00
1.00420606e+00
1.00428473e+00
1.00435731e+00
1.00442265e+00
1.00447930e+00
1.00452554e+00
1.00455949e+00
1.00457912e+00
1.00458246e+00
1.00456767e+00
1.00453321e+00
1.00447800e+00
1.00440153e+00
1.00430396e+00
1.00418616e+00
1.00404976e+00
1.00389707e+00
1.00373104e+00
1.00355504e+00
1.00337275e+00
1.00318793e+00
1.00300416e+00
1.00282465e+00
1.00265198e+00
1.00248795e+00
1.00233343e+00
1.00218822e+00
1.00205108e+00
1.00191974e+00
1.00179102e+00
1.00166097e+00
1.00152517e+00
1.00137898e+00
1.00121784e+00
1.00103769e+00
1.00083524e+00
1.00060831e+00
1.00035610e+00
1.00007932e+00
9.99780285e-01
9.99462820e-01
9.99132067e-01
9.98794162e-01
9.98455818e-01
9.98123874e-01
9.97804840e-01
9.97504507e-01
9.97227645e-01
9.96977825e-01
9.96757357e-01
9.96567352e-01
9.96407853e-01
9.96278032e-01
9.96176406e-01
9.96101058e-01
9.96049823e-01
9.96020451e-01
9.96010727e-01
9.96018545e-01
9.96041960e-01
9.96079198e-01
9.96128659e-01
9.96188891e-01
9.96258570e-01
9.96336467e-01
9.96421432e-01
9.96512363e-01
9.96608202e-01
9.96707912e-01
9.96810503e-01
9.96915002e-01
9.97020483e-01
9.97126042e-01
9.97230874e-01
9.97334173e-01
9.97435205e-01
9.97533313e-01
9.97627998e-01
9.97718627e-01
9.97804799e-01
9.97886257e-01
9.97962803e-01
9.98034016e-01
9.98100087e-01
9.98160929e-01
9.98216712e-01
9.98267584e-01
9.98313469e-01
9.98354395e-01
9.98391916e-01
9.98425096e-01
9.98452752e-01
9.98477757e-01
9.98500076e-01
9.98517372e-01
9.98530700e-01
9.98541603e-01
9.98550875e-01
9.98559234e-01
1.00197480e+00
1.00198994e+00
1.00200403e+00
1.00203419e+00
1.00207186e+00
1.00210858e+00
1.00215367e+00
1.00221164e+00
1.00227109e+00
1.00233234e+00
1.00240407e+00
1.00248183e+00
1.00256079e+00
1.00264483e+00
1.00273511e+00
1.00282780e+00
1.00292273e+00
1.00302089e+00
1.00312102e+00
1.00322171e+00
1.00332290e+00
1.00342401e+00
1.00352419e+00
1.00362288e+00
1.00371973e+00
1.00381424e+00
1.00390600e+00
1.00399461e+00
1.00407963e+00
1.00416049e+00
1.00423647e+00
1.00430665e+00
1.00436988e+00
1.00442475e+00
1.00446966e+00
1.00450281e+00
1.00452231e+00
1.00452630e+00
1.00451303e+00
1.00448100e+00
1.00442911e+00
1.00435677e+00
1.00426399e+00
1.00415148e+00
1.00402064e+00
1.00387354e+00
1.00371287e+00
1.00354181e+00
1.00336381e+00
1.00318248e+00
1.00300129e+00
1.00282342e+00
1.00265147e+00
1.00248732e+00
1.00233191e+00
1.00218519e+00
1.00204602e+00
1.00191223e+00
1.00178073e+00
1.00164771e+00
1.00150888e+00
1.00135983e+00
1.00119630e+00
1.00101454e+00
1.00081163e+00
1.00058565e+00
1.00033597e+00
1.00006332e+00
9.99769825e-01
9.99458987e-01
9.99135511e-01
9.98805055e-01
9.98473895e-01
9.98148526e-01
9.97835249e-01
9.97539780e-01
9.97266932e-01
9.97020400e-01
9.96802666e-01
9.96615010e-01
9.96457625e-01
9.96329795e-01
9.96230108e-01
9.96156671e-01
9.96107307e-01
9.96079719e-01
9.96071615e-01
9.96080791e-01
9.96105178e-01
9.96142875e-01
9.96192149e-01
9.96251423e-01
9.96319263e-01
9.96394363e-01
9.96475518e-01
9.96561609e-01
9.96651595e-01
9.96744506e-01
9.96839439e-01
9.96935555e-01
9.97032099e-01
9.97128352e-01
9.97223701e-01
9.97317615e-01
9.97409562e-01
9.97499019e-01
9.97585793e-01
9.97669550e-01
9.97749650e-01
9.97826022e-01
9.97899180e-01
9.97968095e-01
9.98032057e-01
9.98092803e-01
9.98150446e-01
9.98201855e-01
9.98248816e-01
9.98294813e-01
9.98335826e-01
9.98369234e-01
9.98401615e-01
9.98433289e-01
9.98456393e-01
9.98474042e-01
9.98493729e-01
9.98509192e-01
9.98515813e-01
9.98523895e-01
1.00204181e+00
1.00205907e+00
1.00208087e+00
1.00210497e+00
1.00214000e+00
1.00218370e+00
1.00222966e+00
1.00228133e+00
1.00234051e+00
1.00240499e+00
1.00247280e+00
1.00254440e+00
1.00262097e+00
1.00270148e+00
1.00278416e+00
1.00286946e+00
1.00295781e+00
1.00304791e+00
1.00313898e+00
1.00323119e+00
1.00332406e+00
1.00341679e+00
1.00350902e+00
1.00360049e+00
1.00369067e+00
1.00377914e+00
1.00386552e+00
1.00394937e+00
1.00403014e+00
1.00410720e+00
1.00417978e+00
1.00424695e+00
1.00430755e+00
1.00436025e+00
1.00440352e+00
1.00443570e+00
1.00445503e+00
1.00445977e+00
1.00444827e+00
1.00441907e+00
1.00437105e+00
1.00430353e+00
1.00421639e+00
1.00411011e+00
1.00398584e+00
1.00384538e+00
1.00369113e+00
1.00352597e+00
1.00335315e+00
1.00317606e+00
1.00299806e+00
1.00282223e+00
1.00265121e+00
1.00248692e+00
1.00233042e+00
1.00218179e+00
1.00204004e+00
1.00190317e+00
1.00176825e+00
1.00163167e+00
1.00148937e+00
1.00133719e+00
1.00117120e+00
1.00098797e+00
1.00078486e+00
1.00056023e+00
1.00031356e+00
1.00004555e+00
9.99758163e-01
9.99454578e-01
9.99139079e-01
9.98816867e-01
9.98493786e-01
9.98175979e-01
9.97869509e-01
9.97579981e-01
9.97312210e-01
9.97069984e-01
9.96855920e-01
9.96671456e-01
9.96516927e-01
9.96391729e-01
9.96294521e-01
9.96223437e-01
9.96176282e-01
9.96150706e-01
9.96144328e-01
9.96154830e-01
9.96180015e-01
9.96217843e-01
9.96266444e-01
9.96324120e-01
9.96389339e-01
9.96460719e-01
9.96537017e-01
9.96617118e-01
9.96700024e-01
9.96784846e-01
9.96870798e-01
9.96957197e-01
9.97043476e-01
9.97129155e-01
9.97213802e-01
9.97297098e-01
9.97378852e-01
9.97458790e-01
9.97536608e-01
9.97612333e-01
9.97685938e-01
9.97756894e-01
9.97825065e-01
9.97890935e-01
9.97954112e-01
9.98013750e-01
9.98070266e-01
9.98124260e-01
9.98174996e-01
9.98221482e-01
9.98264161e-01
9.98304512e-01
9.98341327e-01
9.98372151e-01
9.98399604e-01
9.98425336e-01
9.98445264e-01
9.98459205e-01
9.98472172e-01
9.98483123e-01
1.00212875e+00
1.00214494e+00
1.00217006e+00
1.00219369e+00
1.00222420e+00
1.00226799e+00
1.00231599e+00
1.00236477e+00
1.00242146e+00
1.00248493e+00
1.00254878e+00
1.00261586e+00
1.00268852e+00
1.00276286e+00
1.00283805e+00
1.00291636e+00
1.00299668e+00
1.00307748e+00
1.00315941e+00
1.00324260e+00
1.00332612e+00
1.00340973e+00
1.00349346e+00
1.00357690e+00
1.00365960e+00
1.00374127e+00
1.00382151e+00
1.00389977e+00
1.00397549e+00
1.00404798e+00
1.00411642e+00
1.00417985e+00
1.00423716e+00
1.00428710e+00
1.00432824e+00
1.00435909e+00
1.00437803e+00
1.00438346e+00
1.00437383e+00
1.00434774e+00
1.00430405e+00
1.00424197e+00
1.00416122e+00
1.00406203e+00
1.00394527e+00
1.00381242e+00
1.00366555e+00
1.00350722e+00
1.00334040e+00
1.00316824e+00
1.00299396e+00
1.00282057e+00
1.00265068e+00
1.00248631e+00
1.00232862e+00
1.00217787e+00
1.00203322e+00
1.00189286e+00
1.00175407e+00
1.00161343e+00
1.00146716e+00
1.00131140e+00
1.00114257e+00
1.00095762e+00
1.00075426e+00
1.00053112e+00
1.00028783e+00
1.00002508e+00
9.99744637e-01
9.99449314e-01
9.99142930e-01
9.98830172e-01
9.98516395e-01
9.98207342e-01
9.97908802e-01
9.97626245e-01
9.97364479e-01
9.97127376e-01
9.96917699e-01
9.96737044e-01
9.96585892e-01
9.96463753e-01
9.96369349e-01
9.96300835e-01
9.96255991e-01
9.96232405e-01
9.96227599e-01
9.96239136e-01
9.96264691e-01
9.96302087e-01
9.96349325e-01
9.96404596e-01
9.96466284e-01
9.96532955e-01
9.96603353e-01
9.96676392e-01
9.96751138e-01
9.96826810e-01
9.96902772e-01
9.96978516e-01
9.97053647e-01
9.97127924e-01
9.97201178e-01
9.97273251e-01
9.97344131e-01
9.97413931e-01
9.97482490e-01
9.97549685e-01
9.97615886e-01
9.97681028e-01
9.97744314e-01
9.97806159e-01
9.97867223e-01
9.97925969e-01
9.97981780e-01
9.98036733e-01
9.98089671e-01
9.98137688e-01
9.98183298e-01
9.98228147e-01
9.98267328e-01
9.98300442e-01
9.98333366e-01
9.98362872e-01
9.98383333e-01
9.98399194e-01
9.98416222e-01
9.98428518e-01
1.00223820e+00
1.00225052e+00
1.00226639e+00
1.00229471e+00
1.00232863e+00
1.00236446e+00
1.00240888e+00
1.00246038e+00
1.00251373e+00
1.00256962e+00
1.00263071e+00
1.00269528e+00
1.00276027e+00
1.00282677e+00
1.00289618e+00
1.00296669e+00
1.00303722e+00
1.00310896e+00
1.00318198e+00
1.00325530e+00
1.00332898e+00
1.00340340e+00
1.00347819e+00
1.00355299e+00
1.00362769e+00
1.00370200e+00
1.00377541e+00
1.00384738e+00
1.00391732e+00
1.00398448e+00
1.00404803e+00
1.00410701e+00
1.00416037e+00
1.00420694e+00
1.00424545e+00
1.00427453e+00
1.00429277e+00
1.00429870e+00
1.00429089e+00
1.00426799e+00
1.00422885e+00
1.00417258e+00
1.00409871e+00
1.00400722e+00
1.00389868e+00
1.00377421e+00
1.00363551e+00
1.00348482e+00
1.00332475e+00
1.00315822e+00
1.00298823e+00
1.00281772e+00
1.00264926e+00
1.00248493e+00
1.00232603e+00
1.00217295e+00
1.00202510e+00
1.00188085e+00
1.00173775e+00
1.00159264e+00
1.00144206e+00
1.00128250e+00
1.00111074e+00
1.00092412e+00
1.00072070e+00
1.00049938e+00
1.00025993e+00
1.00000300e+00
9.99730150e-01
9.99443850e-01
9.99147440e-01
9.98845085e-01
9.98541636e-01
9.98242409e-01
9.97952885e-01
9.97678359e-01
9.97423592e-01
9.97192508e-01
9.96987984e-01
9.96811760e-01
9.96664454e-01
9.96545683e-01
9.96454240e-01
9.96388298e-01
9.96345618e-01
9.96323723e-01
9.96320046e-01
9.96332039e-01
9.96357253e-01
9.96393392e-01
9.96438350e-01
9.96490232e-01
9.96547362e-01
9.96608287e-01
9.96671772e-01
9.96736786e-01
9.96802492e-01
9.96868235e-01
9.96933537e-01
9.96998084e-01
9.97061677e-01
9.97124239e-01
9.97185855e-01
9.97246639e-01
9.97306628e-01
9.97366043e-01
9.97425241e-01
9.97484135e-01
9.97542557e-01
9.97601046e-01
9.97659711e-01
9.97717576e-01
9.97774632e-01
9.97831808e-01
9.97888199e-01
9.97942184e-01
9.97994498e-01
9.98046107e-01
9.98095124e-01
9.98139358e-01
9.98181018e-01
9.98221169e-01
9.98255842e-01
9.98283471e-01
9.98309663e-01
9.98331207e-01
9.98344731e-01
9.98356532e-01
1.00235848e+00
1.00237142e+00
1.00238416e+00
1.00240915e+00
1.00244134e+00
1.00247491e+00
1.00251530e+00
1.00256251e+00
1.00261153e+00
1.00266297e+00
1.00271906e+00
1.00277669e+00
1.00283452e+00
1.00289472e+00
1.00295627e+00
1.00301736e+00
1.00307911e+00
1.00314210e+00
1.00320523e+00
1.00326859e+00
1.00333292e+00
1.00339800e+00
1.00346351e+00
1.00352960e+00
1.00359613e+00
1.00366266e+00
1.00372874e+00
1.00379390e+00
1.00385744e+00
1.00391859e+00
1.00397652e+00
1.00403031e+00
1.00407899e+00
1.00412151e+00
1.00415675e+00
1.00418354e+00
1.00420063e+00
1.00420673e+00
1.00420052e+00
1.00418073e+00
1.00414619e+00
1.00409590e+00
1.00402921e+00
1.00394584e+00
1.00384602e+00
1.00373049e+00
1.00360059e+00
1.00345813e+00
1.00330542e+00
1.00314507e+00
1.00297988e+00
1.00281265e+00
1.00264594e+00
1.00248187e+00
1.00232185e+00
1.00216646e+00
1.00201530e+00
1.00186700e+00
1.00171934e+00
1.00156950e+00
1.00141435e+00
1.00125076e+00
1.00107594e+00
1.00088764e+00
1.00068429e+00
1.00046508e+00
1.00022991e+00
9.99979408e-01
9.99714929e-01
9.99438555e-01
9.99153133e-01
9.98862272e-01
9.98570279e-01
9.98282002e-01
9.98002567e-01
9.97737057e-01
9.97490151e-01
9.97265802e-01
9.97066989e-01
9.96895587e-01
9.96752350e-01
9.96637005e-01
9.96548414e-01
9.96484778e-01
9.96443837e-01
9.96423060e-01
9.96419799e-01
9.96431411e-01
9.96455344e-01
9.96489209e-01
9.96530824e-01
9.96578239e-01
9.96629760e-01
9.96683951e-01
9.96739626e-01
9.96795840e-01
9.96851881e-01
9.96907244e-01
9.96961603e-01
9.97014818e-01
9.97066915e-01
9.97117984e-01
9.97168211e-01
9.97217956e-01
9.97267526e-01
9.97317040e-01
9.97366880e-01
9.97417531e-01
9.97468794e-01
9.97520520e-01
9.97573398e-01
9.97627241e-01
9.97680926e-01
9.97734894e-01
9.97789613e-01
9.97843257e-01
9.97895405e-01
9.97947262e-01
9.97997157e-01
9.98043044e-01
9.98087230e-01
9.98128938e-01
9.98164600e-01
9.98195019e-01
9.98223896e-01
9.98245737e-01
9.98259391e-01
9.98272999e-01
1.00249130e+00
1.00250363e+00
1.00252055e+00
1.00253831e+00
1.00256265e+00
1.00259681e+00
1.00263358e+00
1.00267144e+00
1.00271516e+00
1.00276308e+00
1.00281096e+00
1.00285989e+00
1.00291179e+00
1.00296440e+00
1.00301605e+00
1.00306848e+00
1.00312203e+00
1.00317526e+00
1.00322847e+00
1.00328274e+00
1.00333781e+00
1.00339339e+00
1.00344993e+00
1.00350751e+00
1.00356572e+00
1.00362427e+00
1.00368282e+00
1.00374077e+00
1.00379740e+00
1.00385197e+00
1.00390365e+00
1.00395160e+00
1.00399491e+00
1.00403270e+00
1.00406403e+00
1.00408791e+00
1.00410330e+00
1.00410910e+00
1.00410410e+00
1.00408712e+00
1.00405697e+00
1.00401258e+00
1.00395309e+00
1.00387797e+00
1.00378711e+00
1.00368087e+00
1.00356018e+00
1.00342645e+00
1.00328162e+00
1.00312797e+00
1.00296808e+00
1.00280460e+00
1.00264002e+00
1.00247650e+00
1.00231556e+00
1.00215793e+00
1.00200344e+00
1.00185097e+00
1.00169862e+00
1.00154390e+00
1.00138406e+00
1.00121639e+00
1.00103855e+00
1.00084871e+00
1.00064570e+00
1.00042896e+00
1.00019855e+00
9.99955073e-01
9.99699654e-01
9.99433999e-01
9.99160449e-01
9.98882042e-01
9.98602517e-01
9.98326214e-01
9.98057868e-01
9.97802301e-01
9.97564067e-01
9.97347109e-01
9.97154481e-01
9.96988174e-01
9.96849070e-01
9.96737008e-01
9.96650929e-01
9.96589069e-01
9.96549168e-01
9.96528662e-01
9.96524844e-01
9.96535000e-01
9.96556514e-01
9.96586938e-01
9.96624051e-01
9.96665893e-01
9.96710792e-01
9.96757362e-01
9.96804503e-01
9.96851385e-01
9.96897429e-01
9.96942287e-01
9.96985807e-01
9.97027990e-01
9.97069013e-01
9.97109183e-01
9.97148793e-01
9.97188197e-01
9.97227941e-01
9.97268411e-01
9.97309673e-01
9.97352156e-01
9.97396443e-01
9.97442171e-01
9.97488965e-01
9.97537617e-01
9.97588058e-01
9.97638743e-01
9.97689681e-01
9.97741910e-01
9.97793984e-01
9.97843739e-01
9.97892390e-01
9.97940715e-01
9.97985512e-01
9.98024722e-01
9.98062322e-01
9.98097067e-01
9.98123503e-01
9.98143037e-01
9.98161648e-01
9.98176186e-01
1.00264498e+00
1.00265240e+00
1.00266436e+00
1.00267985e+00
1.00270039e+00
1.00272724e+00
1.00275697e+00
1.00278970e+00
1.00282664e+00
1.00286546e+00
1.00290515e+00
1.00294720e+00
1.00299042e+00
1.00303304e+00
1.00307615e+00
1.00312033e+00
1.00316409e+00
1.00320761e+00
1.00325211e+00
1.00329736e+00
1.00334303e+00
1.00338980e+00
1.00343792e+00
1.00348706e+00
1.00353708e+00
1.00358781e+00
1.00363876e+00
1.00368926e+00
1.00373865e+00
1.00378620e+00
1.00383111e+00
1.00387260e+00
1.00390992e+00
1.00394233e+00
1.00396909e+00
1.00398943e+00
1.00400251e+00
1.00400742e+00
1.00400312e+00
1.00398849e+00
1.00396235e+00
1.00392354e+00
1.00387103e+00
1.00380404e+00
1.00372212e+00
1.00362526e+00
1.00351394e+00
1.00338920e+00
1.00325256e+00
1.00310599e+00
1.00295181e+00
1.00279249e+00
1.00263045e+00
1.00246785e+00
1.00230630e+00
1.00214669e+00
1.00198904e+00
1.00183252e+00
1.00167552e+00
1.00151592e+00
1.00135140e+00
1.00117970e+00
1.00099894e+00
1.00080775e+00
1.00060535e+00
1.00039149e+00
1.00016634e+00
9.99930496e-01
9.99684853e-01
9.99430731e-01
9.99169949e-01
9.98904953e-01
9.98638880e-01
9.98375524e-01
9.98119177e-01
9.97874352e-01
9.97645437e-01
9.97436329e-01
9.97250130e-01
9.97088939e-01
9.96953767e-01
9.96844573e-01
9.96760391e-01
9.96699516e-01
9.96659709e-01
9.96638399e-01
9.96632855e-01
9.96640332e-01
9.96658183e-01
9.96683949e-01
9.96715414e-01
9.96750653e-01
9.96788052e-01
9.96826313e-01
9.96864448e-01
9.96901762e-01
9.96937814e-01
9.96972399e-01
9.97005529e-01
9.97037361e-01
9.97068146e-01
9.97098294e-01
9.97128304e-01
9.97158546e-01
9.97189408e-01
9.97221531e-01
9.97255264e-01
9.97290531e-01
9.97327742e-01
9.97367448e-01
9.97409084e-01
9.97452240e-01
9.97497607e-01
9.97544828e-01
9.97592533e-01
9.97640885e-01
9.97690056e-01
9.97738438e-01
9.97785454e-01
9.97831315e-01
9.97874695e-01
9.97914325e-01
9.97951126e-01
9.97983553e-01
9.98009905e-01
9.98030553e-01
9.98047007e-01
9.98059121e-01
1.00281108e+00
1.00281461e+00
1.00281867e+00
1.00283182e+00
1.00284879e+00
1.00286587e+00
1.00288786e+00
1.00291514e+00
1.00294266e+00
1.00297116e+00
1.00300317e+00
1.00303645e+00
1.00306887e+00
1.00310225e+00
1.00313697e+00
1.00317119e+00
1.00320509e+00
1.00324008e+00
1.00327579e+00
1.00331177e+00
1.00334888e+00
1.00338755e+00
1.00342743e+00
1.00346848e+00
1.00351079e+00
1.00355392e+00
1.00359727e+00
1.00364030e+00
1.00368233e+00
1.00372260e+00
1.00376036e+00
1.00379496e+00
1.00382577e+00
1.00385223e+00
1.00387382e+00
1.00388998e+00
1.00390011e+00
1.00390347e+00
1.00389921e+00
1.00388627e+00
1.00386352e+00
1.00382973e+00
1.00378372e+00
1.00372446e+00
1.00365118e+00
1.00356351e+00
1.00346152e+00
1.00334584e+00
1.00321758e+00
1.00307838e+00
1.00293027e+00
1.00277553e+00
1.00261649e+00
1.00245525e+00
1.00229349e+00
1.00213224e+00
1.00197173e+00
1.00181136e+00
1.00164989e+00
1.00148558e+00
1.00131653e+00
1.00114098e+00
1.00095754e+00
1.00076530e+00
1.00056388e+00
1.00035333e+00
1.00013397e+00
9.99906343e-01
9.99671137e-01
9.99429277e-01
9.99182055e-01
9.98931306e-01
9.98679539e-01
9.98429965e-01
9.98186388e-01
9.97952964e-01
9.97733863e-01
9.97532900e-01
9.97353198e-01
9.97196951e-01
9.97065298e-01
9.96958333e-01
9.96875206e-01
9.96814300e-01
9.96773436e-01
9.96750073e-01
9.96741501e-01
9.96744988e-01
9.96757908e-01
9.96777833e-01
9.96802603e-01
9.96830366e-01
9.96859600e-01
9.96889123e-01
9.96918075e-01
9.96945894e-01
9.96972290e-01
9.96997187e-01
9.97020698e-01
9.97043115e-01
9.97064807e-01
9.97086162e-01
9.97107701e-01
9.97129999e-01
9.97153372e-01
9.97178142e-01
9.97204946e-01
9.97234035e-01
9.97265094e-01
9.97298486e-01
9.97334743e-01
9.97373084e-01
9.97412863e-01
9.97454901e-01
9.97498860e-01
9.97542891e-01
9.97587036e-01
9.97632257e-01
9.97676608e-01
9.97717914e-01
9.97757939e-01
9.97796876e-01
9.97830506e-01
9.97858321e-01
9.97884720e-01
9.97905497e-01
9.97916794e-01
9.97926608e-01
1.00298319e+00
1.00298489e+00
1.00298674e+00
1.00299276e+00
1.00300154e+00
1.00301302e+00
1.00302777e+00
1.00304419e+00
1.00306186e+00
1.00308230e+00
1.00310412e+00
1.00312586e+00
1.00314869e+00
1.00317301e+00
1.00319711e+00
1.00322116e+00
1.00324643e+00
1.00327252e+00
1.00329889e+00
1.00332650e+00
1.00335582e+00
1.00338646e+00
1.00341850e+00
1.00345219e+00
1.00348718e+00
1.00352291e+00
1.00355894e+00
1.00359467e+00
1.00362932e+00
1.00366217e+00
1.00369260e+00
1.00372002e+00
1.00374396e+00
1.00376403e+00
1.00377994e+00
1.00379135e+00
1.00379789e+00
1.00379903e+00
1.00379407e+00
1.00378208e+00
1.00376194e+00
1.00373240e+00
1.00369215e+00
1.00363995e+00
1.00357474e+00
1.00349580e+00
1.00340281e+00
1.00329599e+00
1.00317608e+00
1.00304436e+00
1.00290258e+00
1.00275279e+00
1.00259717e+00
1.00243778e+00
1.00227634e+00
1.00211394e+00
1.00195101e+00
1.00178721e+00
1.00162163e+00
1.00145292e+00
1.00127966e+00
1.00110058e+00
1.00091480e+00
1.00072189e+00
1.00052190e+00
1.00031513e+00
1.00010209e+00
9.99883256e-01
9.99659110e-01
9.99430178e-01
9.99197219e-01
9.98961445e-01
9.98724709e-01
9.98489601e-01
9.98259392e-01
9.98037832e-01
9.97828829e-01
9.97636077e-01
9.97462700e-01
9.97310977e-01
9.97182188e-01
9.97076582e-01
9.96993458e-01
9.96931329e-01
9.96888118e-01
9.96861368e-01
9.96848433e-01
9.96846647e-01
9.96853453e-01
9.96866502e-01
9.96883728e-01
9.96903386e-01
9.96924075e-01
9.96944744e-01
9.96964663e-01
9.96983396e-01
9.97000777e-01
9.97016856e-01
9.97031820e-01
9.97045995e-01
9.97059844e-01
9.97073816e-01
9.97088291e-01
9.97103798e-01
9.97120883e-01
9.97139704e-01
9.97160431e-01
9.97183657e-01
9.97209469e-01
9.97237353e-01
9.97267562e-01
9.97300548e-01
9.97335414e-01
9.97371496e-01
9.97409365e-01
9.97448628e-01
9.97487791e-01
9.97526700e-01
9.97565571e-01
9.97603169e-01
9.97638347e-01
9.97671113e-01
9.97701048e-01
9.97726833e-01
9.97748380e-01
9.97764438e-01
9.97774855e-01
9.97783446e-01
1.00316347e+00
1.00316146e+00
1.00316065e+00
1.00315991e+00
1.00316099e+00
1.00316618e+00
1.00317174e+00
1.00317743e+00
1.00318614e+00
1.00319658e+00
1.00320649e+00
1.00321772e+00
1.00323085e+00
1.00324405e+00
1.00325735e+00
1.00327225e+00
1.00328824e+00
1.00330466e+00
1.00332251e+00
1.00334236e+00
1.00336369e+00
1.00338665e+00
1.00341165e+00
1.00343837e+00
1.00346629e+00
1.00349506e+00
1.00352416e+00
1.00355277e+00
1.00358017e+00
1.00360572e+00
1.00362880e+00
1.00364893e+00
1.00366579e+00
1.00367921e+00
1.00368905e+00
1.00369524e+00
1.00369761e+00
1.00369585e+00
1.00368940e+00
1.00367748e+00
1.00365904e+00
1.00363279e+00
1.00359734e+00
1.00355128e+00
1.00349330e+00
1.00342236e+00
1.00333781e+00
1.00323946e+00
1.00312769e+00
1.00300344e+00
1.00286814e+00
1.00272361e+00
1.00257186e+00
1.00241486e+00
1.00225429e+00
1.00209134e+00
1.00192655e+00
1.00175986e+00
1.00159065e+00
1.00141802e+00
1.00124100e+00
1.00105884e+00
1.00087117e+00
1.00067808e+00
1.00047999e+00
1.00027752e+00
1.00007131e+00
9.99861801e-01
9.99649256e-01
9.99433808e-01
9.99215679e-01
9.98995445e-01
9.98774285e-01
9.98554135e-01
9.98337691e-01
9.98128252e-01
9.97929421e-01
9.97744737e-01
9.97577307e-01
9.97429494e-01
9.97302730e-01
9.97197449e-01
9.97113144e-01
9.97048503e-01
9.97001605e-01
9.96970131e-01
9.96951556e-01
9.96943331e-01
9.96943014e-01
9.96948378e-01
9.96957480e-01
9.96968709e-01
9.96980798e-01
9.96992819e-01
9.97004172e-01
9.97014536e-01
9.97023824e-01
9.97032158e-01
9.97039813e-01
9.97047116e-01
9.97054464e-01
9.97062362e-01
9.97071224e-01
9.97081310e-01
9.97093055e-01
9.97106910e-01
9.97122821e-01
9.97140776e-01
9.97161282e-01
9.97184282e-01
9.97209044e-01
9.97235775e-01
9.97264875e-01
9.97295300e-01
9.97326275e-01
9.97358583e-01
9.97391725e-01
9.97423862e-01
9.97455151e-01
9.97486541e-01
9.97515783e-01
9.97541318e-01
9.97565343e-01
9.97587045e-01
9.97602749e-01
9.97613833e-01
9.97622309e-01
9.97627411e-01
1.00334940e+00
1.00334273e+00
1.00333595e+00
1.00333097e+00
1.00332633e+00
1.00332196e+00
1.00331789e+00
1.00331554e+00
1.00331402e+00
1.00331230e+00
1.00331172e+00
1.00331293e+00
1.00331432e+00
1.00331617e+00
1.00331982e+00
1.00332484e+00
1.00333056e+00
1.00333804e+00
1.00334784e+00
1.00335942e+00
1.00337294e+00
1.00338894e+00
1.00340715e+00
1.00342703e+00
1.00344835e+00
1.00347063e+00
1.00349305e+00
1.00351482e+00
1.00353527e+00
1.00355373e+00
1.00356959e+00
1.00358251e+00
1.00359231e+00
1.00359896e+00
1.00360254e+00
1.00360316e+00
1.00360089e+00
1.00359559e+00
1.00358690e+00
1.00357415e+00
1.00355637e+00
1.00353231e+00
1.00350052e+00
1.00345946e+00
1.00340763e+00
1.00334372e+00
1.00326676e+00
1.00317624e+00
1.00307218e+00
1.00295518e+00
1.00282638e+00
1.00268734e+00
1.00253986e+00
1.00238579e+00
1.00222673e+00
1.00206390e+00
1.00189795e+00
1.00172904e+00
1.00155687e+00
1.00138093e+00
1.00120075e+00
1.00101609e+00
1.00082712e+00
1.00063440e+00
1.00043876e+00
1.00024112e+00
1.00004224e+00
9.99842530e-01
9.99642034e-01
9.99440495e-01
9.99237599e-01
9.99033283e-01
9.98828035e-01
9.98623111e-01
9.98420598e-01
9.98223303e-01
9.98034489e-01
9.97857515e-01
9.97695452e-01
9.97550753e-01
9.97425026e-01
9.97318928e-01
9.97232190e-01
9.97163734e-01
9.97111854e-01
9.97074423e-01
9.97049095e-01
9.97033482e-01
9.97025297e-01
9.97022466e-01
9.97023193e-01
9.97026007e-01
9.97029771e-01
9.97033677e-01
9.97037219e-01
9.97040166e-01
9.97042491e-01
9.97044330e-01
9.97045964e-01
9.97047756e-01
9.97050028e-01
9.97053131e-01
9.97057514e-01
9.97063452e-01
9.97071010e-01
9.97080491e-01
9.97092211e-01
9.97105894e-01
9.97121349e-01
9.97139008e-01
9.97158676e-01
9.97179509e-01
9.97201612e-01
9.97225369e-01
9.97249747e-01
9.97273988e-01
9.97298658e-01
9.97323555e-01
9.97347084e-01
9.97369154e-01
9.97390372e-01
9.97409769e-01
9.97425968e-01
9.97439449e-01
9.97450317e-01
9.97457856e-01
9.97460250e-01
9.97460435e-01
1.00353408e+00
1.00352441e+00
1.00351307e+00
1.00350303e+00
1.00349178e+00
1.00347920e+00
1.00346708e+00
1.00345561e+00
1.00344306e+00
1.00343097e+00
1.00342038e+00
1.00340999e+00
1.00339986e+00
1.00339161e+00
1.00338491e+00
1.00337912e+00
1.00337533e+00
1.00337420e+00
1.00337520e+00
1.00337852e+00
1.00338483e+00
1.00339389e+00
1.00340519e+00
1.00341861e+00
1.00343373e+00
1.00344968e+00
1.00346568e+00
1.00348101e+00
1.00349485e+00
1.00350648e+00
1.00351542e+00
1.00352139e+00
1.00352429e+00
1.00352425e+00
1.00352152e+00
1.00351640e+00
1.00350912e+00
1.00349974e+00
1.00348807e+00
1.00347357e+00
1.00345539e+00
1.00343232e+00
1.00340291e+00
1.00336554e+00
1.00331858e+00
1.00326051e+00
1.00319010e+00
1.00310655e+00
1.00300958e+00
1.00289948e+00
1.00277707e+00
1.00264366e+00
1.00250082e+00
1.00235019e+00
1.00219330e+00
1.00203131e+00
1.00186498e+00
1.00169462e+00
1.00152025e+00
1.00134175e+00
1.00115913e+00
1.00097266e+00
1.00078304e+00
1.00059131e+00
1.00039870e+00