# vtk DataFile Version 2.0
LBM Flow Field - Timestep 2440
ASCII
DATASET STRUCTURED_POINTS
DIMENSIONS 128 128 1
ORIGIN 0.0 0.0 0.0
SPACING 1.0 1.0 1.0
POINT_DATA 16384
SCALARS density double 1
LOOKUP_TABLE default
9.96067447e-01
9.96071231e-01
9.96077104e-01
9.96094111e-01
9.96116533e-01
9.96139688e-01
9.96169462e-01
9.96205976e-01
9.96245279e-01
9.96288295e-01
9.96337110e-01
9.96390144e-01
9.96446113e-01
9.96506099e-01
9.96570071e-01
9.96636904e-01
9.96706387e-01
9.96778861e-01
9.96853766e-01
9.96930577e-01
9.97009274e-01
9.97089758e-01
9.97171572e-01
9.97254517e-01
9.97338515e-01
9.97423357e-01
9.97508771e-01
9.97594652e-01
9.97680868e-01
9.97767236e-01
9.97853608e-01
9.97939904e-01
9.98026022e-01
9.98111887e-01
9.98197471e-01
9.98282796e-01
9.98367909e-01
9.98452910e-01
9.98537957e-01
9.98623254e-01
9.98709046e-01
9.98795629e-01
9.98883334e-01
9.98972520e-01
9.99063566e-01
9.99156866e-01
9.99252813e-01
9.99351793e-01
9.99454175e-01
9.99560302e-01
9.99670485e-01
9.99784991e-01
9.99904042e-01
1.00002781e+00
1.00015640e+00
1.00028985e+00
1.00042816e+00
1.00057121e+00
1.00071885e+00
1.00087080e+00
1.00102674e+00
1.00118624e+00
1.00134877e+00
1.00151375e+00
1.00168049e+00
1.00184822e+00
1.00201612e+00
1.00218331e+00
1.00234887e+00
1.00251184e+00
1.00267129e+00
1.00282627e+00
1.00297592e+00
1.00311939e+00
1.00325596e+00
1.00338499e+00
1.00350598e+00
1.00361856e+00
1.00372251e+00
1.00381775e+00
1.00390437e+00
1.00398262e+00
1.00405286e+00
1.00411562e+00
1.00417152e+00
1.00422130e+00
1.00426577e+00
1.00430581e+00
1.00434232e+00
1.00437623e+00
1.00440845e+00
1.00443987e+00
1.00447134e+00
1.00450362e+00
1.00453742e+00
1.00457333e+00
1.00461186e+00
1.00465342e+00
1.00469827e+00
1.00474664e+00
1.00479861e+00
1.00485411e+00
1.00491309e+00
1.00497540e+00
1.00504072e+00
1.00510868e+00
1.00517905e+00
1.00525141e+00
1.00532507e+00
1.00539968e+00
1.00547498e+00
1.00555014e+00
1.00562435e+00
1.00569765e+00
1.00576962e+00
1.00583875e+00
1.00590488e+00
1.00596850e+00
1.00602832e+00
1.00608273e+00
1.00613324e+00
1.00617921e+00
1.00621919e+00
1.00625323e+00
1.00628219e+00
1.00630175e+00
1.00632066e+00
1.00633371e+00
9.96073656e-01
9.96080544e-01
9.96088712e-01
9.96103999e-01
9.96126228e-01
9.96150710e-01
9.96180115e-01
9.96215674e-01
9.96255382e-01
9.96298751e-01
9.96346859e-01
9.96399509e-01
9.96455563e-01
9.96515244e-01
9.96578569e-01
9.96645095e-01
9.96714273e-01
9.96786191e-01
9.96860520e-01
9.96936921e-01
9.97015103e-01
9.97094994e-01
9.97176272e-01
9.97258729e-01
9.97342172e-01
9.97426472e-01
9.97511393e-01
9.97596794e-01
9.97682522e-01
9.97768448e-01
9.97854419e-01
9.97940342e-01
9.98026126e-01
9.98111715e-01
9.98197076e-01
9.98282231e-01
9.98367234e-01
9.98452190e-01
9.98537248e-01
9.98622612e-01
9.98708527e-01
9.98795280e-01
9.98883193e-01
9.98972620e-01
9.99063933e-01
9.99157514e-01
9.99253749e-01
9.99353016e-01
9.99455676e-01
9.99562065e-01
9.99672488e-01
9.99787209e-01
9.99906444e-01
1.00003036e+00
1.00015906e+00
1.00029259e+00
1.00043093e+00
1.00057398e+00
1.00072155e+00
1.00087340e+00
1.00102918e+00
1.00118847e+00
1.00135074e+00
1.00151540e+00
1.00168176e+00
1.00184908e+00
1.00201651e+00
1.00218319e+00
1.00234820e+00
1.00251060e+00
1.00266945e+00
1.00282384e+00
1.00297288e+00
1.00311578e+00
1.00325181e+00
1.00338034e+00
1.00350089e+00
1.00361308e+00
1.00371672e+00
1.00381173e+00
1.00389820e+00
1.00397637e+00
1.00404662e+00
1.00410947e+00
1.00416553e+00
1.00421553e+00
1.00426027e+00
1.00430062e+00
1.00433747e+00
1.00437174e+00
1.00440432e+00
1.00443609e+00
1.00446787e+00
1.00450044e+00
1.00453446e+00
1.00457055e+00
1.00460919e+00
1.00465078e+00
1.00469561e+00
1.00474388e+00
1.00479565e+00
1.00485092e+00
1.00490960e+00
1.00497153e+00
1.00503640e+00
1.00510394e+00
1.00517382e+00
1.00524558e+00
1.00531870e+00
1.00539284e+00
1.00546749e+00
1.00554197e+00
1.00561576e+00
1.00568860e+00
1.00575979e+00
1.00582838e+00
1.00589439e+00
1.00595744e+00
1.00601656e+00
1.00607080e+00
1.00612137e+00
1.00616671e+00
1.00620658e+00
1.00624006e+00
1.00626910e+00
1.00628936e+00
1.00630917e+00
1.00631880e+00
9.96084081e-01
9.96093361e-01
9.96108017e-01
9.96120827e-01
9.96138984e-01
9.96166431e-01
9.96197327e-01
9.96230218e-01
9.96269416e-01
9.96314169e-01
9.96361643e-01
9.96412898e-01
9.96469070e-01
9.96528698e-01
9.96591027e-01
9.96656793e-01
9.96725730e-01
9.96796947e-01
9.96870365e-01
9.96946113e-01
9.97023691e-01
9.97102724e-01
9.97183199e-01
9.97264962e-01
9.97347666e-01
9.97431164e-01
9.97515374e-01
9.97600100e-01
9.97685146e-01
9.97770423e-01
9.97855822e-01
9.97941210e-01
9.98026505e-01
9.98111673e-01
9.98196687e-01
9.98281557e-01
9.98366346e-01
9.98451164e-01
9.98536156e-01
9.98621519e-01
9.98707498e-01
9.98794373e-01
9.98882459e-01
9.98972101e-01
9.99063661e-01
9.99157515e-01
9.99254036e-01
9.99353595e-01
9.99456545e-01
9.99563214e-01
9.99673899e-01
9.99788859e-01
9.99908305e-01
1.00003240e+00
1.00016124e+00
1.00029488e+00
1.00043328e+00
1.00057634e+00
1.00072389e+00
1.00087566e+00
1.00103132e+00
1.00119042e+00
1.00135246e+00
1.00151684e+00
1.00168286e+00
1.00184978e+00
1.00201677e+00
1.00218296e+00
1.00234743e+00
1.00250925e+00
1.00266750e+00
1.00282126e+00
1.00296967e+00
1.00311193e+00
1.00324733e+00
1.00337525e+00
1.00349522e+00
1.00360689e+00
1.00371004e+00
1.00380462e+00
1.00389074e+00
1.00396862e+00
1.00403866e+00
1.00410136e+00
1.00415734e+00
1.00420733e+00
1.00425212e+00
1.00429257e+00
1.00432955e+00
1.00436398e+00
1.00439674e+00
1.00442869e+00
1.00446064e+00
1.00449334e+00
1.00452749e+00
1.00456364e+00
1.00460229e+00
1.00464384e+00
1.00468858e+00
1.00473666e+00
1.00478818e+00
1.00484317e+00
1.00490150e+00
1.00496294e+00
1.00502735e+00
1.00509445e+00
1.00516371e+00
1.00523477e+00
1.00530742e+00
1.00538100e+00
1.00545477e+00
1.00552859e+00
1.00560214e+00
1.00567420e+00
1.00574428e+00
1.00581280e+00
1.00587874e+00
1.00594047e+00
1.00599880e+00
1.00605399e+00
1.00610384e+00
1.00614780e+00
1.00618780e+00
1.00622193e+00
1.00625007e+00
1.00627203e+00
1.00628621e+00
1.00629674e+00
9.96107780e-01
9.96114615e-01
9.96126627e-01
9.96142213e-01
9.96161964e-01
9.96186884e-01
9.96216807e-01
9.96251013e-01
9.96289792e-01
9.96332928e-01
9.96380265e-01
9.96431526e-01
9.96486625e-01
9.96545260e-01
9.96607241e-01
9.96672250e-01
9.96740089e-01
9.96810474e-01
9.96883174e-01
9.96957905e-01
9.97034472e-01
9.97112640e-01
9.97192204e-01
9.97272954e-01
9.97354732e-01
9.97437355e-01
9.97520663e-01
9.97604503e-01
9.97688746e-01
9.97773256e-01
9.97857921e-01
9.97942645e-01
9.98027358e-01
9.98112008e-01
9.98196582e-01
9.98281102e-01
9.98365630e-01
9.98450270e-01
9.98535173e-01
9.98620532e-01
9.98706585e-01
9.98793604e-01
9.98881898e-01
9.98971801e-01
9.99063664e-01
9.99157851e-01
9.99254727e-01
9.99354648e-01
9.99457957e-01
9.99564972e-01
9.99675982e-01
9.99791235e-01
9.99910936e-01
1.00003524e+00
1.00016424e+00
1.00029798e+00
1.00043642e+00
1.00057946e+00
1.00072692e+00
1.00087853e+00
1.00103395e+00
1.00119274e+00
1.00135440e+00
1.00151831e+00
1.00168380e+00
1.00185012e+00
1.00201644e+00
1.00218189e+00
1.00234558e+00
1.00250658e+00
1.00266397e+00
1.00281686e+00
1.00296439e+00
1.00310577e+00
1.00324031e+00
1.00336742e+00
1.00348662e+00
1.00359757e+00
1.00370009e+00
1.00379412e+00
1.00387976e+00
1.00395726e+00
1.00402701e+00
1.00408952e+00
1.00414539e+00
1.00419535e+00
1.00424019e+00
1.00428074e+00
1.00431787e+00
1.00435248e+00
1.00438544e+00
1.00441760e+00
1.00444975e+00
1.00448262e+00
1.00451689e+00
1.00455313e+00
1.00459181e+00
1.00463331e+00
1.00467791e+00
1.00472581e+00
1.00477707e+00
1.00483170e+00
1.00488959e+00
1.00495060e+00
1.00501446e+00
1.00508088e+00
1.00514953e+00
1.00521999e+00
1.00529183e+00
1.00536458e+00
1.00543778e+00
1.00551089e+00
1.00558342e+00
1.00565478e+00
1.00572454e+00
1.00579215e+00
1.00585700e+00
1.00591860e+00
1.00597673e+00
1.00603072e+00
1.00607980e+00
1.00612426e+00
1.00616396e+00
1.00619711e+00
1.00622381e+00
1.00624678e+00
1.00626286e+00
1.00627333e+00
9.96137452e-01
9.96143703e-01
9.96151415e-01
9.96168435e-01
9.96190059e-01
9.96212783e-01
9.96241486e-01
9.96276826e-01
9.96315027e-01
9.96356460e-01
9.96403445e-01
9.96454558e-01
9.96508405e-01
9.96565891e-01
9.96627273e-01
9.96691352e-01
9.96757896e-01
9.96827243e-01
9.96898979e-01
9.96972508e-01
9.97047850e-01
9.97124932e-01
9.97203363e-01
9.97282912e-01
9.97363554e-01
9.97445097e-01
9.97527311e-01
9.97610091e-01
9.97693351e-01
9.97776929e-01
9.97860711e-01
9.97944636e-01
9.98028640e-01
9.98112666e-01
9.98196710e-01
9.98280808e-01
9.98365019e-01
9.98449446e-01
9.98534240e-01
9.98619593e-01
9.98705731e-01
9.98792922e-01
9.98881462e-01
9.98971675e-01
9.99063897e-01
9.99158480e-01
9.99255773e-01
9.99356120e-01
9.99459849e-01
9.99567267e-01
9.99678650e-01
9.99794237e-01
9.99914222e-01
1.00003875e+00
1.00016792e+00
1.00030174e+00
1.00044020e+00
1.00058317e+00
1.00073047e+00
1.00088183e+00
1.00103691e+00
1.00119528e+00
1.00135641e+00
1.00151971e+00
1.00168450e+00
1.00185003e+00
1.00201548e+00
1.00217999e+00
1.00234268e+00
1.00250263e+00
1.00265893e+00
1.00281070e+00
1.00295711e+00
1.00309739e+00
1.00323086e+00
1.00335693e+00
1.00347516e+00
1.00358522e+00
1.00368693e+00
1.00378025e+00
1.00386530e+00
1.00394232e+00
1.00401171e+00
1.00407395e+00
1.00412968e+00
1.00417959e+00
1.00422447e+00
1.00426514e+00
1.00430245e+00
1.00433729e+00
1.00437049e+00
1.00440290e+00
1.00443530e+00
1.00446840e+00
1.00450284e+00
1.00453919e+00
1.00457792e+00
1.00461939e+00
1.00466387e+00
1.00471157e+00
1.00476255e+00
1.00481676e+00
1.00487417e+00
1.00493465e+00
1.00499788e+00
1.00506355e+00
1.00513146e+00
1.00520119e+00
1.00527210e+00
1.00534391e+00
1.00541637e+00
1.00548862e+00
1.00555998e+00
1.00563055e+00
1.00569979e+00
1.00576626e+00
1.00582999e+00
1.00589143e+00
1.00594898e+00
1.00600151e+00
1.00605035e+00
1.00609494e+00
1.00613321e+00
1.00616609e+00
1.00619371e+00
1.00621508e+00
1.00622989e+00
1.00624040e+00
9.96168059e-01
9.96175304e-01
9.96186103e-01
9.96200525e-01
9.96219746e-01
9.96244515e-01
9.96273465e-01
9.96306192e-01
9.96343661e-01
9.96385775e-01
9.96431500e-01
9.96480858e-01
9.96534227e-01
9.96591076e-01
9.96650852e-01
9.96713643e-01
9.96779314e-01
9.96847370e-01
9.96917576e-01
9.96989879e-01
9.97064000e-01
9.97139636e-01
9.97216666e-01
9.97294958e-01
9.97374282e-01
9.97454474e-01
9.97535437e-01
9.97617033e-01
9.97699113e-01
9.97781582e-01
9.97864360e-01
9.97947358e-01
9.98030514e-01
9.98113807e-01
9.98197237e-01
9.98280829e-01
9.98364652e-01
9.98448816e-01
9.98533465e-01
9.98618783e-01
9.98704995e-01
9.98792356e-01
9.98881152e-01
9.98971690e-01
9.99064296e-01
9.99159304e-01
9.99257048e-01
9.99357856e-01
9.99462041e-01
9.99569895e-01
9.99681681e-01
9.99797625e-01
9.99917910e-01
1.00004267e+00
1.00017199e+00
1.00030589e+00
1.00044433e+00
1.00058718e+00
1.00073427e+00
1.00088532e+00
1.00103998e+00
1.00119781e+00
1.00135830e+00
1.00152086e+00
1.00168479e+00
1.00184937e+00
1.00201379e+00
1.00217718e+00
1.00233868e+00
1.00249739e+00
1.00265241e+00
1.00280288e+00
1.00294798e+00
1.00308696e+00
1.00321917e+00
1.00334403e+00
1.00346113e+00
1.00357014e+00
1.00367090e+00
1.00376340e+00
1.00384773e+00
1.00392418e+00
1.00399311e+00
1.00405503e+00
1.00411056e+00
1.00416039e+00
1.00420528e+00
1.00424606e+00
1.00428355e+00
1.00431861e+00
1.00435208e+00
1.00438476e+00
1.00441742e+00
1.00445075e+00
1.00448539e+00
1.00452186e+00
1.00456064e+00
1.00460208e+00
1.00464645e+00
1.00469390e+00
1.00474453e+00
1.00479835e+00
1.00485525e+00
1.00491505e+00
1.00497758e+00
1.00504254e+00
1.00510954e+00
1.00517825e+00
1.00524833e+00
1.00531923e+00
1.00539043e+00
1.00546162e+00
1.00553231e+00
1.00560175e+00
1.00566951e+00
1.00573536e+00
1.00579865e+00
1.00585857e+00
1.00591488e+00
1.00596752e+00
1.00601585e+00
1.00605886e+00
1.00609649e+00
1.00612957e+00
1.00615675e+00
1.00617716e+00
1.00619280e+00
1.00620260e+00
9.96205967e-01
9.96212636e-01
9.96224354e-01
9.96237584e-01
9.96255646e-01
9.96280663e-01
9.96309055e-01
9.96340483e-01
9.96377380e-01
9.96418945e-01
9.96463374e-01
9.96511559e-01
9.96564066e-01
9.96619703e-01
9.96678023e-01
9.96739545e-01
9.96803929e-01
9.96870480e-01
9.96939178e-01
9.97010049e-01
9.97082662e-01
9.97156733e-01
9.97232252e-01
9.97309054e-01
9.97386867e-01
9.97465584e-01
9.97545135e-01
9.97625356e-01
9.97706111e-01
9.97787342e-01
9.97868968e-01
9.97950901e-01
9.98033100e-01
9.98115557e-01
9.98198272e-01
9.98281275e-01
9.98364644e-01
9.98448488e-01
9.98532946e-01
9.98618200e-01
9.98704465e-01
9.98791987e-01
9.98881037e-01
9.98971909e-01
9.99064913e-01
9.99160364e-01
9.99258580e-01
9.99359872e-01
9.99464535e-01
9.99572846e-01
9.99685051e-01
9.99801362e-01
9.99921952e-01
1.00004694e+00
1.00017641e+00
1.00031036e+00
1.00044874e+00
1.00059143e+00
1.00073824e+00
1.00088890e+00
1.00104304e+00
1.00120024e+00
1.00135998e+00
1.00152165e+00
1.00168460e+00
1.00184808e+00
1.00201129e+00
1.00217339e+00
1.00233353e+00
1.00249080e+00
1.00264435e+00
1.00279332e+00
1.00293693e+00
1.00307443e+00
1.00320520e+00
1.00332869e+00
1.00344449e+00
1.00355232e+00
1.00365200e+00
1.00374355e+00
1.00382708e+00
1.00390286e+00
1.00397128e+00
1.00403283e+00
1.00408813e+00
1.00413786e+00
1.00418276e+00
1.00422364e+00
1.00426133e+00
1.00429663e+00
1.00433039e+00
1.00436337e+00
1.00439631e+00
1.00442990e+00
1.00446474e+00
1.00450137e+00
1.00454019e+00
1.00458160e+00
1.00462583e+00
1.00467303e+00
1.00472329e+00
1.00477664e+00
1.00483296e+00
1.00489206e+00
1.00495378e+00
1.00501790e+00
1.00508395e+00
1.00515159e+00
1.00522060e+00
1.00529045e+00
1.00536045e+00
1.00543040e+00
1.00550002e+00
1.00556832e+00
1.00563478e+00
1.00569960e+00
1.00576195e+00
1.00582063e+00
1.00587600e+00
1.00592809e+00
1.00597519e+00
1.00601715e+00
1.00605494e+00
1.00608739e+00
1.00611316e+00
1.00613305e+00
1.00614832e+00
1.00615800e+00
9.96250389e-01
9.96255502e-01
9.96264446e-01
9.96279030e-01
9.96298139e-01
9.96320402e-01
9.96347513e-01
9.96379925e-01
9.96415798e-01
9.96455075e-01
9.96498922e-01
9.96546710e-01
9.96597387e-01
9.96651333e-01
9.96708768e-01
9.96768913e-01
9.96831404e-01
9.96896441e-01
9.96963765e-01
9.97032886e-01
9.97103719e-01
9.97176231e-01
9.97250124e-01
9.97325175e-01
9.97401342e-01
9.97478505e-01
9.97556469e-01
9.97635141e-01
9.97714468e-01
9.97794341e-01
9.97874670e-01
9.97955423e-01
9.98036572e-01
9.98118092e-01
9.98199995e-01
9.98282337e-01
9.98365187e-01
9.98448649e-01
9.98532867e-01
9.98618018e-01
9.98704306e-01
9.98791963e-01
9.98881251e-01
9.98972448e-01
9.99065843e-01
9.99161735e-01
9.99260424e-01
9.99362201e-01
9.99467344e-01
9.99576111e-01
9.99688732e-01
9.99805405e-01
9.99926285e-01
1.00005149e+00
1.00018107e+00
1.00031503e+00
1.00045331e+00
1.00059579e+00
1.00074225e+00
1.00089243e+00
1.00104597e+00
1.00120243e+00
1.00136129e+00
1.00152196e+00
1.00168377e+00
1.00184600e+00
1.00200785e+00
1.00216850e+00
1.00232710e+00
1.00248277e+00
1.00263467e+00
1.00278198e+00
1.00292392e+00
1.00305979e+00
1.00318896e+00
1.00331093e+00
1.00342531e+00
1.00353181e+00
1.00363032e+00
1.00372083e+00
1.00380347e+00
1.00387853e+00
1.00394638e+00
1.00400753e+00
1.00406257e+00
1.00411218e+00
1.00415709e+00
1.00419809e+00
1.00423597e+00
1.00427154e+00
1.00430560e+00
1.00433889e+00
1.00437215e+00
1.00440602e+00
1.00444108e+00
1.00447785e+00
1.00451676e+00
1.00455811e+00
1.00460218e+00
1.00464913e+00
1.00469902e+00
1.00475182e+00
1.00480749e+00
1.00486590e+00
1.00492677e+00
1.00498983e+00
1.00505490e+00
1.00512153e+00
1.00518923e+00
1.00525773e+00
1.00532670e+00
1.00539541e+00
1.00546336e+00
1.00553045e+00
1.00559610e+00
1.00565935e+00
1.00572002e+00
1.00577813e+00
1.00583275e+00
1.00588299e+00
1.00592907e+00
1.00597108e+00
1.00600782e+00
1.00603850e+00
1.00606429e+00
1.00608470e+00
1.00609859e+00
1.00610718e+00
9.96297095e-01
9.96302318e-01
9.96310450e-01
9.96324386e-01
9.96342839e-01
9.96364444e-01
9.96391034e-01
9.96422409e-01
9.96457064e-01
9.96495508e-01
9.96538366e-01
9.96584649e-01
9.96633925e-01
9.96686662e-01
9.96742586e-01
9.96801009e-01
9.96861929e-01
9.96925374e-01
9.96990906e-01
9.97058227e-01
9.97127339e-01
9.97198065e-01
9.97270115e-01
9.97343384e-01
9.97417811e-01
9.97493219e-01
9.97569473e-01
9.97646521e-01
9.97724284e-01
9.97802658e-01
9.97881597e-01
9.97961077e-01
9.98041065e-01
9.98121551e-01
9.98202571e-01
9.98284173e-01
9.98366430e-01
9.98449451e-01
9.98533379e-01
9.98618380e-01
9.98704649e-01
9.98792410e-01
9.98881909e-01
9.98973405e-01
9.99067171e-01
9.99163488e-01
9.99262634e-01
9.99364881e-01
9.99470488e-01
9.99579693e-01
9.99692710e-01
9.99809720e-01
9.99930864e-01
1.00005624e+00
1.00018589e+00
1.00031982e+00
1.00045795e+00
1.00060014e+00
1.00074619e+00
1.00089581e+00
1.00104864e+00
1.00120426e+00
1.00136213e+00
1.00152167e+00
1.00168221e+00
1.00184305e+00
1.00200339e+00
1.00216243e+00
1.00231932e+00
1.00247323e+00
1.00262333e+00
1.00276881e+00
1.00290893e+00
1.00304300e+00
1.00317045e+00
1.00329077e+00
1.00340360e+00
1.00350868e+00
1.00360592e+00
1.00369531e+00
1.00377701e+00
1.00385129e+00
1.00391854e+00
1.00397926e+00
1.00403404e+00
1.00408353e+00
1.00412847e+00
1.00416960e+00
1.00420770e+00
1.00424357e+00
1.00427795e+00
1.00431160e+00
1.00434519e+00
1.00437936e+00
1.00441466e+00
1.00445159e+00
1.00449057e+00
1.00453189e+00
1.00457580e+00
1.00462245e+00
1.00467193e+00
1.00472419e+00
1.00477917e+00
1.00483676e+00
1.00489674e+00
1.00495879e+00
1.00502267e+00
1.00508811e+00
1.00515459e+00
1.00522170e+00
1.00528922e+00
1.00535660e+00
1.00542317e+00
1.00548873e+00
1.00555294e+00
1.00561490e+00
1.00567427e+00
1.00573103e+00
1.00578433e+00
1.00583343e+00
1.00587870e+00
1.00591963e+00
1.00595509e+00
1.00598524e+00
1.00601064e+00
1.00603000e+00
1.00604284e+00
1.00605137e+00
9.96346348e-01
9.96351518e-01
9.96360979e-01
9.96373262e-01
9.96389981e-01
9.96412297e-01
9.96438365e-01
9.96467531e-01
9.96501411e-01
9.96539647e-01
9.96580787e-01
9.96625251e-01
9.96673668e-01
9.96725114e-01
9.96779017e-01
9.96835806e-01
9.96895336e-01
9.96956915e-01
9.97020453e-01
9.97086057e-01
9.97153380e-01
9.97222102e-01
9.97292237e-01
9.97363700e-01
9.97436243e-01
9.97509760e-01
9.97584241e-01
9.97659575e-01
9.97735645e-01
9.97812428e-01
9.97889901e-01
9.97968009e-01
9.98046739e-01
9.98126120e-01
9.98206180e-01
9.98286965e-01
9.98368561e-01
9.98451082e-01
9.98534659e-01
9.98619453e-01
9.98705655e-01
9.98793475e-01
9.98883139e-01
9.98974893e-01
9.99068993e-01
9.99165698e-01
9.99265264e-01
9.99367946e-01
9.99473980e-01
9.99583588e-01
9.99696963e-01
9.99814269e-01
9.99935632e-01
1.00006114e+00
1.00019081e+00
1.00032465e+00
1.00046255e+00
1.00060439e+00
1.00074993e+00
1.00089891e+00
1.00105095e+00
1.00120561e+00
1.00136237e+00
1.00152066e+00
1.00167981e+00
1.00183911e+00
1.00199780e+00
1.00215508e+00
1.00231013e+00
1.00246213e+00
1.00261028e+00
1.00275379e+00
1.00289195e+00
1.00302411e+00
1.00314970e+00
1.00326826e+00
1.00337945e+00
1.00348304e+00
1.00357893e+00
1.00366715e+00
1.00374786e+00
1.00382134e+00
1.00388798e+00
1.00394827e+00
1.00400279e+00
1.00405219e+00
1.00409716e+00
1.00413845e+00
1.00417680e+00
1.00421298e+00
1.00424773e+00
1.00428175e+00
1.00431569e+00
1.00435018e+00
1.00438575e+00
1.00442286e+00
1.00446189e+00
1.00450318e+00
1.00454693e+00
1.00459327e+00
1.00464229e+00
1.00469400e+00
1.00474829e+00
1.00480498e+00
1.00486397e+00
1.00492501e+00
1.00498768e+00
1.00505170e+00
1.00511690e+00
1.00518270e+00
1.00524855e+00
1.00531431e+00
1.00537964e+00
1.00544364e+00
1.00550593e+00
1.00556659e+00
1.00562488e+00
1.00567980e+00
1.00573149e+00
1.00577997e+00
1.00582407e+00
1.00586310e+00
1.00589787e+00
1.00592798e+00
1.00595176e+00
1.00596980e+00
1.00598350e+00
1.00599158e+00
9.96400115e-01
9.96404327e-01
9.96412846e-01
9.96424922e-01
9.96441366e-01
9.96462519e-01
9.96487412e-01
9.96516150e-01
9.96549147e-01
9.96585738e-01
9.96625646e-01
9.96669187e-01
9.96716045e-01
9.96765683e-01
9.96818158e-01
9.96873427e-01
9.96931024e-01
9.96990726e-01
9.97052544e-01
9.97116244e-01
9.97181525e-01
9.97248319e-01
9.97316550e-01
9.97386010e-01
9.97456573e-01
9.97528208e-01
9.97600823e-01
9.97674309e-01
9.97748631e-01
9.97823770e-01
9.97899674e-01
9.97976324e-01
9.98053740e-01
9.98131943e-01
9.98210961e-01
9.98290863e-01
9.98371738e-01
9.98453693e-01
9.98536856e-01
9.98621387e-01
9.98707465e-01
9.98795285e-01
9.98885062e-01
9.98977023e-01
9.99071404e-01
9.99168443e-01
9.99268380e-01
9.99371444e-01
9.99477855e-01
9.99587812e-01
9.99701491e-01
9.99819037e-01
9.99940561e-01
1.00006613e+00
1.00019577e+00
1.00032944e+00
1.00046705e+00
1.00060845e+00
1.00075341e+00
1.00090164e+00
1.00105278e+00
1.00120638e+00
1.00136193e+00
1.00151885e+00
1.00167648e+00
1.00183412e+00
1.00199102e+00
1.00214641e+00
1.00229948e+00
1.00244944e+00
1.00259550e+00
1.00273692e+00
1.00287300e+00
1.00300313e+00
1.00312678e+00
1.00324350e+00
1.00335297e+00
1.00345500e+00
1.00354950e+00
1.00363652e+00
1.00371622e+00
1.00378890e+00
1.00385493e+00
1.00391480e+00
1.00396908e+00
1.00401840e+00
1.00406344e+00
1.00410492e+00
1.00414356e+00
1.00418010e+00
1.00421524e+00
1.00424966e+00
1.00428399e+00
1.00431882e+00
1.00435466e+00
1.00439195e+00
1.00443107e+00
1.00447230e+00
1.00451588e+00
1.00456192e+00
1.00461047e+00
1.00466155e+00
1.00471510e+00
1.00477094e+00
1.00482887e+00
1.00488872e+00
1.00495019e+00
1.00501289e+00
1.00507652e+00
1.00514081e+00
1.00520522e+00
1.00526930e+00
1.00533282e+00
1.00539529e+00
1.00545610e+00
1.00551496e+00
1.00557153e+00
1.00562515e+00
1.00567550e+00
1.00572234e+00
1.00576503e+00
1.00580322e+00
1.00583691e+00
1.00586563e+00
1.00588869e+00
1.00590628e+00
1.00591884e+00
1.00592603e+00
9.96456082e-01
9.96459551e-01
9.96466685e-01
9.96478862e-01
9.96495227e-01
9.96514755e-01
9.96538697e-01
9.96567268e-01
9.96598960e-01
9.96633904e-01
9.96672989e-01
9.96715420e-01
9.96760431e-01
9.96808519e-01
9.96859699e-01
9.96913175e-01
9.96968803e-01
9.97026808e-01
9.97086835e-01
9.97148469e-01
9.97211753e-01
9.97276651e-01
9.97342858e-01
9.97410245e-01
9.97478843e-01
9.97548540e-01
9.97619193e-01
9.97690791e-01
9.97763332e-01
9.97836747e-01
9.97911012e-01
9.97986159e-01
9.98062201e-01
9.98139152e-01
9.98217069e-01
9.98296032e-01
9.98376121e-01
9.98457441e-01
9.98540130e-01
9.98624336e-01
9.98710224e-01
9.98797979e-01
9.98887804e-01
9.98979906e-01
9.99074501e-01
9.99171809e-01
9.99272049e-01
9.99375430e-01
9.99482149e-01
9.99592387e-01
9.99706300e-01
9.99824017e-01
9.99945630e-01
1.00007119e+00
1.00020071e+00
1.00033414e+00
1.00047137e+00
1.00061225e+00
1.00075654e+00
1.00090394e+00
1.00105408e+00
1.00120651e+00
1.00136073e+00
1.00151616e+00
1.00167215e+00
1.00182801e+00
1.00198300e+00
1.00213637e+00
1.00228734e+00
1.00243513e+00
1.00257899e+00
1.00271821e+00
1.00285212e+00
1.00298014e+00
1.00310175e+00
1.00321656e+00
1.00332428e+00
1.00342471e+00
1.00351780e+00
1.00360361e+00
1.00368231e+00
1.00375419e+00
1.00381964e+00
1.00387912e+00
1.00393320e+00
1.00398249e+00
1.00402765e+00
1.00406936e+00
1.00410834e+00
1.00414527e+00
1.00418083e+00
1.00421568e+00
1.00425043e+00
1.00428562e+00
1.00432174e+00
1.00435923e+00
1.00439844e+00
1.00443963e+00
1.00448300e+00
1.00452871e+00
1.00457681e+00
1.00462724e+00
1.00467997e+00
1.00473492e+00
1.00479181e+00
1.00485040e+00
1.00491055e+00
1.00497193e+00
1.00503402e+00
1.00509659e+00
1.00515944e+00
1.00522194e+00
1.00528354e+00
1.00534421e+00
1.00540354e+00
1.00546062e+00
1.00551523e+00
1.00556747e+00
1.00561648e+00
1.00566141e+00
1.00570266e+00
1.00574014e+00
1.00577244e+00
1.00579943e+00
1.00582209e+00
1.00583944e+00
1.00585055e+00
1.00585682e+00
9.96512763e-01
9.96516150e-01
9.96523273e-01
9.96534401e-01
9.96549705e-01
9.96569045e-01
9.96592430e-01
9.96619480e-01
9.96650099e-01
9.96684473e-01
9.96722211e-01
9.96762920e-01
9.96806759e-01
9.96853592e-01
9.96902915e-01
9.96954604e-01
9.97008708e-01
9.97064899e-01
9.97122870e-01
9.97182611e-01
9.97244029e-01
9.97306857e-01
9.97370983e-01
9.97436405e-01
9.97503004e-01
9.97570653e-01
9.97639344e-01
9.97709065e-01
9.97779751e-01
9.97851385e-01
9.97923997e-01
9.97997598e-01
9.98072198e-01
9.98147851e-01
9.98224625e-01
9.98302587e-01
9.98381826e-01
9.98462458e-01
9.98544610e-01
9.98628421e-01
9.98714051e-01
9.98801674e-01
9.98891474e-01
9.98983641e-01
9.99078375e-01
9.99175876e-01
9.99276340e-01
9.99379957e-01
9.99486904e-01
9.99597343e-01
9.99711409e-01
9.99829214e-01
9.99950834e-01
1.00007630e+00
1.00020562e+00
1.00033872e+00
1.00047548e+00
1.00061575e+00
1.00075926e+00
1.00090573e+00
1.00105477e+00
1.00120594e+00
1.00135872e+00
1.00151254e+00
1.00166677e+00
1.00182073e+00
1.00197370e+00
1.00212494e+00
1.00227369e+00
1.00241921e+00
1.00256078e+00
1.00269770e+00
1.00282936e+00
1.00295519e+00
1.00307473e+00
1.00318759e+00
1.00329352e+00
1.00339234e+00
1.00348403e+00
1.00356864e+00
1.00364637e+00
1.00371749e+00
1.00378239e+00
1.00384155e+00
1.00389548e+00
1.00394480e+00
1.00399012e+00
1.00403213e+00
1.00407148e+00
1.00410885e+00
1.00414489e+00
1.00418021e+00
1.00421539e+00
1.00425096e+00
1.00428740e+00
1.00432508e+00
1.00436436e+00
1.00440551e+00
1.00444869e+00
1.00449404e+00
1.00454162e+00
1.00459143e+00
1.00464335e+00
1.00469729e+00
1.00475311e+00
1.00481053e+00
1.00486926e+00
1.00492910e+00
1.00498974e+00
1.00505070e+00
1.00511167e+00
1.00517242e+00
1.00523242e+00
1.00529119e+00
1.00534848e+00
1.00540395e+00
1.00545700e+00
1.00550724e+00
1.00555447e+00
1.00559823e+00
1.00563806e+00
1.00567368e+00
1.00570487e+00
1.00573125e+00
1.00575258e+00
1.00576855e+00
1.00577929e+00
1.00578523e+00
9.96570670e-01
9.96573510e-01
9.96580663e-01
9.96591001e-01
9.96605415e-01
9.96624448e-01
9.96647022e-01
9.96672834e-01
9.96702703e-01
9.96736198e-01
9.96772481e-01
9.96811908e-01
9.96854639e-01
9.96899926e-01
9.96947537e-01
9.96997736e-01
9.97050205e-01
9.97104473e-01
9.97160584e-01
9.97218526e-01
9.97277963e-01
9.97338736e-01
9.97400899e-01
9.97464335e-01
9.97528874e-01
9.97594515e-01
9.97661272e-01
9.97729067e-01
9.97797872e-01
9.97867734e-01
9.97938668e-01
9.98010674e-01
9.98083806e-01
9.98158134e-01
9.98233714e-01
9.98310623e-01
9.98388966e-01
9.98468854e-01
9.98550404e-01
9.98633754e-01
9.98719058e-01
9.98806474e-01
9.98896169e-01
9.98988321e-01
9.99083111e-01
9.99180717e-01
9.99281316e-01
9.99385080e-01
9.99492165e-01
9.99602712e-01
9.99716840e-01
9.99834641e-01
9.99956174e-01
1.00008146e+00
1.00021048e+00
1.00034315e+00
1.00047936e+00
1.00061891e+00
1.00076155e+00
1.00090698e+00
1.00105482e+00
1.00120461e+00
1.00135584e+00
1.00150795e+00
1.00166032e+00
1.00181227e+00
1.00196311e+00
1.00211211e+00
1.00225855e+00
1.00240170e+00
1.00254089e+00
1.00267545e+00
1.00280480e+00
1.00292840e+00
1.00304582e+00
1.00315672e+00
1.00326085e+00
1.00335808e+00
1.00344839e+00
1.00353184e+00
1.00360864e+00
1.00367907e+00
1.00374350e+00
1.00380239e+00
1.00385626e+00
1.00390567e+00
1.00395124e+00
1.00399360e+00
1.00403340e+00
1.00407126e+00
1.00410781e+00
1.00414364e+00
1.00417929e+00
1.00421526e+00
1.00425201e+00
1.00428991e+00
1.00432926e+00
1.00437034e+00
1.00441333e+00
1.00445833e+00
1.00450537e+00
1.00455450e+00
1.00460562e+00
1.00465856e+00
1.00471321e+00
1.00476941e+00
1.00482679e+00
1.00488506e+00
1.00494407e+00
1.00500345e+00
1.00506265e+00
1.00512147e+00
1.00517970e+00
1.00523670e+00
1.00529198e+00
1.00534556e+00
1.00539697e+00
1.00544538e+00
1.00549073e+00
1.00553306e+00
1.00557145e+00
1.00560535e+00
1.00563529e+00
1.00566081e+00
1.00568079e+00
1.00569567e+00
1.00570616e+00
1.00571123e+00
9.96629532e-01
9.96631620e-01
9.96637784e-01
9.96647984e-01
9.96662160e-01
9.96680050e-01
9.96701706e-01
9.96727210e-01
9.96756144e-01
9.96788187e-01
9.96823564e-01
9.96862118e-01
9.96903301e-01
9.96947047e-01
9.96993456e-01
9.97042132e-01
9.97092741e-01
9.97145333e-01
9.97199804e-01
9.97255817e-01
9.97313269e-01
9.97372186e-01
9.97432414e-01
9.97493796e-01
9.97556345e-01
9.97620059e-01
9.97684852e-01
9.97750706e-01
9.97817676e-01
9.97885771e-01
9.97954991e-01
9.98025396e-01
9.98097059e-01
9.98170027e-01
9.98244374e-01
9.98320201e-01
9.98397606e-01
9.98476692e-01
9.98557582e-01
9.98640412e-01
9.98725319e-01
9.98812450e-01
9.98901961e-01
9.98994015e-01
9.99088770e-01
9.99186389e-01
9.99287031e-01
9.99390845e-01
9.99497970e-01
9.99608527e-01
9.99722617e-01
9.99840314e-01
9.99961661e-01
1.00008666e+00
1.00021528e+00
1.00034743e+00
1.00048297e+00
1.00062170e+00
1.00076338e+00
1.00090767e+00
1.00105419e+00
1.00120250e+00
1.00135208e+00
1.00150237e+00
1.00165277e+00
1.00180261e+00
1.00195121e+00
1.00209788e+00
1.00224192e+00
1.00238264e+00
1.00251938e+00
1.00265153e+00
1.00277852e+00
1.00289986e+00
1.00301517e+00
1.00312411e+00
1.00322647e+00
1.00332214e+00
1.00341111e+00
1.00349348e+00
1.00356942e+00
1.00363924e+00
1.00370328e+00
1.00376199e+00
1.00381588e+00
1.00386548e+00
1.00391138e+00
1.00395417e+00
1.00399448e+00
1.00403290e+00
1.00407002e+00
1.00410640e+00
1.00414255e+00
1.00417895e+00
1.00421602e+00
1.00425413e+00
1.00429357e+00
1.00433458e+00
1.00437733e+00
1.00442196e+00
1.00446849e+00
1.00451688e+00
1.00456714e+00
1.00461913e+00
1.00467263e+00
1.00472746e+00
1.00478348e+00
1.00484031e+00
1.00489761e+00
1.00495520e+00
1.00501277e+00
1.00506978e+00
1.00512594e+00
1.00518108e+00
1.00523470e+00
1.00528625e+00
1.00533558e+00
1.00538245e+00
1.00542622e+00
1.00546651e+00
1.00550330e+00
1.00553620e+00
1.00556465e+00
1.00558848e+00
1.00560772e+00
1.00562203e+00
1.00563112e+00
1.00563515e+00
9.96687707e-01
9.96689365e-01
9.96694957e-01
9.96704744e-01
9.96718432e-01
9.96735585e-01
9.96756626e-01
9.96781468e-01
9.96809418e-01
9.96840555e-01
9.96875093e-01
9.96912458e-01
9.96952344e-01
9.96994951e-01
9.97040026e-01
9.97087103e-01
9.97136183e-01
9.97187254e-01
9.97239969e-01
9.97294149e-01
9.97349844e-01
9.97406921e-01
9.97465187e-01
9.97524641e-01
9.97585302e-01
9.97647074e-01
9.97709927e-01
9.97773924e-01
9.97839082e-01
9.97905395e-01
9.97972926e-01
9.98041755e-01
9.98111929e-01
9.98183519e-01
9.98256625e-01
9.98331344e-01
9.98407767e-01
9.98486008e-01
9.98566191e-01
9.98648439e-01
9.98732879e-01
9.98819653e-01
9.98908902e-01
9.99000769e-01
9.99095400e-01
9.99192939e-01
9.99293525e-01
9.99397289e-01
9.99504351e-01
9.99614814e-01
9.99728762e-01
9.99846251e-01
9.99967306e-01
1.00009192e+00
1.00022003e+00
1.00035155e+00
1.00048632e+00
1.00062414e+00
1.00076473e+00
1.00090777e+00
1.00105288e+00
1.00119959e+00
1.00134742e+00
1.00149579e+00
1.00164411e+00