# vtk DataFile Version 2.0
LBM Flow Field - Timestep 2790
ASCII
DATASET STRUCTURED_POINTS
DIMENSIONS 128 128 1
ORIGIN 0.0 0.0 0.0
SPACING 1.0 1.0 1.0
POINT_DATA 16384
SCALARS density double 1
LOOKUP_TABLE default
9.97890231e-01
9.97878676e-01
9.97863505e-01
9.97869105e-01
9.97872893e-01
9.97871772e-01
9.97874903e-01
9.97882935e-01
9.97889639e-01
9.97897418e-01
9.97908642e-01
9.97921939e-01
9.97936087e-01
9.97952796e-01
9.97972242e-01
9.97993779e-01
9.98017551e-01
9.98044266e-01
9.98073734e-01
9.98105860e-01
9.98140899e-01
9.98179029e-01
9.98220093e-01
9.98264111e-01
9.98311136e-01
9.98361084e-01
9.98413778e-01
9.98469110e-01
9.98526904e-01
9.98586905e-01
9.98648833e-01
9.98712412e-01
9.98777308e-01
9.98843171e-01
9.98909648e-01
9.98976392e-01
9.99043055e-01
9.99109314e-01
9.99174877e-01
9.99239492e-01
9.99302950e-01
9.99365101e-01
9.99425855e-01
9.99485184e-01
9.99543127e-01
9.99599788e-01
9.99655336e-01
9.99709997e-01
9.99764055e-01
9.99817837e-01
9.99871709e-01
9.99926066e-01
9.99981317e-01
1.00003788e+00
1.00009616e+00
1.00015654e+00
1.00021938e+00
1.00028501e+00
1.00035368e+00
1.00042559e+00
1.00050088e+00
1.00057962e+00
1.00066180e+00
1.00074734e+00
1.00083608e+00
1.00092779e+00
1.00102221e+00
1.00111900e+00
1.00121778e+00
1.00131818e+00
1.00141977e+00
1.00152214e+00
1.00162490e+00
1.00172769e+00
1.00183016e+00
1.00193204e+00
1.00203307e+00
1.00213310e+00
1.00223201e+00
1.00232972e+00
1.00242625e+00
1.00252164e+00
1.00261598e+00
1.00270941e+00
1.00280207e+00
1.00289413e+00
1.00298577e+00
1.00307718e+00
1.00316850e+00
1.00325990e+00
1.00335150e+00
1.00344340e+00
1.00353567e+00
1.00362836e+00
1.00372148e+00
1.00381502e+00
1.00390895e+00
1.00400321e+00
1.00409771e+00
1.00419239e+00
1.00428715e+00
1.00438186e+00
1.00447641e+00
1.00457077e+00
1.00466472e+00
1.00475811e+00
1.00485093e+00
1.00494307e+00
1.00503407e+00
1.00512391e+00
1.00521271e+00
1.00529986e+00
1.00538462e+00
1.00546761e+00
1.00554861e+00
1.00562581e+00
1.00569900e+00
1.00577020e+00
1.00583698e+00
1.00589612e+00
1.00595122e+00
1.00600470e+00
1.00604725e+00
1.00607885e+00
1.00611270e+00
1.00614154e+00
1.00614076e+00
1.00613834e+00
9.97877659e-01
9.97875810e-01
9.97864607e-01
9.97866790e-01
9.97869454e-01
9.97871337e-01
9.97873984e-01
9.97880949e-01
9.97888292e-01
9.97897002e-01
9.97907710e-01
9.97921020e-01
9.97935714e-01
9.97952670e-01
9.97972009e-01
9.97993853e-01
9.98017958e-01
9.98044814e-01
9.98074414e-01
9.98106833e-01
9.98142073e-01
9.98180332e-01
9.98221553e-01
9.98265737e-01
9.98312845e-01
9.98362846e-01
9.98415583e-01
9.98470920e-01
9.98528662e-01
9.98588590e-01
9.98650420e-01
9.98713866e-01
9.98778604e-01
9.98844297e-01
9.98910594e-01
9.98977151e-01
9.99043629e-01
9.99109714e-01
9.99175116e-01
9.99239588e-01
9.99302928e-01
9.99364989e-01
9.99425682e-01
9.99484981e-01
9.99542925e-01
9.99599618e-01
9.99655226e-01
9.99709973e-01
9.99764140e-01
9.99818048e-01
9.99872061e-01
9.99926565e-01
9.99981967e-01
1.00003868e+00
1.00009709e+00
1.00015760e+00
1.00022056e+00
1.00028627e+00
1.00035500e+00
1.00042694e+00
1.00050224e+00
1.00058095e+00
1.00066307e+00
1.00074852e+00
1.00083714e+00
1.00092872e+00
1.00102299e+00
1.00111960e+00
1.00121822e+00
1.00131843e+00
1.00141985e+00
1.00152206e+00
1.00162468e+00
1.00172734e+00
1.00182971e+00
1.00193151e+00
1.00203250e+00
1.00213251e+00
1.00223142e+00
1.00232916e+00
1.00242574e+00
1.00252119e+00
1.00261561e+00
1.00270911e+00
1.00280184e+00
1.00289396e+00
1.00298565e+00
1.00307708e+00
1.00316842e+00
1.00325980e+00
1.00335135e+00
1.00344318e+00
1.00353535e+00
1.00362792e+00
1.00372089e+00
1.00381427e+00
1.00390802e+00
1.00400208e+00
1.00409639e+00
1.00419087e+00
1.00428542e+00
1.00437993e+00
1.00447430e+00
1.00456844e+00
1.00466218e+00
1.00475543e+00
1.00484808e+00
1.00493996e+00
1.00503079e+00
1.00512059e+00
1.00520908e+00
1.00529589e+00
1.00538067e+00
1.00546360e+00
1.00554389e+00
1.00562088e+00
1.00569452e+00
1.00576519e+00
1.00583069e+00
1.00589069e+00
1.00594654e+00
1.00599786e+00
1.00603946e+00
1.00607460e+00
1.00610707e+00
1.00613100e+00
1.00613531e+00
1.00614328e+00
9.97859989e-01
9.97861332e-01
9.97868749e-01
9.97863752e-01
9.97860803e-01
9.97867558e-01
9.97872905e-01
9.97876418e-01
9.97883979e-01
9.97894739e-01
9.97905400e-01
9.97917841e-01
9.97933455e-01
9.97951076e-01
9.97970313e-01
9.97992295e-01
9.98017065e-01
9.98044196e-01
9.98073944e-01
9.98106713e-01
9.98142350e-01
9.98180796e-01
9.98222226e-01
9.98266667e-01
9.98313961e-01
9.98364056e-01
9.98416897e-01
9.98472303e-01
9.98530050e-01
9.98589938e-01
9.98651713e-01
9.98715062e-01
9.98779669e-01
9.98845212e-01
9.98911345e-01
9.98977723e-01
9.99044018e-01
9.99109921e-01
9.99175147e-01
9.99239453e-01
9.99302643e-01
9.99364571e-01
9.99425152e-01
9.99484361e-01
9.99542237e-01
9.99598885e-01
9.99654469e-01
9.99709213e-01
9.99763393e-01
9.99817332e-01
9.99871387e-01
9.99925944e-01
9.99981404e-01
1.00003817e+00
1.00009665e+00
1.00015722e+00
1.00022023e+00
1.00028599e+00
1.00035476e+00
1.00042674e+00
1.00050206e+00
1.00058078e+00
1.00066291e+00
1.00074835e+00
1.00083696e+00
1.00092853e+00
1.00102278e+00
1.00111938e+00
1.00121798e+00
1.00131820e+00
1.00141962e+00
1.00152185e+00
1.00162451e+00
1.00172722e+00
1.00182965e+00
1.00193153e+00
1.00203261e+00
1.00213273e+00
1.00223174e+00
1.00232960e+00
1.00242629e+00
1.00252185e+00
1.00261635e+00
1.00270993e+00
1.00280270e+00
1.00289485e+00
1.00298653e+00
1.00307792e+00
1.00316917e+00
1.00326043e+00
1.00335182e+00
1.00344345e+00
1.00353539e+00
1.00362770e+00
1.00372038e+00
1.00381345e+00
1.00390686e+00
1.00400058e+00
1.00409455e+00
1.00418866e+00
1.00428283e+00
1.00437702e+00
1.00447106e+00
1.00456481e+00
1.00465825e+00
1.00475127e+00
1.00484357e+00
1.00493505e+00
1.00502578e+00
1.00511541e+00
1.00520335e+00
1.00528987e+00
1.00537498e+00
1.00545741e+00
1.00553674e+00
1.00561421e+00
1.00568863e+00
1.00575730e+00
1.00582201e+00
1.00588494e+00
1.00594035e+00
1.00598623e+00
1.00603115e+00
1.00607313e+00
1.00609711e+00
1.00611267e+00
1.00613764e+00
1.00614992e+00
9.97858115e-01
9.97855276e-01
9.97856630e-01
9.97855730e-01
9.97857702e-01
9.97861042e-01
9.97865495e-01
9.97871576e-01
9.97879713e-01
9.97889329e-01
9.97900834e-01
9.97914363e-01
9.97929985e-01
9.97947704e-01
9.97967790e-01
9.97990267e-01
9.98015248e-01
9.98042843e-01
9.98073173e-01
9.98106267e-01
9.98142218e-01
9.98181065e-01
9.98222822e-01
9.98267464e-01
9.98314965e-01
9.98365238e-01
9.98418164e-01
9.98473590e-01
9.98531331e-01
9.98591155e-01
9.98652803e-01
9.98715989e-01
9.98780403e-01
9.98845717e-01
9.98911598e-01
9.98977713e-01
9.99043739e-01
9.99109371e-01
9.99174337e-01
9.99238398e-01
9.99301362e-01
9.99363089e-01
9.99423496e-01
9.99482562e-01
9.99540326e-01
9.99596892e-01
9.99652425e-01
9.99707147e-01
9.99761332e-01
9.99815297e-01
9.99869399e-01
9.99924019e-01
9.99979556e-01
1.00003641e+00
1.00009498e+00
1.00015564e+00
1.00021875e+00
1.00028460e+00
1.00035345e+00
1.00042551e+00
1.00050090e+00
1.00057970e+00
1.00066189e+00
1.00074739e+00
1.00083607e+00
1.00092770e+00
1.00102202e+00
1.00111870e+00
1.00121739e+00
1.00131771e+00
1.00141925e+00
1.00152162e+00
1.00162442e+00
1.00172730e+00
1.00182993e+00
1.00193201e+00
1.00203330e+00
1.00213364e+00
1.00223287e+00
1.00233095e+00
1.00242784e+00
1.00252358e+00
1.00261824e+00
1.00271193e+00
1.00280479e+00
1.00289697e+00
1.00298863e+00
1.00307994e+00
1.00317106e+00
1.00326212e+00
1.00335327e+00
1.00344460e+00
1.00353619e+00
1.00362809e+00
1.00372034e+00
1.00381293e+00
1.00390585e+00
1.00399905e+00
1.00409248e+00
1.00418606e+00
1.00427973e+00
1.00437337e+00
1.00446690e+00
1.00456020e+00
1.00465317e+00
1.00474566e+00
1.00483758e+00
1.00492875e+00
1.00501899e+00
1.00510812e+00
1.00519596e+00
1.00528219e+00
1.00536656e+00
1.00544877e+00
1.00552846e+00
1.00560513e+00
1.00567852e+00
1.00574806e+00
1.00581326e+00
1.00587368e+00
1.00592900e+00
1.00597821e+00
1.00602140e+00
1.00605811e+00
1.00608736e+00
1.00610877e+00
1.00612659e+00
1.00613353e+00
9.97851608e-01
9.97848312e-01
9.97843188e-01
9.97847026e-01
9.97851892e-01
9.97852052e-01
9.97856436e-01
9.97865238e-01
9.97873443e-01
9.97882299e-01
9.97894845e-01
9.97909495e-01
9.97925168e-01
9.97943248e-01
9.97964246e-01
9.97987327e-01
9.98012659e-01
9.98040860e-01
9.98071840e-01
9.98105381e-01
9.98141745e-01
9.98181068e-01
9.98223210e-01
9.98268123e-01
9.98315867e-01
9.98366337e-01
9.98419359e-01
9.98474806e-01
9.98532517e-01
9.98592244e-01
9.98653723e-01
9.98716692e-01
9.98780848e-01
9.98845863e-01
9.98911418e-01
9.98977192e-01
9.99042869e-01
9.99108155e-01
9.99172784e-01
9.99236529e-01
9.99299201e-01
9.99360668e-01
9.99420850e-01
9.99479728e-01
9.99537344e-01
9.99593801e-01
9.99649264e-01
9.99703952e-01
9.99758136e-01
9.99812132e-01
9.99866290e-01
9.99920989e-01
9.99976622e-01
1.00003359e+00
1.00009228e+00
1.00015307e+00
1.00021630e+00
1.00028228e+00
1.00035126e+00
1.00042344e+00
1.00049896e+00
1.00057788e+00
1.00066019e+00
1.00074582e+00
1.00083462e+00
1.00092639e+00
1.00102085e+00
1.00111768e+00
1.00121655e+00
1.00131705e+00
1.00141880e+00
1.00152140e+00
1.00162446e+00
1.00172761e+00
1.00183052e+00
1.00193291e+00
1.00203453e+00
1.00213518e+00
1.00223473e+00
1.00233311e+00
1.00243029e+00
1.00252629e+00
1.00262116e+00
1.00271502e+00
1.00280799e+00
1.00290022e+00
1.00299186e+00
1.00308308e+00
1.00317402e+00
1.00326485e+00
1.00335567e+00
1.00344660e+00
1.00353773e+00
1.00362912e+00
1.00372079e+00
1.00381277e+00
1.00390504e+00
1.00399757e+00
1.00409030e+00
1.00418320e+00
1.00427618e+00
1.00436912e+00
1.00446197e+00
1.00455466e+00
1.00464701e+00
1.00473885e+00
1.00483022e+00
1.00492093e+00
1.00501056e+00
1.00509910e+00
1.00518666e+00
1.00527252e+00
1.00535609e+00
1.00543794e+00
1.00551780e+00
1.00559372e+00
1.00566596e+00
1.00573618e+00
1.00580186e+00
1.00585997e+00
1.00591468e+00
1.00596711e+00
1.00600905e+00
1.00604094e+00
1.00607428e+00
1.00610081e+00
1.00610938e+00
1.00611578e+00
9.97836743e-01
9.97836145e-01
9.97835802e-01
9.97836588e-01
9.97838167e-01
9.97842629e-01
9.97848860e-01
9.97855329e-01
9.97863900e-01
9.97875188e-01
9.97887896e-01
9.97902207e-01
9.97919076e-01
9.97938290e-01
9.97959498e-01
9.97983144e-01
9.98009479e-01
9.98038326e-01
9.98069740e-01
9.98103955e-01
9.98140967e-01
9.98180709e-01
9.98223240e-01
9.98268573e-01
9.98316602e-01
9.98367233e-01
9.98420379e-01
9.98475883e-01
9.98533537e-01
9.98593131e-01
9.98654429e-01
9.98717148e-01
9.98780991e-01
9.98845658e-01
9.98910837e-01
9.98976210e-01
9.99041478e-01
9.99106358e-01
9.99170595e-01
9.99233966e-01
9.99296294e-01
9.99357452e-01
9.99417364e-01
9.99476016e-01
9.99533450e-01
9.99589771e-01
9.99645142e-01
9.99699781e-01
9.99753955e-01
9.99807976e-01
9.99862192e-01
9.99916975e-01
9.99972715e-01
1.00002980e+00
1.00008863e+00
1.00014957e+00
1.00021296e+00
1.00027910e+00
1.00034824e+00
1.00042059e+00
1.00049627e+00
1.00057536e+00
1.00065784e+00
1.00074365e+00
1.00083264e+00
1.00092460e+00
1.00101928e+00
1.00111635e+00
1.00121547e+00
1.00131625e+00
1.00141830e+00
1.00152123e+00
1.00162464e+00
1.00172817e+00
1.00183148e+00
1.00193427e+00
1.00203630e+00
1.00213737e+00
1.00223734e+00
1.00233611e+00
1.00243365e+00
1.00252996e+00
1.00262511e+00
1.00271918e+00
1.00281229e+00
1.00290458e+00
1.00299619e+00
1.00308730e+00
1.00317804e+00
1.00326856e+00
1.00335900e+00
1.00344946e+00
1.00354003e+00
1.00363079e+00
1.00372177e+00
1.00381301e+00
1.00390448e+00
1.00399620e+00
1.00408810e+00
1.00418014e+00
1.00427226e+00
1.00436439e+00
1.00445643e+00
1.00454826e+00
1.00463984e+00
1.00473103e+00
1.00482162e+00
1.00491154e+00
1.00500069e+00
1.00508872e+00
1.00517536e+00
1.00526063e+00
1.00534420e+00
1.00542533e+00
1.00550391e+00
1.00558010e+00
1.00565279e+00
1.00572102e+00
1.00578557e+00
1.00584620e+00
1.00590045e+00
1.00594836e+00
1.00599195e+00
1.00602920e+00
1.00605770e+00
1.00607931e+00
1.00609457e+00
1.00610434e+00
9.97823037e-01
9.97821742e-01
9.97823946e-01
9.97823693e-01
9.97825074e-01
9.97831466e-01
9.97837634e-01
9.97843901e-01
9.97853823e-01
9.97866068e-01
9.97878903e-01
9.97893953e-01
9.97911958e-01
9.97931863e-01
9.97953674e-01
9.97978235e-01
9.98005440e-01
9.98034961e-01
9.98067082e-01
9.98102046e-01
9.98139685e-01
9.98179956e-01
9.98222989e-01
9.98268746e-01
9.98317079e-01
9.98367929e-01
9.98421215e-01
9.98476755e-01
9.98534347e-01
9.98593801e-01
9.98654881e-01
9.98717305e-01
9.98780796e-01
9.98845066e-01
9.98909810e-01
9.98974725e-01
9.99039526e-01
9.99103943e-01
9.99167728e-01
9.99230673e-01
9.99292608e-01
9.99353413e-01
9.99413017e-01
9.99471411e-01
9.99528639e-01
9.99584805e-01
9.99640073e-01
9.99694657e-01
9.99748822e-01
9.99802876e-01
9.99857161e-01
9.99912045e-01
9.99967912e-01
1.00002515e+00
1.00008415e+00
1.00014526e+00
1.00020884e+00
1.00027517e+00
1.00034452e+00
1.00041707e+00
1.00049296e+00
1.00057226e+00
1.00065496e+00
1.00074100e+00
1.00083023e+00
1.00092245e+00
1.00101741e+00
1.00111478e+00
1.00121422e+00
1.00131535e+00
1.00141779e+00
1.00152113e+00
1.00162498e+00
1.00172897e+00
1.00183277e+00
1.00193606e+00
1.00203861e+00
1.00214019e+00
1.00224065e+00
1.00233989e+00
1.00243787e+00
1.00253458e+00
1.00263005e+00
1.00272438e+00
1.00281767e+00
1.00291004e+00
1.00300164e+00
1.00309263e+00
1.00318314e+00
1.00327333e+00
1.00336333e+00
1.00345325e+00
1.00354318e+00
1.00363322e+00
1.00372340e+00
1.00381378e+00
1.00390434e+00
1.00399509e+00
1.00408603e+00
1.00417707e+00
1.00426819e+00
1.00435933e+00
1.00445041e+00
1.00454129e+00
1.00463193e+00
1.00472226e+00
1.00481203e+00
1.00490107e+00
1.00498943e+00
1.00507683e+00
1.00516272e+00
1.00524715e+00
1.00533022e+00
1.00541091e+00
1.00548858e+00
1.00556408e+00
1.00563681e+00
1.00570446e+00
1.00576774e+00
1.00582846e+00
1.00588319e+00
1.00592960e+00
1.00597253e+00
1.00601147e+00
1.00603856e+00
1.00605837e+00
1.00607691e+00
1.00608558e+00
9.97810216e-01
9.97807624e-01
9.97806687e-01
9.97808909e-01
9.97812984e-01
9.97817046e-01
9.97823000e-01
9.97832313e-01
9.97842736e-01
9.97854136e-01
9.97868398e-01
9.97885163e-01
9.97903393e-01
9.97923818e-01
9.97947056e-01
9.97972596e-01
9.98000336e-01
9.98030765e-01
9.98063911e-01
9.98099546e-01
9.98137786e-01
9.98178773e-01
9.98222385e-01
9.98268524e-01
9.98317205e-01
9.98368343e-01
9.98421760e-01
9.98477314e-01
9.98534855e-01
9.98594160e-01
9.98654981e-01
9.98717079e-01
9.98780187e-01
9.98844015e-01
9.98908273e-01
9.98972685e-01
9.99036972e-01
9.99100875e-01
9.99164162e-01
9.99226637e-01
9.99288140e-01
9.99348555e-01
9.99407823e-01
9.99465934e-01
9.99522938e-01
9.99578938e-01
9.99634097e-01
9.99688627e-01
9.99742790e-01
9.99796889e-01
9.99851261e-01
9.99906267e-01
9.99962288e-01
1.00001971e+00
1.00007890e+00
1.00014023e+00
1.00020403e+00
1.00027059e+00
1.00034018e+00
1.00041298e+00
1.00048912e+00
1.00056867e+00
1.00065165e+00
1.00073796e+00
1.00082749e+00
1.00092002e+00
1.00101531e+00
1.00111304e+00
1.00121288e+00
1.00131443e+00
1.00141733e+00
1.00152115e+00
1.00162552e+00
1.00173007e+00
1.00183444e+00
1.00193833e+00
1.00204147e+00
1.00214364e+00
1.00224469e+00
1.00234449e+00
1.00244298e+00
1.00254015e+00
1.00263602e+00
1.00273066e+00
1.00282416e+00
1.00291665e+00
1.00300825e+00
1.00309912e+00
1.00318940e+00
1.00327924e+00
1.00336875e+00
1.00345808e+00
1.00354732e+00
1.00363656e+00
1.00372585e+00
1.00381526e+00
1.00390481e+00
1.00399449e+00
1.00408430e+00
1.00417424e+00
1.00426424e+00
1.00435423e+00
1.00444418e+00
1.00453404e+00
1.00462361e+00
1.00471281e+00
1.00480165e+00
1.00488988e+00
1.00497717e+00
1.00506355e+00
1.00514894e+00
1.00523266e+00
1.00531438e+00
1.00539448e+00
1.00547231e+00
1.00554653e+00
1.00561759e+00
1.00568605e+00
1.00574975e+00
1.00580748e+00
1.00586146e+00
1.00591108e+00
1.00595247e+00
1.00598693e+00
1.00601719e+00
1.00604019e+00
1.00605351e+00
1.00605999e+00
9.97792679e-01
9.97790882e-01
9.97789848e-01
9.97792508e-01
9.97796772e-01
9.97801170e-01
9.97808461e-01
9.97818295e-01
9.97828875e-01
9.97841515e-01
9.97857033e-01
9.97874318e-01
9.97893383e-01
9.97915117e-01
9.97939345e-01
9.97965667e-01
9.97994446e-01
9.98025930e-01
9.98059898e-01
9.98096323e-01
9.98135392e-01
9.98177074e-01
9.98221234e-01
9.98267867e-01
9.98316953e-01
9.98368346e-01
9.98421903e-01
9.98477507e-01
9.98534981e-01
9.98594103e-01
9.98654655e-01
9.98716406e-01
9.98779090e-01
9.98842433e-01
9.98906172e-01
9.98970037e-01
9.99033764e-01
9.99097112e-01
9.99159864e-01
9.99221833e-01
9.99282869e-01
9.99342870e-01
9.99401779e-01
9.99459593e-01
9.99516363e-01
9.99572196e-01
9.99627251e-01
9.99681738e-01
9.99735916e-01
9.99790081e-01
9.99844566e-01
9.99899727e-01
9.99955935e-01
1.00001357e+00
1.00007300e+00
1.00013458e+00
1.00019865e+00
1.00026549e+00
1.00033536e+00
1.00040845e+00
1.00048488e+00
1.00056474e+00
1.00064803e+00
1.00073467e+00
1.00082454e+00
1.00091743e+00
1.00101311e+00
1.00111126e+00
1.00121154e+00
1.00131358e+00
1.00141699e+00
1.00152138e+00
1.00162634e+00
1.00173151e+00
1.00183653e+00
1.00194109e+00
1.00204491e+00
1.00214776e+00
1.00224947e+00
1.00234990e+00
1.00244898e+00
1.00254668e+00
1.00264301e+00
1.00273802e+00
1.00283179e+00
1.00292444e+00
1.00301608e+00
1.00310685e+00
1.00319690e+00
1.00328637e+00
1.00337539e+00
1.00346409e+00
1.00355258e+00
1.00364096e+00
1.00372930e+00
1.00381766e+00
1.00390608e+00
1.00399460e+00
1.00408319e+00
1.00417187e+00
1.00426063e+00
1.00434937e+00
1.00443806e+00
1.00452667e+00
1.00461509e+00
1.00470314e+00
1.00479077e+00
1.00487794e+00
1.00496429e+00
1.00504958e+00
1.00513389e+00
1.00521687e+00
1.00529782e+00
1.00537673e+00
1.00545375e+00
1.00552770e+00
1.00559783e+00
1.00566500e+00
1.00572855e+00
1.00578625e+00
1.00583892e+00
1.00588778e+00
1.00592957e+00
1.00596348e+00
1.00599320e+00
1.00601599e+00
1.00602863e+00
1.00603604e+00
9.97772380e-01
9.97771363e-01
9.97772487e-01
9.97774150e-01
9.97777619e-01
9.97784392e-01
9.97792686e-01
9.97801695e-01
9.97813516e-01
9.97828125e-01
9.97843954e-01
9.97861732e-01
9.97882478e-01
9.97905445e-01
9.97930277e-01
9.97957707e-01
9.97987837e-01
9.98020224e-01
9.98054996e-01
9.98092440e-01
9.98132399e-01
9.98174717e-01
9.98219494e-01
9.98266714e-01
9.98316194e-01
9.98367833e-01
9.98421570e-01
9.98477232e-01
9.98534614e-01
9.98593544e-01
9.98653822e-01
9.98715197e-01
9.98777423e-01
9.98840259e-01
9.98903448e-01
9.98966730e-01
9.99029864e-01
9.99092627e-01
9.99154813e-01
9.99216248e-01
9.99276796e-01
9.99336364e-01
9.99394902e-01
9.99452412e-01
9.99508949e-01
9.99564620e-01
9.99619582e-01
9.99674045e-01
9.99728260e-01
9.99782521e-01
9.99837153e-01
9.99892504e-01
9.99948941e-01
1.00000683e+00
1.00006655e+00
1.00012843e+00
1.00019281e+00
1.00025998e+00
1.00033018e+00
1.00040360e+00
1.00048038e+00
1.00056059e+00
1.00064423e+00
1.00073124e+00
1.00082150e+00
1.00091480e+00
1.00101091e+00
1.00110953e+00
1.00121031e+00
1.00131289e+00
1.00141688e+00
1.00152189e+00
1.00162751e+00
1.00173337e+00
1.00183911e+00
1.00194441e+00
1.00204899e+00
1.00215260e+00
1.00225504e+00
1.00235619e+00
1.00245593e+00
1.00255424e+00
1.00265109e+00
1.00274653e+00
1.00284063e+00
1.00293347e+00
1.00302518e+00
1.00311589e+00
1.00320573e+00
1.00329484e+00
1.00338336e+00
1.00347142e+00
1.00355913e+00
1.00364660e+00
1.00373393e+00
1.00382118e+00
1.00390840e+00
1.00399565e+00
1.00408295e+00
1.00417027e+00
1.00425763e+00
1.00434502e+00
1.00443236e+00
1.00451956e+00
1.00460663e+00
1.00469348e+00
1.00477983e+00
1.00486562e+00
1.00495090e+00
1.00503524e+00
1.00511819e+00
1.00519995e+00
1.00528038e+00
1.00535837e+00
1.00543369e+00
1.00550704e+00
1.00557733e+00
1.00564285e+00
1.00570467e+00
1.00576334e+00
1.00581593e+00
1.00586175e+00
1.00590361e+00
1.00593990e+00
1.00596722e+00
1.00598754e+00
1.00600312e+00
1.00601135e+00
9.97751930e-01
9.97750444e-01
9.97751528e-01
9.97753993e-01
9.97758458e-01
9.97765480e-01
9.97773952e-01
9.97784374e-01
9.97797469e-01
9.97812409e-01
9.97829187e-01
9.97848601e-01
9.97870368e-01
9.97894109e-01
9.97920274e-01
9.97949048e-01
9.97980109e-01
9.98013492e-01
9.98049432e-01
9.98087841e-01
9.98128570e-01
9.98171684e-01
9.98217184e-01
9.98264923e-01
9.98314801e-01
9.98366768e-01
9.98420685e-01
9.98476369e-01
9.98533671e-01
9.98592419e-01
9.98652392e-01
9.98713367e-01
9.98775126e-01
9.98837431e-01
9.98900037e-01
9.98962710e-01
9.99025229e-01
9.99087382e-01
9.99148978e-01
9.99209862e-01
9.99269909e-01
9.99329034e-01
9.99387196e-01
9.99444405e-01
9.99500716e-01
9.99556239e-01
9.99611130e-01
9.99665594e-01
9.99719879e-01
9.99774273e-01
9.99829092e-01
9.99884680e-01
9.99941394e-01
9.99999595e-01
1.00005964e+00
1.00012188e+00
1.00018663e+00
1.00025417e+00
1.00032475e+00
1.00039856e+00
1.00047573e+00
1.00055634e+00
1.00064038e+00
1.00072781e+00
1.00081850e+00
1.00091226e+00
1.00100885e+00
1.00110798e+00
1.00120931e+00
1.00131248e+00
1.00141710e+00
1.00152277e+00
1.00162911e+00
1.00173572e+00
1.00184225e+00
1.00194836e+00
1.00205376e+00
1.00215819e+00
1.00226145e+00
1.00236337e+00
1.00246386e+00
1.00256284e+00
1.00266029e+00
1.00275623e+00
1.00285071e+00
1.00294381e+00
1.00303564e+00
1.00312632e+00
1.00321598e+00
1.00330475e+00
1.00339278e+00
1.00348019e+00
1.00356711e+00
1.00365365e+00
1.00373993e+00
1.00382601e+00
1.00391198e+00
1.00399788e+00
1.00408377e+00
1.00416967e+00
1.00425554e+00
1.00434141e+00
1.00442728e+00
1.00451304e+00
1.00459859e+00
1.00468396e+00
1.00476901e+00
1.00485347e+00
1.00493726e+00
1.00502036e+00
1.00510232e+00
1.00518274e+00
1.00526173e+00
1.00533897e+00
1.00541353e+00
1.00548529e+00
1.00555447e+00
1.00561993e+00
1.00568079e+00
1.00573770e+00
1.00579007e+00
1.00583618e+00
1.00587668e+00
1.00591178e+00
1.00593942e+00
1.00596013e+00
1.00597489e+00
1.00598190e+00
9.97729740e-01
9.97728293e-01
9.97728653e-01
9.97732223e-01
9.97737867e-01
9.97744609e-01
9.97753816e-01
9.97765991e-01
9.97779656e-01
9.97795103e-01
9.97813527e-01
9.97834278e-01
9.97856746e-01
9.97881726e-01
9.97909434e-01
9.97939268e-01
9.97971311e-01
9.98005973e-01
9.98043062e-01
9.98082337e-01
9.98123959e-01
9.98167965e-01
9.98214140e-01
9.98262398e-01
9.98312746e-01
9.98365048e-01
9.98419115e-01
9.98474836e-01
9.98532074e-01
9.98590620e-01
9.98650271e-01
9.98710843e-01
9.98772121e-01
9.98833870e-01
9.98895876e-01
9.98957928e-01
9.99019813e-01
9.99081337e-01
9.99142332e-01
9.99202656e-01
9.99262194e-01
9.99320875e-01
9.99378667e-01
9.99435583e-01
9.99491685e-01
9.99547081e-01
9.99601928e-01
9.99656427e-01
9.99710821e-01
9.99765391e-01
9.99820448e-01
9.99876324e-01
9.99933368e-01
9.99991936e-01
1.00005238e+00
1.00011503e+00
1.00018020e+00
1.00024818e+00
1.00031919e+00
1.00039344e+00
1.00047106e+00
1.00055211e+00
1.00063661e+00
1.00072450e+00
1.00081566e+00
1.00090992e+00
1.00100703e+00
1.00110672e+00
1.00120864e+00
1.00131244e+00
1.00141773e+00
1.00152413e+00
1.00163123e+00
1.00173865e+00
1.00184602e+00
1.00195300e+00
1.00205928e+00
1.00216461e+00
1.00226875e+00
1.00237153e+00
1.00247283e+00
1.00257255e+00
1.00267067e+00
1.00276718e+00
1.00286211e+00
1.00295553e+00
1.00304754e+00
1.00313824e+00
1.00322776e+00
1.00331623e+00
1.00340378e+00
1.00349056e+00
1.00357669e+00
1.00366230e+00
1.00374749e+00
1.00383237e+00
1.00391703e+00
1.00400154e+00
1.00408594e+00
1.00417030e+00
1.00425463e+00
1.00433890e+00
1.00442312e+00
1.00450731e+00
1.00459132e+00
1.00467504e+00
1.00475853e+00
1.00484163e+00
1.00492394e+00
1.00500542e+00
1.00508614e+00
1.00516549e+00
1.00524290e+00
1.00531869e+00
1.00539262e+00
1.00546330e+00
1.00553064e+00
1.00559543e+00
1.00565617e+00
1.00571133e+00
1.00576231e+00
1.00580909e+00
1.00584883e+00
1.00588183e+00
1.00591005e+00
1.00593150e+00
1.00594427e+00
1.00595078e+00
9.97704885e-01
9.97704098e-01
9.97705348e-01
9.97708955e-01
9.97714745e-01
9.97722706e-01
9.97733092e-01
9.97745570e-01
9.97760104e-01
9.97777251e-01
9.97796727e-01
9.97818194e-01
9.97842130e-01
9.97868649e-01
9.97897336e-01
9.97928281e-01
9.97961768e-01
9.97997611e-01
9.98035633e-01
9.98075970e-01
9.98118625e-01
9.98163403e-01
9.98210238e-01
9.98259133e-01
9.98309954e-01
9.98362534e-01
9.98416781e-01
9.98472573e-01
9.98529719e-01
9.98588043e-01
9.98647385e-01
9.98707549e-01
9.98768321e-01
9.98829506e-01
9.98890909e-01
9.98952324e-01
9.99013561e-01
9.99074452e-01
9.99134842e-01
9.99194601e-01
9.99253633e-01
9.99311877e-01
9.99369310e-01
9.99425951e-01
9.99481866e-01
9.99537165e-01
9.99592003e-01
9.99646577e-01
9.99701127e-01
9.99755924e-01
9.99811272e-01
9.99867496e-01
9.99924933e-01
9.99983931e-01
1.00004483e+00
1.00010796e+00
1.00017362e+00
1.00024209e+00
1.00031361e+00
1.00038836e+00
1.00046647e+00
1.00054803e+00
1.00063303e+00
1.00072143e+00
1.00081312e+00
1.00090791e+00
1.00100559e+00
1.00110587e+00
1.00120842e+00
1.00131289e+00
1.00141890e+00
1.00152606e+00
1.00163398e+00
1.00174225e+00
1.00185051e+00
1.00195842e+00
1.00206565e+00
1.00217192e+00
1.00227701e+00
1.00238072e+00
1.00248289e+00
1.00258344e+00
1.00268229e+00
1.00277944e+00
1.00287489e+00
1.00296871e+00
1.00306095e+00
1.00315173e+00
1.00324116e+00
1.00332937e+00
1.00341649e+00
1.00350265e+00
1.00358799e+00
1.00367266e+00
1.00375677e+00
1.00384042e+00
1.00392373e+00
1.00400679e+00
1.00408967e+00
1.00417240e+00
1.00425506e+00
1.00433767e+00
1.00442017e+00
1.00450258e+00
1.00458492e+00
1.00466702e+00
1.00474875e+00
1.00483014e+00
1.00491102e+00
1.00499100e+00
1.00506993e+00
1.00514787e+00
1.00522424e+00
1.00529846e+00
1.00537065e+00
1.00544056e+00
1.00550709e+00
1.00556999e+00
1.00562953e+00
1.00568469e+00
1.00573457e+00
1.00577952e+00
1.00581910e+00
1.00585235e+00
1.00587930e+00
1.00589959e+00
1.00591302e+00
1.00592003e+00
9.97678942e-01
9.97678430e-01
9.97680493e-01
9.97684308e-01
9.97690491e-01
9.97699632e-01
9.97710806e-01
9.97723856e-01
9.97739735e-01
9.97758174e-01
9.97778463e-01
9.97801188e-01
9.97826677e-01
9.97854328e-01
9.97884124e-01
9.97916511e-01
9.97951295e-01
9.97988172e-01
9.98027318e-01
9.98068801e-01
9.98112366e-01
9.98157921e-01
9.98205520e-01
9.98255034e-01
9.98306274e-01
9.98359169e-01
9.98413625e-01
9.98469456e-01
9.98526499e-01
9.98584621e-01
9.98643649e-01
9.98703383e-01
9.98763650e-01
9.98824273e-01
9.98885062e-01
9.98945833e-01
9.99006425e-01
9.99066683e-01
9.99126468e-01
9.99185668e-01
9.99244205e-01
9.99302026e-01
9.99359118e-01
9.99415508e-01
9.99471267e-01
9.99526504e-01
9.99581373e-01
9.99636070e-01
9.99690827e-01
9.99745908e-01
9.99801609e-01
9.99858244e-01
9.99916143e-01
9.99975640e-01
1.00003707e+00
1.00010074e+00
1.00016697e+00
1.00023601e+00
1.00030809e+00
1.00038340e+00
1.00046208e+00
1.00054419e+00
1.00062975e+00
1.00071871e+00
1.00081097e+00
1.00090635e+00
1.00100463e+00
1.00110554e+00
1.00120877e+00
1.00131395e+00
1.00142072e+00
1.00152868e+00
1.00163745e+00
1.00174662e+00
1.00185582e+00
1.00196470e+00
1.00207293e+00
1.00218022e+00
1.00228632e+00
1.00239101e+00
1.00249414e+00
1.00259557e+00
1.00269524e+00
1.00279310e+00
1.00288915e+00
1.00298342e+00
1.00307597e+00
1.00316689e+00
1.00325629e+00
1.00334428e+00
1.00343101e+00
1.00351659e+00
1.00360118e+00
1.00368492e+00
1.00376793e+00
1.00385035e+00
1.00393229e+00
1.00401385e+00
1.00409514e+00
1.00417621e+00
1.00425711e+00
1.00433793e+00
1.00441867e+00
1.00449924e+00
1.00457968e+00
1.00466002e+00
1.00474003e+00
1.00481954e+00
1.00489863e+00
1.00497710e+00
1.00505440e+00
1.00513048e+00
1.00520542e+00
1.00527844e+00
1.00534891e+00
1.00541721e+00
1.00548291e+00
1.00554461e+00
1.00560240e+00
1.00565677e+00
1.00570614e+00
1.00574957e+00
1.00578825e+00
1.00582154e+00
1.00584753e+00
1.00586690e+00
1.00588076e+00
1.00588754e+00
9.97652294e-01
9.97651802e-01
9.97653836e-01
9.97658537e-01
9.97665697e-01
9.97675155e-01
9.97687006e-01
9.97701529e-01
9.97718476e-01
9.97737587e-01
9.97759246e-01
9.97783549e-01
9.97810046e-01
9.97838819e-01
9.97870178e-01
9.97903878e-01
9.97939689e-01
9.97977800e-01
9.98018212e-01
9.98060664e-01
9.98105100e-01
9.98151569e-01
9.98199916e-01
9.98249963e-01
9.98301657e-01
9.98354908e-01
9.98409532e-01
9.98465382e-01
9.98522348e-01
9.98580268e-01
9.98638959e-01
9.98698268e-01
9.98758039e-01
9.98818094e-01
9.98878264e-01
9.98938400e-01
9.98998352e-01
9.99057980e-01
9.99117169e-01
9.99175827e-01
9.99233884e-01
9.99291301e-01
9.99348079e-01
9.99404250e-01
9.99459887e-01
9.99515104e-01
9.99570052e-01
9.99624924e-01
9.99679945e-01
9.99735374e-01
9.99791494e-01
9.99848611e-01
9.99907044e-01
9.99967116e-01
1.00002915e+00
1.00009345e+00
1.00016031e+00
1.00022999e+00
1.00030272e+00
1.00037866e+00
1.00045797e+00
1.00054070e+00
1.00062687e+00
1.00071645e+00
1.00080933e+00
1.00090534e+00
1.00100428e+00
1.00110586e+00
1.00120980e+00
1.00131573e+00
1.00142329e+00
1.00153210e+00
1.00164175e+00
1.00175187e+00
1.00186206e+00
1.00197196e+00
1.00208124e+00
1.00218960e+00
1.00229676e+00
1.00240250e+00
1.00250664e+00
1.00260904e+00
1.00270958e+00
1.00280822e+00
1.00290493e+00
1.00299973e+00
1.00309266e+00
1.00318379e+00
1.00327322e+00
1.00336106e+00
1.00344743e+00
1.00353248e+00
1.00361634e+00
1.00369917e+00
1.00378109e+00
1.00386227e+00
1.00394282e+00
1.00402285e+00
1.00410249e+00
1.00418184e+00
1.00426096e+00
1.00433987e+00
1.00441868e+00
1.00449738e+00
1.00457588e+00
1.00465418e+00
1.00473232e+00
1.00481005e+00
1.00488715e+00
1.00496367e+00
1.00503943e+00
1.00511384e+00
1.00518675e+00
1.00525822e+00
1.00532758e+00
1.00539410e+00
1.00545795e+00
1.00551885e+00
1.00557565e+00
1.00562809e+00
1.00567638e+00
1.00571968e+00
1.00575718e+00
1.00578894e+00
1.00581489e+00
1.00583442e+00
1.00584720e+00
1.00585326e+00
9.97624327e-01
9.97624243e-01
9.97626535e-01
9.97631815e-01
9.97639678e-01
9.97649783e-01
9.97662612e-01
9.97678208e-01
9.97696024e-01
9.97716295e-01
9.97739357e-01
9.97764777e-01
9.97792421e-01
9.97822656e-01
9.97855342e-01
9.97890151e-01
9.97927224e-01
9.97966632e-01
9.98008098e-01
9.98051516e-01
9.98096955e-01
9.98144277e-01
9.98193276e-01
9.98243902e-01
9.98296083e-01
9.98349631e-01
9.98404402e-01
9.98460304e-01
9.98517187e-01
9.98574877e-01
9.98633239e-01
9.98692136e-01
9.98751404e-01
9.98810888e-01
9.98870455e-01
9.98929965e-01
9.98989282e-01
9.99048295e-01
9.99106907e-01
9.99165040e-01
9.99222639e-01
9.99279683e-01
9.99336178e-01
9.99392166e-01
9.99447723e-01
9.99502967e-01
9.99558047e-01
9.99613151e-01
9.99668499e-01
9.99724342e-01
9.99780954e-01
9.99838629e-01
9.99897674e-01
9.99958401e-01
1.00002112e+00
1.00008613e+00
1.00015371e+00
1.00022411e+00
1.00029756e+00
1.00037421e+00
1.00045422e+00
1.00053764e+00
1.00062449e+00
1.00071475e+00
1.00080830e+00