# vtk DataFile Version 2.0
LBM Flow Field - Timestep 2290
ASCII
DATASET STRUCTURED_POINTS
DIMENSIONS 128 128 1
ORIGIN 0.0 0.0 0.0
SPACING 1.0 1.0 1.0
POINT_DATA 16384
SCALARS density double 1
LOOKUP_TABLE default
1.00069548e+00
1.00071441e+00
1.00074093e+00
1.00075834e+00
1.00078564e+00
1.00082065e+00
1.00085969e+00
1.00090258e+00
1.00095101e+00
1.00100331e+00
1.00105939e+00
1.00111853e+00
1.00118017e+00
1.00124370e+00
1.00130864e+00
1.00137406e+00
1.00143931e+00
1.00150382e+00
1.00156687e+00
1.00162775e+00
1.00168593e+00
1.00174087e+00
1.00179208e+00
1.00183914e+00
1.00188178e+00
1.00191974e+00
1.00195289e+00
1.00198117e+00
1.00200461e+00
1.00202331e+00
1.00203741e+00
1.00204714e+00
1.00205272e+00
1.00205442e+00
1.00205248e+00
1.00204717e+00
1.00203870e+00
1.00202726e+00
1.00201300e+00
1.00199604e+00
1.00197643e+00
1.00195420e+00
1.00192934e+00
1.00190183e+00
1.00187161e+00
1.00183864e+00
1.00180290e+00
1.00176437e+00
1.00172307e+00
1.00167906e+00
1.00163245e+00
1.00158340e+00
1.00153210e+00
1.00147881e+00
1.00142381e+00
1.00136743e+00
1.00131003e+00
1.00125201e+00
1.00119376e+00
1.00113571e+00
1.00107828e+00
1.00102190e+00
1.00096698e+00
1.00091391e+00
1.00086306e+00
1.00081474e+00
1.00076924e+00
1.00072675e+00
1.00068744e+00
1.00065136e+00
1.00061850e+00
1.00058877e+00
1.00056199e+00
1.00053791e+00
1.00051621e+00
1.00049651e+00
1.00047841e+00
1.00046145e+00
1.00044521e+00
1.00042925e+00
1.00041318e+00
1.00039667e+00
1.00037944e+00
1.00036130e+00
1.00034216e+00
1.00032202e+00
1.00030099e+00
1.00027928e+00
1.00025718e+00
1.00023510e+00
1.00021351e+00
1.00019293e+00
1.00017394e+00
1.00015712e+00
1.00014305e+00
1.00013227e+00
1.00012530e+00
1.00012253e+00
1.00012427e+00
1.00013074e+00
1.00014202e+00
1.00015802e+00
1.00017859e+00
1.00020346e+00
1.00023219e+00
1.00026425e+00
1.00029919e+00
1.00033635e+00
1.00037506e+00
1.00041472e+00
1.00045485e+00
1.00049473e+00
1.00053392e+00
1.00057195e+00
1.00060849e+00
1.00064315e+00
1.00067602e+00
1.00070610e+00
1.00073389e+00
1.00076002e+00
1.00078363e+00
1.00080217e+00
1.00082104e+00
1.00084029e+00
1.00085160e+00
1.00085594e+00
1.00087888e+00
1.00089527e+00
1.00071486e+00
1.00072518e+00
1.00075030e+00
1.00077002e+00
1.00079760e+00
1.00083050e+00
1.00086952e+00
1.00091212e+00
1.00095986e+00
1.00101121e+00
1.00106654e+00
1.00112471e+00
1.00118543e+00
1.00124790e+00
1.00131173e+00
1.00137602e+00
1.00144019e+00
1.00150355e+00
1.00156548e+00
1.00162531e+00
1.00168249e+00
1.00173648e+00
1.00178683e+00
1.00183313e+00
1.00187511e+00
1.00191252e+00
1.00194524e+00
1.00197320e+00
1.00199644e+00
1.00201503e+00
1.00202913e+00
1.00203893e+00
1.00204467e+00
1.00204657e+00
1.00204489e+00
1.00203985e+00
1.00203169e+00
1.00202056e+00
1.00200663e+00
1.00198998e+00
1.00197068e+00
1.00194876e+00
1.00192421e+00
1.00189700e+00
1.00186710e+00
1.00183446e+00
1.00179907e+00
1.00176091e+00
1.00172001e+00
1.00167644e+00
1.00163031e+00
1.00158176e+00
1.00153100e+00
1.00147827e+00
1.00142386e+00
1.00136808e+00
1.00131129e+00
1.00125387e+00
1.00119622e+00
1.00113875e+00
1.00108187e+00
1.00102600e+00
1.00097153e+00
1.00091886e+00
1.00086833e+00
1.00082026e+00
1.00077491e+00
1.00073250e+00
1.00069316e+00
1.00065696e+00
1.00062390e+00
1.00059389e+00
1.00056677e+00
1.00054229e+00
1.00052014e+00
1.00049998e+00
1.00048141e+00
1.00046401e+00
1.00044735e+00
1.00043103e+00
1.00041466e+00
1.00039793e+00
1.00038056e+00
1.00036238e+00
1.00034330e+00
1.00032331e+00
1.00030252e+00
1.00028113e+00
1.00025944e+00
1.00023782e+00
1.00021673e+00
1.00019668e+00
1.00017822e+00
1.00016191e+00
1.00014831e+00
1.00013795e+00
1.00013130e+00
1.00012875e+00
1.00013062e+00
1.00013708e+00
1.00014822e+00
1.00016396e+00
1.00018417e+00
1.00020853e+00
1.00023667e+00
1.00026808e+00
1.00030231e+00
1.00033869e+00
1.00037664e+00
1.00041555e+00
1.00045494e+00
1.00049408e+00
1.00053264e+00
1.00057001e+00
1.00060612e+00
1.00064023e+00
1.00067258e+00
1.00070229e+00
1.00073029e+00
1.00075556e+00
1.00077861e+00
1.00079792e+00
1.00081761e+00
1.00083369e+00
1.00084574e+00
1.00085417e+00
1.00087482e+00
1.00088007e+00
1.00074260e+00
1.00075119e+00
1.00076081e+00
1.00078526e+00
1.00081501e+00
1.00084565e+00
1.00088289e+00
1.00092548e+00
1.00097206e+00
1.00102245e+00
1.00107644e+00
1.00113326e+00
1.00119266e+00
1.00125381e+00
1.00131600e+00
1.00137875e+00
1.00144144e+00
1.00150326e+00
1.00156362e+00
1.00162201e+00
1.00167780e+00
1.00173047e+00
1.00177960e+00
1.00182485e+00
1.00186588e+00
1.00190249e+00
1.00193456e+00
1.00196203e+00
1.00198492e+00
1.00200331e+00
1.00201736e+00
1.00202723e+00
1.00203313e+00
1.00203531e+00
1.00203398e+00
1.00202937e+00
1.00202167e+00
1.00201105e+00
1.00199764e+00
1.00198154e+00
1.00196281e+00
1.00194145e+00
1.00191747e+00
1.00189084e+00
1.00186153e+00
1.00182949e+00
1.00179470e+00
1.00175717e+00
1.00171691e+00
1.00167401e+00
1.00162856e+00
1.00158071e+00
1.00153067e+00
1.00147867e+00
1.00142500e+00
1.00136996e+00
1.00131391e+00
1.00125721e+00
1.00120026e+00
1.00114345e+00
1.00108719e+00
1.00103189e+00
1.00097793e+00
1.00092570e+00
1.00087552e+00
1.00082772e+00
1.00078255e+00
1.00074021e+00
1.00070086e+00
1.00066455e+00
1.00063130e+00
1.00060102e+00
1.00057355e+00
1.00054868e+00
1.00052610e+00
1.00050550e+00
1.00048647e+00
1.00046863e+00
1.00045157e+00
1.00043488e+00
1.00041822e+00
1.00040126e+00
1.00038375e+00
1.00036552e+00
1.00034646e+00
1.00032659e+00
1.00030600e+00
1.00028489e+00
1.00026354e+00
1.00024233e+00
1.00022168e+00
1.00020210e+00
1.00018412e+00
1.00016827e+00
1.00015510e+00
1.00014511e+00
1.00013875e+00
1.00013642e+00
1.00013839e+00
1.00014483e+00
1.00015582e+00
1.00017133e+00
1.00019117e+00
1.00021501e+00
1.00024256e+00
1.00027335e+00
1.00030679e+00
1.00034232e+00
1.00037949e+00
1.00041759e+00
1.00045603e+00
1.00049436e+00
1.00053214e+00
1.00056879e+00
1.00060410e+00
1.00063759e+00
1.00066908e+00
1.00069873e+00
1.00072621e+00
1.00075022e+00
1.00077273e+00
1.00079457e+00
1.00081159e+00
1.00082343e+00
1.00084097e+00
1.00085692e+00
1.00085653e+00
1.00085928e+00
1.00076030e+00
1.00077067e+00
1.00078539e+00
1.00080815e+00
1.00083348e+00
1.00086440e+00
1.00090133e+00
1.00094239e+00
1.00098731e+00
1.00103640e+00
1.00108887e+00
1.00114406e+00
1.00120157e+00
1.00126082e+00
1.00132115e+00
1.00138195e+00
1.00144259e+00
1.00150244e+00
1.00156092e+00
1.00161742e+00
1.00167143e+00
1.00172247e+00
1.00177011e+00
1.00181400e+00
1.00185387e+00
1.00188952e+00
1.00192081e+00
1.00194771e+00
1.00197022e+00
1.00198842e+00
1.00200245e+00
1.00201246e+00
1.00201866e+00
1.00202125e+00
1.00202043e+00
1.00201642e+00
1.00200938e+00
1.00199947e+00
1.00198681e+00
1.00197148e+00
1.00195351e+00
1.00193293e+00
1.00190974e+00
1.00188389e+00
1.00185535e+00
1.00182410e+00
1.00179010e+00
1.00175337e+00
1.00171393e+00
1.00167184e+00
1.00162722e+00
1.00158022e+00
1.00153103e+00
1.00147988e+00
1.00142705e+00
1.00137286e+00
1.00131763e+00
1.00126174e+00
1.00120556e+00
1.00114949e+00
1.00109393e+00
1.00103926e+00
1.00098588e+00
1.00093414e+00
1.00088438e+00
1.00083691e+00
1.00079198e+00
1.00074979e+00
1.00071048e+00
1.00067412e+00
1.00064073e+00
1.00061022e+00
1.00058245e+00
1.00055721e+00
1.00053422e+00
1.00051317e+00
1.00049368e+00
1.00047538e+00
1.00045788e+00
1.00044079e+00
1.00042378e+00
1.00040652e+00
1.00038879e+00
1.00037042e+00
1.00035131e+00
1.00033147e+00
1.00031101e+00
1.00029010e+00
1.00026903e+00
1.00024815e+00
1.00022790e+00
1.00020874e+00
1.00019120e+00
1.00017580e+00
1.00016304e+00
1.00015343e+00
1.00014739e+00
1.00014528e+00
1.00014738e+00
1.00015384e+00
1.00016474e+00
1.00018000e+00
1.00019946e+00
1.00022285e+00
1.00024980e+00
1.00027986e+00
1.00031252e+00
1.00034725e+00
1.00038347e+00
1.00042062e+00
1.00045813e+00
1.00049556e+00
1.00053236e+00
1.00056811e+00
1.00060251e+00
1.00063534e+00
1.00066610e+00
1.00069480e+00
1.00072147e+00
1.00074585e+00
1.00076740e+00
1.00078729e+00
1.00080507e+00
1.00081961e+00
1.00083162e+00
1.00084420e+00
1.00085127e+00
1.00085818e+00
1.00078732e+00
1.00079800e+00
1.00081441e+00
1.00083266e+00
1.00085670e+00
1.00088849e+00
1.00092358e+00
1.00096248e+00
1.00100614e+00
1.00105347e+00
1.00110387e+00
1.00115707e+00
1.00121235e+00
1.00126924e+00
1.00132727e+00
1.00138567e+00
1.00144383e+00
1.00150129e+00
1.00155744e+00
1.00161166e+00
1.00166351e+00
1.00171256e+00
1.00175839e+00
1.00180065e+00
1.00183913e+00
1.00187363e+00
1.00190400e+00
1.00193022e+00
1.00195230e+00
1.00197031e+00
1.00198435e+00
1.00199457e+00
1.00200116e+00
1.00200429e+00
1.00200414e+00
1.00200089e+00
1.00199470e+00
1.00198569e+00
1.00197397e+00
1.00195959e+00
1.00194260e+00
1.00192300e+00
1.00190077e+00
1.00187589e+00
1.00184832e+00
1.00181803e+00
1.00178500e+00
1.00174924e+00
1.00171077e+00
1.00166968e+00
1.00162605e+00
1.00158005e+00
1.00153186e+00
1.00148172e+00
1.00142989e+00
1.00137668e+00
1.00132243e+00
1.00126748e+00
1.00121222e+00
1.00115702e+00
1.00110227e+00
1.00104835e+00
1.00099565e+00
1.00094451e+00
1.00089526e+00
1.00084820e+00
1.00080357e+00
1.00076157e+00
1.00072234e+00
1.00068595e+00
1.00065242e+00
1.00062167e+00
1.00059357e+00
1.00056792e+00
1.00054446e+00
1.00052290e+00
1.00050288e+00
1.00048404e+00
1.00046602e+00
1.00044845e+00
1.00043100e+00
1.00041338e+00
1.00039536e+00
1.00037679e+00
1.00035758e+00
1.00033773e+00
1.00031736e+00
1.00029663e+00
1.00027584e+00
1.00025531e+00
1.00023547e+00
1.00021677e+00
1.00019972e+00
1.00018480e+00
1.00017252e+00
1.00016333e+00
1.00015765e+00
1.00015581e+00
1.00015805e+00
1.00016455e+00
1.00017535e+00
1.00019035e+00
1.00020941e+00
1.00023228e+00
1.00025856e+00
1.00028779e+00
1.00031958e+00
1.00035336e+00
1.00038850e+00
1.00042455e+00
1.00046103e+00
1.00049732e+00
1.00053300e+00
1.00056775e+00
1.00060110e+00
1.00063291e+00
1.00066298e+00
1.00069070e+00
1.00071618e+00
1.00074050e+00
1.00076196e+00
1.00077938e+00
1.00079655e+00
1.00081415e+00
1.00082394e+00
1.00083099e+00
1.00084335e+00
1.00085077e+00
1.00082116e+00
1.00082929e+00
1.00084327e+00
1.00086195e+00
1.00088677e+00
1.00091570e+00
1.00094836e+00
1.00098625e+00
1.00102825e+00
1.00107322e+00
1.00112125e+00
1.00117203e+00
1.00122485e+00
1.00127910e+00
1.00133429e+00
1.00138987e+00
1.00144530e+00
1.00149997e+00
1.00155335e+00
1.00160497e+00
1.00165437e+00
1.00170111e+00
1.00174483e+00
1.00178525e+00
1.00182213e+00
1.00185528e+00
1.00188461e+00
1.00191007e+00
1.00193166e+00
1.00194944e+00
1.00196350e+00
1.00197399e+00
1.00198103e+00
1.00198479e+00
1.00198542e+00
1.00198307e+00
1.00197787e+00
1.00196993e+00
1.00195931e+00
1.00194606e+00
1.00193021e+00
1.00191176e+00
1.00189069e+00
1.00186695e+00
1.00184052e+00
1.00181136e+00
1.00177946e+00
1.00174483e+00
1.00170749e+00
1.00166753e+00
1.00162504e+00
1.00158018e+00
1.00153313e+00
1.00148413e+00
1.00143343e+00
1.00138133e+00
1.00132817e+00
1.00127428e+00
1.00122004e+00
1.00116581e+00
1.00111197e+00
1.00105890e+00
1.00100697e+00
1.00095651e+00
1.00090784e+00
1.00086126e+00
1.00081700e+00
1.00077525e+00
1.00073615e+00
1.00069977e+00
1.00066613e+00
1.00063516e+00
1.00060674e+00
1.00058069e+00
1.00055676e+00
1.00053467e+00
1.00051409e+00
1.00049468e+00
1.00047610e+00
1.00045799e+00
1.00044005e+00
1.00042201e+00
1.00040365e+00
1.00038482e+00
1.00036544e+00
1.00034554e+00
1.00032521e+00
1.00030463e+00
1.00028407e+00
1.00026386e+00
1.00024441e+00
1.00022616e+00
1.00020957e+00
1.00019514e+00
1.00018333e+00
1.00017457e+00
1.00016925e+00
1.00016768e+00
1.00017010e+00
1.00017663e+00
1.00018730e+00
1.00020206e+00
1.00022071e+00
1.00024298e+00
1.00026854e+00
1.00029697e+00
1.00032777e+00
1.00036043e+00
1.00039447e+00
1.00042936e+00
1.00046456e+00
1.00049957e+00
1.00053406e+00
1.00056764e+00
1.00059986e+00
1.00063037e+00
1.00065933e+00
1.00068651e+00
1.00071114e+00
1.00073345e+00
1.00075453e+00
1.00077331e+00
1.00078838e+00
1.00080201e+00
1.00081484e+00
1.00082454e+00
1.00083238e+00
1.00083626e+00
1.00085775e+00
1.00086551e+00
1.00087749e+00
1.00089576e+00
1.00091870e+00
1.00094531e+00
1.00097722e+00
1.00101334e+00
1.00105251e+00
1.00109519e+00
1.00114093e+00
1.00118888e+00
1.00123877e+00
1.00129008e+00
1.00134218e+00
1.00139463e+00
1.00144694e+00
1.00149848e+00
1.00154882e+00
1.00159755e+00
1.00164419e+00
1.00168836e+00
1.00172976e+00
1.00176813e+00
1.00180323e+00
1.00183492e+00
1.00186310e+00
1.00188772e+00
1.00190878e+00
1.00192632e+00
1.00194044e+00
1.00195122e+00
1.00195879e+00
1.00196328e+00
1.00196480e+00
1.00196347e+00
1.00195939e+00
1.00195263e+00
1.00194325e+00
1.00193128e+00
1.00191672e+00
1.00189955e+00
1.00187975e+00
1.00185729e+00
1.00183212e+00
1.00180422e+00
1.00177357e+00
1.00174019e+00
1.00170410e+00
1.00166539e+00
1.00162415e+00
1.00158054e+00
1.00153474e+00
1.00148698e+00
1.00143751e+00
1.00138664e+00
1.00133466e+00
1.00128193e+00
1.00122881e+00
1.00117565e+00
1.00112282e+00
1.00107070e+00
1.00101962e+00
1.00096994e+00
1.00092194e+00
1.00087592e+00
1.00083210e+00
1.00079067e+00
1.00075176e+00
1.00071544e+00
1.00068173e+00
1.00065057e+00
1.00062186e+00
1.00059541e+00
1.00057100e+00
1.00054837e+00
1.00052721e+00
1.00050720e+00
1.00048801e+00
1.00046932e+00
1.00045084e+00
1.00043231e+00
1.00041354e+00
1.00039439e+00
1.00037480e+00
1.00035478e+00
1.00033444e+00
1.00031395e+00
1.00029359e+00
1.00027367e+00
1.00025459e+00
1.00023676e+00
1.00022064e+00
1.00020669e+00
1.00019535e+00
1.00018702e+00
1.00018207e+00
1.00018077e+00
1.00018336e+00
1.00018991e+00
1.00020045e+00
1.00021492e+00
1.00023312e+00
1.00025476e+00
1.00027954e+00
1.00030706e+00
1.00033680e+00
1.00036829e+00
1.00040111e+00
1.00043468e+00
1.00046850e+00
1.00050221e+00
1.00053535e+00
1.00056747e+00
1.00059848e+00
1.00062795e+00
1.00065543e+00
1.00068132e+00
1.00070557e+00
1.00072687e+00
1.00074602e+00
1.00076457e+00
1.00078008e+00
1.00079162e+00
1.00080375e+00
1.00081413e+00
1.00081918e+00
1.00082355e+00
1.00089604e+00
1.00090317e+00
1.00091532e+00
1.00093208e+00
1.00095290e+00
1.00097854e+00
1.00100874e+00
1.00104216e+00
1.00107901e+00
1.00111934e+00
1.00116224e+00
1.00120719e+00
1.00125393e+00
1.00130197e+00
1.00135079e+00
1.00139987e+00
1.00144871e+00
1.00149691e+00
1.00154402e+00
1.00158958e+00
1.00163323e+00
1.00167467e+00
1.00171359e+00
1.00174973e+00
1.00178294e+00
1.00181307e+00
1.00184002e+00
1.00186374e+00
1.00188426e+00
1.00190158e+00
1.00191576e+00
1.00192688e+00
1.00193504e+00
1.00194031e+00
1.00194280e+00
1.00194258e+00
1.00193972e+00
1.00193425e+00
1.00192622e+00
1.00191563e+00
1.00190245e+00
1.00188668e+00
1.00186826e+00
1.00184717e+00
1.00182336e+00
1.00179681e+00
1.00176751e+00
1.00173546e+00
1.00170070e+00
1.00166332e+00
1.00162341e+00
1.00158113e+00
1.00153666e+00
1.00149022e+00
1.00144207e+00
1.00139248e+00
1.00134178e+00
1.00129029e+00
1.00123836e+00
1.00118634e+00
1.00113461e+00
1.00108350e+00
1.00103337e+00
1.00098453e+00
1.00093729e+00
1.00089190e+00
1.00084860e+00
1.00080756e+00
1.00076891e+00
1.00073272e+00
1.00069900e+00
1.00066770e+00
1.00063873e+00
1.00061191e+00
1.00058705e+00
1.00056389e+00
1.00054214e+00
1.00052151e+00
1.00050169e+00
1.00048238e+00
1.00046332e+00
1.00044426e+00
1.00042503e+00
1.00040550e+00
1.00038562e+00
1.00036542e+00
1.00034501e+00
1.00032456e+00
1.00030433e+00
1.00028465e+00
1.00026588e+00
1.00024843e+00
1.00023275e+00
1.00021924e+00
1.00020834e+00
1.00020042e+00
1.00019582e+00
1.00019478e+00
1.00019749e+00
1.00020405e+00
1.00021446e+00
1.00022859e+00
1.00024630e+00
1.00026732e+00
1.00029127e+00
1.00031777e+00
1.00034641e+00
1.00037673e+00
1.00040818e+00
1.00044032e+00
1.00047275e+00
1.00050502e+00
1.00053668e+00
1.00056736e+00
1.00059688e+00
1.00062512e+00
1.00065154e+00
1.00067582e+00
1.00069862e+00
1.00071984e+00
1.00073814e+00
1.00075412e+00
1.00076941e+00
1.00078233e+00
1.00079195e+00
1.00080024e+00
1.00080770e+00
1.00081267e+00
1.00093778e+00
1.00094423e+00
1.00095505e+00
1.00097017e+00
1.00098994e+00
1.00101408e+00
1.00104160e+00
1.00107280e+00
1.00110761e+00
1.00114500e+00
1.00118472e+00
1.00122665e+00
1.00127013e+00
1.00131468e+00
1.00135994e+00
1.00140542e+00
1.00145068e+00
1.00149535e+00
1.00153899e+00
1.00158122e+00
1.00162176e+00
1.00166032e+00
1.00169662e+00
1.00173045e+00
1.00176169e+00
1.00179019e+00
1.00181587e+00
1.00183869e+00
1.00185865e+00
1.00187575e+00
1.00189002e+00
1.00190153e+00
1.00191032e+00
1.00191646e+00
1.00191998e+00
1.00192094e+00
1.00191937e+00
1.00191527e+00
1.00190866e+00
1.00189951e+00
1.00188780e+00
1.00187348e+00
1.00185652e+00
1.00183686e+00
1.00181446e+00
1.00178932e+00
1.00176140e+00
1.00173074e+00
1.00169736e+00
1.00166136e+00
1.00162284e+00
1.00158194e+00
1.00153884e+00
1.00149378e+00
1.00144698e+00
1.00139874e+00
1.00134937e+00
1.00129917e+00
1.00124851e+00
1.00119771e+00
1.00114713e+00
1.00109712e+00
1.00104800e+00
1.00100009e+00
1.00095368e+00
1.00090901e+00
1.00086631e+00
1.00082573e+00
1.00078741e+00
1.00075141e+00
1.00071775e+00
1.00068637e+00
1.00065719e+00
1.00063005e+00
1.00060475e+00
1.00058107e+00
1.00055874e+00
1.00053748e+00
1.00051701e+00
1.00049706e+00
1.00047738e+00
1.00045774e+00
1.00043799e+00
1.00041803e+00
1.00039780e+00
1.00037736e+00
1.00035681e+00
1.00033633e+00
1.00031618e+00
1.00029668e+00
1.00027817e+00
1.00026106e+00
1.00024575e+00
1.00023265e+00
1.00022215e+00
1.00021460e+00
1.00021031e+00
1.00020950e+00
1.00021232e+00
1.00021885e+00
1.00022907e+00
1.00024286e+00
1.00026003e+00
1.00028033e+00
1.00030342e+00
1.00032889e+00
1.00035636e+00
1.00038536e+00
1.00041541e+00
1.00044612e+00
1.00047704e+00
1.00050769e+00
1.00053781e+00
1.00056713e+00
1.00059511e+00
1.00062163e+00
1.00064691e+00
1.00067032e+00
1.00069140e+00
1.00071109e+00
1.00072925e+00
1.00074444e+00
1.00075781e+00
1.00077036e+00
1.00077991e+00
1.00078722e+00
1.00079402e+00
1.00079827e+00
1.00098082e+00
1.00098618e+00
1.00099620e+00
1.00101034e+00
1.00102858e+00
1.00105060e+00
1.00107609e+00
1.00110514e+00
1.00113714e+00
1.00117158e+00
1.00120833e+00
1.00124695e+00
1.00128695e+00
1.00132793e+00
1.00136949e+00
1.00141124e+00
1.00145282e+00
1.00149380e+00
1.00153384e+00
1.00157269e+00
1.00161004e+00
1.00164561e+00
1.00167922e+00
1.00171073e+00
1.00173995e+00
1.00176679e+00
1.00179120e+00
1.00181312e+00
1.00183253e+00
1.00184944e+00
1.00186385e+00
1.00187578e+00
1.00188524e+00
1.00189228e+00
1.00189689e+00
1.00189908e+00
1.00189884e+00
1.00189617e+00
1.00189102e+00
1.00188336e+00
1.00187314e+00
1.00186032e+00
1.00184483e+00
1.00182662e+00
1.00180567e+00
1.00178195e+00
1.00175545e+00
1.00172618e+00
1.00169421e+00
1.00165960e+00
1.00162247e+00
1.00158297e+00
1.00154127e+00
1.00149760e+00
1.00145219e+00
1.00140533e+00
1.00135731e+00
1.00130845e+00
1.00125908e+00
1.00120954e+00
1.00116017e+00
1.00111131e+00
1.00106327e+00
1.00101635e+00
1.00097084e+00
1.00092696e+00
1.00088493e+00
1.00084491e+00
1.00080700e+00
1.00077127e+00
1.00073774e+00
1.00070636e+00
1.00067703e+00
1.00064962e+00
1.00062394e+00
1.00059978e+00
1.00057689e+00
1.00055502e+00
1.00053391e+00
1.00051330e+00
1.00049296e+00
1.00047271e+00
1.00045240e+00
1.00043194e+00
1.00041131e+00
1.00039055e+00
1.00036979e+00
1.00034921e+00
1.00032906e+00
1.00030966e+00
1.00029134e+00
1.00027449e+00
1.00025949e+00
1.00024673e+00
1.00023657e+00
1.00022934e+00
1.00022530e+00
1.00022466e+00
1.00022755e+00
1.00023399e+00
1.00024396e+00
1.00025737e+00
1.00027397e+00
1.00029350e+00
1.00031566e+00
1.00034008e+00
1.00036631e+00
1.00039393e+00
1.00042257e+00
1.00045176e+00
1.00048108e+00
1.00051016e+00
1.00053866e+00
1.00056635e+00
1.00059292e+00
1.00061797e+00
1.00064153e+00
1.00066375e+00
1.00068402e+00
1.00070204e+00
1.00071872e+00
1.00073389e+00
1.00074635e+00
1.00075694e+00
1.00076646e+00
1.00077419e+00
1.00077965e+00
1.00078293e+00
1.00102501e+00
1.00102971e+00
1.00103860e+00
1.00105149e+00
1.00106797e+00
1.00108807e+00
1.00111168e+00
1.00113822e+00
1.00116729e+00
1.00119892e+00
1.00123258e+00
1.00126773e+00
1.00130415e+00
1.00134149e+00
1.00137930e+00
1.00141726e+00
1.00145502e+00
1.00149226e+00
1.00152872e+00
1.00156412e+00
1.00159821e+00
1.00163081e+00
1.00166175e+00
1.00169089e+00
1.00171811e+00
1.00174333e+00
1.00176649e+00
1.00178753e+00
1.00180644e+00
1.00182320e+00
1.00183777e+00
1.00185016e+00
1.00186035e+00
1.00186833e+00
1.00187406e+00
1.00187751e+00
1.00187864e+00
1.00187740e+00
1.00187373e+00
1.00186758e+00
1.00185886e+00
1.00184753e+00
1.00183351e+00
1.00181676e+00
1.00179724e+00
1.00177493e+00
1.00174982e+00
1.00172194e+00
1.00169135e+00
1.00165812e+00
1.00162237e+00
1.00158425e+00
1.00154393e+00
1.00150164e+00
1.00145762e+00
1.00141213e+00
1.00136548e+00
1.00131796e+00
1.00126992e+00
1.00122167e+00
1.00117354e+00
1.00112587e+00
1.00107896e+00
1.00103310e+00
1.00098855e+00
1.00094554e+00
1.00090426e+00
1.00086487e+00
1.00082746e+00
1.00079209e+00
1.00075877e+00
1.00072745e+00
1.00069805e+00
1.00067044e+00
1.00064444e+00
1.00061984e+00
1.00059644e+00
1.00057397e+00
1.00055222e+00
1.00053095e+00
1.00050995e+00
1.00048905e+00
1.00046814e+00
1.00044713e+00
1.00042603e+00
1.00040490e+00
1.00038385e+00
1.00036309e+00
1.00034287e+00
1.00032348e+00
1.00030527e+00
1.00028860e+00
1.00027383e+00
1.00026133e+00
1.00025144e+00
1.00024445e+00
1.00024060e+00
1.00024005e+00
1.00024293e+00
1.00024924e+00
1.00025892e+00
1.00027185e+00
1.00028782e+00
1.00030656e+00
1.00032774e+00
1.00035101e+00
1.00037597e+00
1.00040221e+00
1.00042935e+00
1.00045694e+00
1.00048463e+00
1.00051214e+00
1.00053903e+00
1.00056495e+00
1.00058992e+00
1.00061373e+00
1.00063576e+00
1.00065619e+00
1.00067543e+00
1.00069272e+00
1.00070778e+00
1.00072162e+00
1.00073385e+00
1.00074374e+00
1.00075214e+00
1.00075912e+00
1.00076413e+00
1.00076757e+00
1.00106943e+00
1.00107333e+00
1.00108128e+00
1.00109295e+00
1.00110793e+00
1.00112616e+00
1.00114745e+00
1.00117148e+00
1.00119794e+00
1.00122655e+00
1.00125689e+00
1.00128866e+00
1.00132153e+00
1.00135513e+00
1.00138917e+00
1.00142332e+00
1.00145726e+00
1.00149080e+00
1.00152367e+00
1.00155561e+00
1.00158649e+00
1.00161617e+00
1.00164447e+00
1.00167129e+00
1.00169657e+00
1.00172023e+00
1.00174219e+00
1.00176242e+00
1.00178089e+00
1.00179754e+00
1.00181233e+00
1.00182522e+00
1.00183618e+00
1.00184512e+00
1.00185199e+00
1.00185672e+00
1.00185922e+00
1.00185942e+00
1.00185723e+00
1.00185256e+00
1.00184533e+00
1.00183546e+00
1.00182289e+00
1.00180755e+00
1.00178942e+00
1.00176847e+00
1.00174471e+00
1.00171817e+00
1.00168891e+00
1.00165701e+00
1.00162259e+00
1.00158581e+00
1.00154684e+00
1.00150590e+00
1.00146323e+00
1.00141909e+00
1.00137378e+00
1.00132760e+00
1.00128087e+00
1.00123391e+00
1.00118705e+00
1.00114060e+00
1.00109485e+00
1.00105009e+00
1.00100656e+00
1.00096448e+00
1.00092403e+00
1.00088535e+00
1.00084852e+00
1.00081360e+00
1.00078058e+00
1.00074943e+00
1.00072005e+00
1.00069231e+00
1.00066605e+00
1.00064109e+00
1.00061722e+00
1.00059420e+00
1.00057184e+00
1.00054991e+00
1.00052824e+00
1.00050668e+00
1.00048513e+00
1.00046354e+00
1.00044192e+00
1.00042033e+00
1.00039893e+00
1.00037791e+00
1.00035752e+00
1.00033806e+00
1.00031986e+00
1.00030327e+00
1.00028864e+00
1.00027631e+00
1.00026658e+00
1.00025973e+00
1.00025598e+00
1.00025545e+00
1.00025822e+00
1.00026431e+00
1.00027364e+00
1.00028603e+00
1.00030129e+00
1.00031918e+00
1.00033934e+00
1.00036141e+00
1.00038505e+00
1.00040988e+00
1.00043547e+00
1.00046147e+00
1.00048754e+00
1.00051332e+00
1.00053856e+00
1.00056296e+00
1.00058623e+00
1.00060835e+00
1.00062916e+00
1.00064827e+00
1.00066580e+00
1.00068202e+00
1.00069639e+00
1.00070884e+00
1.00071997e+00
1.00072954e+00
1.00073714e+00
1.00074328e+00
1.00074830e+00
1.00075145e+00
1.00111375e+00
1.00111707e+00
1.00112403e+00
1.00113433e+00
1.00114774e+00
1.00116414e+00
1.00118316e+00
1.00120470e+00
1.00122846e+00
1.00125401e+00
1.00128109e+00
1.00130947e+00
1.00133876e+00
1.00136866e+00
1.00139893e+00
1.00142929e+00
1.00145950e+00
1.00148937e+00
1.00151867e+00
1.00154727e+00
1.00157504e+00
1.00160185e+00
1.00162760e+00
1.00165222e+00
1.00167565e+00
1.00169782e+00
1.00171869e+00
1.00173819e+00
1.00175628e+00
1.00177290e+00
1.00178797e+00
1.00180142e+00
1.00181316e+00
1.00182310e+00
1.00183113e+00
1.00183714e+00
1.00184102e+00
1.00184264e+00
1.00184190e+00
1.00183868e+00
1.00183289e+00
1.00182444e+00
1.00181325e+00
1.00179926e+00
1.00178245e+00
1.00176280e+00
1.00174031e+00
1.00171504e+00
1.00168703e+00
1.00165638e+00
1.00162322e+00
1.00158770e+00
1.00155001e+00
1.00151035e+00
1.00146898e+00
1.00142614e+00
1.00138213e+00
1.00133726e+00
1.00129182e+00
1.00124615e+00
1.00120055e+00
1.00115532e+00
1.00111077e+00
1.00106714e+00
1.00102468e+00
1.00098359e+00
1.00094403e+00
1.00090613e+00
1.00086997e+00
1.00083559e+00
1.00080297e+00
1.00077207e+00
1.00074279e+00
1.00071502e+00
1.00068860e+00
1.00066334e+00
1.00063905e+00
1.00061554e+00
1.00059260e+00
1.00057004e+00
1.00054771e+00
1.00052548e+00
1.00050326e+00
1.00048105e+00
1.00045885e+00
1.00043676e+00
1.00041493e+00
1.00039357e+00
1.00037292e+00
1.00035329e+00
1.00033501e+00
1.00031840e+00
1.00030379e+00
1.00029152e+00
1.00028185e+00
1.00027504e+00
1.00027126e+00
1.00027065e+00
1.00027324e+00
1.00027900e+00
1.00028786e+00
1.00029966e+00
1.00031416e+00
1.00033109e+00
1.00035016e+00
1.00037102e+00
1.00039330e+00
1.00041664e+00
1.00044067e+00
1.00046507e+00
1.00048949e+00
1.00051356e+00
1.00053709e+00
1.00055992e+00
1.00058164e+00
1.00060206e+00
1.00062137e+00
1.00063935e+00
1.00065552e+00
1.00067024e+00
1.00068372e+00
1.00069540e+00
1.00070536e+00
1.00071407e+00
1.00072124e+00
1.00072688e+00
1.00073118e+00
1.00073392e+00
1.00115735e+00
1.00115997e+00
1.00116621e+00
1.00117529e+00
1.00118704e+00
1.00120156e+00
1.00121845e+00
1.00123747e+00
1.00125841e+00
1.00128100e+00
1.00130490e+00
1.00132984e+00
1.00135558e+00
1.00138186e+00
1.00140841e+00
1.00143506e+00
1.00146163e+00
1.00148791e+00
1.00151378e+00
1.00153917e+00
1.00156394e+00
1.00158801e+00
1.00161135e+00
1.00163391e+00
1.00165561e+00
1.00167643e+00
1.00169631e+00
1.00171519e+00
1.00173300e+00
1.00174966e+00
1.00176508e+00
1.00177914e+00
1.00179171e+00
1.00180268e+00
1.00181188e+00
1.00181916e+00
1.00182439e+00
1.00182741e+00
1.00182807e+00
1.00182626e+00
1.00182185e+00
1.00181474e+00
1.00180486e+00
1.00179215e+00
1.00177657e+00
1.00175812e+00
1.00173681e+00
1.00171270e+00
1.00168584e+00
1.00165635e+00
1.00162435e+00
1.00159000e+00
1.00155349e+00
1.00151502e+00
1.00147486e+00
1.00143325e+00
1.00139048e+00
1.00134685e+00
1.00130266e+00
1.00125824e+00
1.00121388e+00
1.00116988e+00
1.00112651e+00
1.00108404e+00
1.00104269e+00
1.00100263e+00
1.00096403e+00
1.00092699e+00
1.00089158e+00
1.00085782e+00
1.00082569e+00
1.00079514e+00
1.00076608e+00
1.00073837e+00
1.00071186e+00
1.00068639e+00
1.00066178e+00
1.00063782e+00
1.00061435e+00
1.00059119e+00
1.00056821e+00
1.00054531e+00
1.00052243e+00
1.00049956e+00
1.00047674e+00
1.00045409e+00
1.00043176e+00
1.00040997e+00
1.00038899e+00
1.00036909e+00
1.00035061e+00
1.00033387e+00
1.00031917e+00
1.00030683e+00
1.00029711e+00
1.00029022e+00
1.00028631e+00
1.00028548e+00
1.00028777e+00
1.00029311e+00
1.00030140e+00
1.00031249e+00
1.00032615e+00
1.00034207e+00
1.00035998e+00
1.00037957e+00
1.00040044e+00
1.00042227e+00
1.00044475e+00
1.00046749e+00
1.00049022e+00
1.00051268e+00
1.00053455e+00
1.00055561e+00
1.00057580e+00
1.00059486e+00
1.00061256e+00
1.00062903e+00
1.00064419e+00
1.00065775e+00
1.00066986e+00
1.00068068e+00
1.00068997e+00
1.00069775e+00
1.00070422e+00
1.00070949e+00
1.00071341e+00
1.00071580e+00
1.00120015e+00
1.00120220e+00
1.00120740e+00
1.00121531e+00
1.00122556e+00
1.00123815e+00
1.00125284e+00
1.00126945e+00
1.00128764e+00
1.00130723e+00
1.00132795e+00
1.00134956e+00
1.00137181e+00
1.00139451e+00
1.00141748e+00
1.00144054e+00
1.00146354e+00
1.00148639e+00
1.00150901e+00
1.00153131e+00
1.00155323e+00
1.00157477e+00
1.00159587e+00
1.00161650e+00
1.00163664e+00
1.00165626e+00
1.00167530e+00
1.00169367e+00
1.00171132e+00
1.00172813e+00
1.00174396e+00
1.00175869e+00
1.00177214e+00
1.00178415e+00
1.00179452e+00
1.00180308e+00
1.00180964e+00
1.00181401e+00
1.00181604e+00
1.00181556e+00
1.00181246e+00
1.00180662e+00
1.00179796e+00
1.00178642e+00
1.00177197e+00
1.00175461e+00
1.00173437e+00
1.00171130e+00
1.00168548e+00
1.00165702e+00
1.00162605e+00
1.00159275e+00
1.00155730e+00
1.00151993e+00
1.00148087e+00
1.00144039e+00
1.00139877e+00
1.00135631e+00
1.00131331e+00
1.00127009e+00
1.00122693e+00
1.00118413e+00
1.00114196e+00
1.00110065e+00
1.00106042e+00
1.00102145e+00
1.00098385e+00
1.00094773e+00
1.00091314e+00
1.00088009e+00
1.00084855e+00
1.00081845e+00
1.00078969e+00
1.00076214e+00
1.00073565e+00
1.00071006e+00
1.00068519e+00
1.00066086e+00
1.00063691e+00
1.00061320e+00
1.00058961e+00
1.00056605e+00
1.00054249e+00
1.00051894e+00
1.00049547e+00
1.00047221e+00
1.00044932e+00
1.00042704e+00
1.00040562e+00
1.00038536e+00
1.00036658e+00
1.00034959e+00
1.00033469e+00
1.00032216e+00
1.00031225e+00
1.00030514e+00
1.00030097e+00
1.00029980e+00
1.00030165e+00
1.00030646e+00
1.00031409e+00
1.00032435e+00
1.00033705e+00
1.00035190e+00
1.00036859e+00
1.00038681e+00
1.00040625e+00
1.00042656e+00
1.00044742e+00
1.00046852e+00
1.00048957e+00
1.00051036e+00
1.00053060e+00
1.00055005e+00
1.00056861e+00
1.00058623e+00
1.00060256e+00
1.00061759e+00
1.00063149e+00
1.00064403e+00
1.00065504e+00
1.00066483e+00
1.00067337e+00
1.00068047e+00
1.00068629e+00
1.00069100e+00
1.00069445e+00
1.00069671e+00
1.00124153e+00
1.00124306e+00
1.00124743e+00
1.00125418e+00
1.00126293e+00
1.00127364e+00
1.00128616e+00
1.00130033e+00
1.00131583e+00
1.00133247e+00
1.00135007e+00
1.00136841e+00
1.00138726e+00
1.00140650e+00
1.00142598e+00
1.00144558e+00
1.00146519e+00
1.00148479e+00
1.00150431e+00
1.00152370e+00
1.00154299e+00
1.00156218e+00
1.00158122e+00
1.00160013e+00
1.00161890e+00
1.00163748e+00
1.00165582e+00
1.00167384e+00
1.00169145e+00
1.00170850e+00
1.00172484e+00
1.00174030e+00
1.00175467e+00
1.00176775e+00
1.00177931e+00
1.00178913e+00
1.00179699e+00
1.00180268e+00
1.00180601e+00
1.00180681e+00
1.00180494e+00
1.00180028e+00
1.00179274e+00
1.00178226e+00
1.00176883e+00
1.00175244e+00
1.00173314e+00
1.00171098e+00
1.00168606e+00
1.00165849e+00
1.00162843e+00
1.00159604e+00
1.00156152e+00
1.00152510e+00
1.00148702e+00
1.00144756e+00
1.00140698e+00
1.00136560e+00
1.00132371e+00
1.00128162e+00
1.00123961e+00
1.00119798e+00
1.00115697e+00
1.00111682e+00
1.00107773e+00