# vtk DataFile Version 2.0
LBM Flow Field - Timestep 3160
ASCII
DATASET STRUCTURED_POINTS
DIMENSIONS 128 128 1
ORIGIN 0.0 0.0 0.0
SPACING 1.0 1.0 1.0
POINT_DATA 16384
SCALARS density double 1
LOOKUP_TABLE default
1.00134111e+00
1.00133983e+00
1.00133876e+00
1.00133960e+00
1.00133973e+00
1.00133970e+00
1.00133990e+00
1.00133998e+00
1.00133979e+00
1.00133931e+00
1.00133816e+00
1.00133630e+00
1.00133376e+00
1.00133025e+00
1.00132562e+00
1.00131995e+00
1.00131320e+00
1.00130523e+00
1.00129612e+00
1.00128598e+00
1.00127485e+00
1.00126281e+00
1.00125005e+00
1.00123672e+00
1.00122298e+00
1.00120903e+00
1.00119509e+00
1.00118134e+00
1.00116798e+00
1.00115521e+00
1.00114320e+00
1.00113213e+00
1.00112211e+00
1.00111328e+00
1.00110572e+00
1.00109948e+00
1.00109459e+00
1.00109105e+00
1.00108883e+00
1.00108787e+00
1.00108807e+00
1.00108933e+00
1.00109152e+00
1.00109450e+00
1.00109812e+00
1.00110221e+00
1.00110663e+00
1.00111123e+00
1.00111585e+00
1.00112039e+00
1.00112473e+00
1.00112879e+00
1.00113250e+00
1.00113582e+00
1.00113875e+00
1.00114130e+00
1.00114349e+00
1.00114539e+00
1.00114707e+00
1.00114861e+00
1.00115012e+00
1.00115170e+00
1.00115347e+00
1.00115553e+00
1.00115799e+00
1.00116094e+00
1.00116447e+00
1.00116865e+00
1.00117354e+00
1.00117917e+00
1.00118556e+00
1.00119271e+00
1.00120059e+00
1.00120916e+00
1.00121834e+00
1.00122806e+00
1.00123822e+00
1.00124869e+00
1.00125936e+00
1.00127008e+00
1.00128072e+00
1.00129114e+00
1.00130123e+00
1.00131085e+00
1.00131993e+00
1.00132838e+00
1.00133617e+00
1.00134330e+00
1.00134979e+00
1.00135571e+00
1.00136120e+00
1.00136640e+00
1.00137151e+00
1.00137676e+00
1.00138243e+00
1.00138881e+00
1.00139621e+00
1.00140495e+00
1.00141535e+00
1.00142772e+00
1.00144236e+00
1.00145949e+00
1.00147936e+00
1.00150213e+00
1.00152789e+00
1.00155667e+00
1.00158849e+00
1.00162325e+00
1.00166071e+00
1.00170064e+00
1.00174290e+00
1.00178694e+00
1.00183226e+00
1.00187859e+00
1.00192559e+00
1.00197215e+00
1.00201802e+00
1.00206299e+00
1.00210633e+00
1.00214672e+00
1.00218484e+00
1.00221977e+00
1.00225105e+00
1.00227805e+00
1.00230118e+00
1.00231797e+00
1.00233470e+00
1.00234559e+00
1.00133762e+00
1.00133740e+00
1.00133653e+00
1.00133704e+00
1.00133732e+00
1.00133764e+00
1.00133788e+00
1.00133800e+00
1.00133786e+00
1.00133741e+00
1.00133633e+00
1.00133452e+00
1.00133196e+00
1.00132848e+00
1.00132392e+00
1.00131826e+00
1.00131152e+00
1.00130361e+00
1.00129457e+00
1.00128446e+00
1.00127339e+00
1.00126143e+00
1.00124875e+00
1.00123549e+00
1.00122185e+00
1.00120799e+00
1.00119414e+00
1.00118048e+00
1.00116721e+00
1.00115453e+00
1.00114261e+00
1.00113161e+00
1.00112167e+00
1.00111290e+00
1.00110539e+00
1.00109919e+00
1.00109433e+00
1.00109081e+00
1.00108860e+00
1.00108762e+00
1.00108781e+00
1.00108904e+00
1.00109119e+00
1.00109413e+00
1.00109771e+00
1.00110176e+00
1.00110613e+00
1.00111069e+00
1.00111529e+00
1.00111980e+00
1.00112413e+00
1.00112819e+00
1.00113192e+00
1.00113528e+00
1.00113826e+00
1.00114087e+00
1.00114314e+00
1.00114513e+00
1.00114691e+00
1.00114856e+00
1.00115020e+00
1.00115191e+00
1.00115381e+00
1.00115600e+00
1.00115859e+00
1.00116168e+00
1.00116534e+00
1.00116965e+00
1.00117465e+00
1.00118040e+00
1.00118689e+00
1.00119413e+00
1.00120210e+00
1.00121074e+00
1.00121999e+00
1.00122977e+00
1.00123997e+00
1.00125048e+00
1.00126118e+00
1.00127193e+00
1.00128260e+00
1.00129306e+00
1.00130318e+00
1.00131285e+00
1.00132197e+00
1.00133049e+00
1.00133836e+00
1.00134557e+00
1.00135216e+00
1.00135821e+00
1.00136382e+00
1.00136916e+00
1.00137441e+00
1.00137982e+00
1.00138563e+00
1.00139215e+00
1.00139967e+00
1.00140852e+00
1.00141900e+00
1.00143142e+00
1.00144606e+00
1.00146316e+00
1.00148296e+00
1.00150560e+00
1.00153118e+00
1.00155975e+00
1.00159130e+00
1.00162570e+00
1.00166280e+00
1.00170236e+00
1.00174416e+00
1.00178765e+00
1.00183258e+00
1.00187843e+00
1.00192483e+00
1.00197083e+00
1.00201645e+00
1.00206083e+00
1.00210364e+00
1.00214364e+00
1.00218168e+00
1.00221598e+00
1.00224721e+00
1.00227360e+00
1.00229684e+00
1.00231370e+00
1.00233056e+00
1.00233841e+00
1.00133190e+00
1.00133166e+00
1.00133263e+00
1.00133271e+00
1.00133290e+00
1.00133344e+00
1.00133379e+00
1.00133407e+00
1.00133406e+00
1.00133352e+00
1.00133256e+00
1.00133095e+00
1.00132837e+00
1.00132486e+00
1.00132045e+00
1.00131488e+00
1.00130812e+00
1.00130027e+00
1.00129133e+00
1.00128127e+00
1.00127024e+00
1.00125836e+00
1.00124576e+00
1.00123256e+00
1.00121899e+00
1.00120523e+00
1.00119146e+00
1.00117788e+00
1.00116471e+00
1.00115212e+00
1.00114029e+00
1.00112938e+00
1.00111952e+00
1.00111083e+00
1.00110339e+00
1.00109725e+00
1.00109245e+00
1.00108898e+00
1.00108680e+00
1.00108586e+00
1.00108606e+00
1.00108731e+00
1.00108947e+00
1.00109241e+00
1.00109599e+00
1.00110004e+00
1.00110442e+00
1.00110899e+00
1.00111360e+00
1.00111815e+00
1.00112252e+00
1.00112663e+00
1.00113043e+00
1.00113388e+00
1.00113697e+00
1.00113971e+00
1.00114213e+00
1.00114428e+00
1.00114625e+00
1.00114810e+00
1.00114995e+00
1.00115189e+00
1.00115404e+00
1.00115648e+00
1.00115933e+00
1.00116268e+00
1.00116662e+00
1.00117120e+00
1.00117648e+00
1.00118249e+00
1.00118925e+00
1.00119676e+00
1.00120498e+00
1.00121387e+00
1.00122337e+00
1.00123338e+00
1.00124381e+00
1.00125455e+00
1.00126546e+00
1.00127642e+00
1.00128728e+00
1.00129793e+00
1.00130823e+00
1.00131807e+00
1.00132736e+00
1.00133604e+00
1.00134406e+00
1.00135142e+00
1.00135815e+00
1.00136432e+00
1.00137005e+00
1.00137548e+00
1.00138082e+00
1.00138628e+00
1.00139214e+00
1.00139867e+00
1.00140617e+00
1.00141495e+00
1.00142534e+00
1.00143762e+00
1.00145207e+00
1.00146895e+00
1.00148847e+00
1.00151077e+00
1.00153597e+00
1.00156414e+00
1.00159520e+00
1.00162906e+00
1.00166565e+00
1.00170468e+00
1.00174574e+00
1.00178863e+00
1.00183306e+00
1.00187824e+00
1.00192371e+00
1.00196938e+00
1.00201455e+00
1.00205805e+00
1.00210005e+00
1.00214028e+00
1.00217758e+00
1.00221125e+00
1.00224194e+00
1.00226839e+00
1.00229135e+00
1.00230979e+00
1.00232148e+00
1.00232921e+00
1.00132624e+00
1.00132587e+00
1.00132620e+00
1.00132632e+00
1.00132693e+00
1.00132750e+00
1.00132781e+00
1.00132811e+00
1.00132819e+00
1.00132778e+00
1.00132680e+00
1.00132518e+00
1.00132271e+00
1.00131929e+00
1.00131485e+00
1.00130934e+00
1.00130268e+00
1.00129490e+00
1.00128600e+00
1.00127605e+00
1.00126512e+00
1.00125334e+00
1.00124084e+00
1.00122779e+00
1.00121435e+00
1.00120072e+00
1.00118709e+00
1.00117367e+00
1.00116064e+00
1.00114819e+00
1.00113651e+00
1.00112573e+00
1.00111600e+00
1.00110743e+00
1.00110010e+00
1.00109406e+00
1.00108934e+00
1.00108593e+00
1.00108380e+00
1.00108289e+00
1.00108311e+00
1.00108437e+00
1.00108653e+00
1.00108947e+00
1.00109303e+00
1.00109708e+00
1.00110146e+00
1.00110604e+00
1.00111068e+00
1.00111526e+00
1.00111969e+00
1.00112389e+00
1.00112780e+00
1.00113139e+00
1.00113465e+00
1.00113759e+00
1.00114024e+00
1.00114265e+00
1.00114491e+00
1.00114708e+00
1.00114927e+00
1.00115158e+00
1.00115410e+00
1.00115695e+00
1.00116022e+00
1.00116400e+00
1.00116836e+00
1.00117338e+00
1.00117910e+00
1.00118556e+00
1.00119277e+00
1.00120071e+00
1.00120936e+00
1.00121868e+00
1.00122859e+00
1.00123901e+00
1.00124983e+00
1.00126094e+00
1.00127221e+00
1.00128352e+00
1.00129471e+00
1.00130567e+00
1.00131626e+00
1.00132638e+00
1.00133593e+00
1.00134484e+00
1.00135307e+00
1.00136062e+00
1.00136751e+00
1.00137382e+00
1.00137966e+00
1.00138518e+00
1.00139056e+00
1.00139603e+00
1.00140186e+00
1.00140831e+00
1.00141570e+00
1.00142433e+00
1.00143450e+00
1.00144651e+00
1.00146064e+00
1.00147714e+00
1.00149622e+00
1.00151804e+00
1.00154269e+00
1.00157023e+00
1.00160065e+00
1.00163384e+00
1.00166965e+00
1.00170787e+00
1.00174819e+00
1.00179029e+00
1.00183373e+00
1.00187810e+00
1.00192291e+00
1.00196768e+00
1.00201179e+00
1.00205480e+00
1.00209623e+00
1.00213554e+00
1.00217191e+00
1.00220550e+00
1.00223577e+00
1.00226172e+00
1.00228306e+00
1.00230154e+00
1.00231467e+00
1.00232313e+00
1.00131853e+00
1.00131796e+00
1.00131802e+00
1.00131857e+00
1.00131912e+00
1.00131952e+00
1.00132002e+00
1.00132033e+00
1.00132036e+00
1.00132009e+00
1.00131914e+00
1.00131744e+00
1.00131507e+00
1.00131175e+00
1.00130730e+00
1.00130182e+00
1.00129529e+00
1.00128758e+00
1.00127875e+00
1.00126892e+00
1.00125813e+00
1.00124648e+00
1.00123412e+00
1.00122124e+00
1.00120797e+00
1.00119451e+00
1.00118107e+00
1.00116784e+00
1.00115500e+00
1.00114275e+00
1.00113125e+00
1.00112065e+00
1.00111110e+00
1.00110268e+00
1.00109549e+00
1.00108957e+00
1.00108495e+00
1.00108163e+00
1.00107957e+00
1.00107870e+00
1.00107896e+00
1.00108023e+00
1.00108241e+00
1.00108534e+00
1.00108890e+00
1.00109295e+00
1.00109734e+00
1.00110193e+00
1.00110660e+00
1.00111125e+00
1.00111577e+00
1.00112008e+00
1.00112415e+00
1.00112793e+00
1.00113142e+00
1.00113462e+00
1.00113758e+00
1.00114035e+00
1.00114300e+00
1.00114560e+00
1.00114825e+00
1.00115104e+00
1.00115408e+00
1.00115747e+00
1.00116130e+00
1.00116565e+00
1.00117061e+00
1.00117622e+00
1.00118255e+00
1.00118961e+00
1.00119742e+00
1.00120596e+00
1.00121520e+00
1.00122510e+00
1.00123558e+00
1.00124655e+00
1.00125791e+00
1.00126954e+00
1.00128131e+00
1.00129309e+00
1.00130474e+00
1.00131612e+00
1.00132712e+00
1.00133760e+00
1.00134749e+00
1.00135671e+00
1.00136521e+00
1.00137300e+00
1.00138010e+00
1.00138657e+00
1.00139253e+00
1.00139812e+00
1.00140353e+00
1.00140899e+00
1.00141474e+00
1.00142107e+00
1.00142827e+00
1.00143664e+00
1.00144650e+00
1.00145814e+00
1.00147183e+00
1.00148781e+00
1.00150629e+00
1.00152746e+00
1.00155140e+00
1.00157814e+00
1.00160771e+00
1.00164003e+00
1.00167486e+00
1.00171205e+00
1.00175141e+00
1.00179247e+00
1.00183474e+00
1.00187807e+00
1.00192198e+00
1.00196557e+00
1.00200853e+00
1.00205083e+00
1.00209139e+00
1.00212945e+00
1.00216525e+00
1.00219830e+00
1.00222745e+00
1.00225310e+00
1.00227448e+00
1.00229143e+00
1.00230429e+00
1.00231267e+00
1.00130911e+00
1.00130855e+00
1.00130853e+00
1.00130897e+00
1.00130935e+00
1.00130978e+00
1.00131039e+00
1.00131074e+00
1.00131074e+00
1.00131038e+00
1.00130953e+00
1.00130795e+00
1.00130552e+00
1.00130219e+00
1.00129788e+00
1.00129249e+00
1.00128597e+00
1.00127836e+00
1.00126968e+00
1.00125996e+00
1.00124930e+00
1.00123782e+00
1.00122566e+00
1.00121296e+00
1.00119989e+00
1.00118666e+00
1.00117345e+00
1.00116045e+00
1.00114785e+00
1.00113583e+00
1.00112455e+00
1.00111418e+00
1.00110482e+00
1.00109660e+00
1.00108958e+00
1.00108382e+00
1.00107933e+00
1.00107611e+00
1.00107413e+00
1.00107334e+00
1.00107364e+00
1.00107494e+00
1.00107713e+00
1.00108007e+00
1.00108364e+00
1.00108769e+00
1.00109210e+00
1.00109672e+00
1.00110145e+00
1.00110618e+00
1.00111081e+00
1.00111529e+00
1.00111955e+00
1.00112357e+00
1.00112734e+00
1.00113089e+00
1.00113424e+00
1.00113744e+00
1.00114056e+00
1.00114369e+00
1.00114691e+00
1.00115031e+00
1.00115399e+00
1.00115805e+00
1.00116257e+00
1.00116764e+00
1.00117332e+00
1.00117968e+00
1.00118676e+00
1.00119458e+00
1.00120314e+00
1.00121243e+00
1.00122242e+00
1.00123305e+00
1.00124424e+00
1.00125592e+00
1.00126796e+00
1.00128025e+00
1.00129265e+00
1.00130503e+00
1.00131725e+00
1.00132917e+00
1.00134067e+00
1.00135162e+00
1.00136193e+00
1.00137152e+00
1.00138036e+00
1.00138843e+00
1.00139576e+00
1.00140241e+00
1.00140849e+00
1.00141415e+00
1.00141957e+00
1.00142496e+00
1.00143059e+00
1.00143673e+00
1.00144366e+00
1.00145170e+00
1.00146114e+00
1.00147228e+00
1.00148539e+00
1.00150072e+00
1.00151848e+00
1.00153882e+00
1.00156188e+00
1.00158768e+00
1.00161621e+00
1.00164741e+00
1.00168115e+00
1.00171719e+00
1.00175523e+00
1.00179503e+00
1.00183620e+00
1.00187822e+00
1.00192066e+00
1.00196317e+00
1.00200518e+00
1.00204603e+00
1.00208529e+00
1.00212268e+00
1.00215771e+00
1.00218949e+00
1.00221770e+00
1.00224275e+00
1.00226393e+00
1.00228026e+00
1.00229273e+00
1.00230024e+00
1.00129805e+00
1.00129729e+00
1.00129725e+00
1.00129756e+00
1.00129802e+00
1.00129851e+00
1.00129890e+00
1.00129926e+00
1.00129938e+00
1.00129896e+00
1.00129807e+00
1.00129655e+00
1.00129413e+00
1.00129081e+00
1.00128658e+00
1.00128125e+00
1.00127480e+00
1.00126731e+00
1.00125877e+00
1.00124918e+00
1.00123869e+00
1.00122742e+00
1.00121546e+00
1.00120299e+00
1.00119018e+00
1.00117721e+00
1.00116426e+00
1.00115154e+00
1.00113922e+00
1.00112747e+00
1.00111647e+00
1.00110636e+00
1.00109725e+00
1.00108925e+00
1.00108244e+00
1.00107685e+00
1.00107252e+00
1.00106944e+00
1.00106756e+00
1.00106684e+00
1.00106720e+00
1.00106854e+00
1.00107075e+00
1.00107371e+00
1.00107729e+00
1.00108136e+00
1.00108579e+00
1.00109046e+00
1.00109526e+00
1.00110009e+00
1.00110487e+00
1.00110953e+00
1.00111403e+00
1.00111834e+00
1.00112246e+00
1.00112640e+00
1.00113021e+00
1.00113393e+00
1.00113763e+00
1.00114138e+00
1.00114527e+00
1.00114939e+00
1.00115383e+00
1.00115868e+00
1.00116402e+00
1.00116994e+00
1.00117649e+00
1.00118374e+00
1.00119171e+00
1.00120042e+00
1.00120988e+00
1.00122007e+00
1.00123094e+00
1.00124244e+00
1.00125449e+00
1.00126700e+00
1.00127985e+00
1.00129293e+00
1.00130608e+00
1.00131918e+00
1.00133208e+00
1.00134463e+00
1.00135672e+00
1.00136821e+00
1.00137901e+00
1.00138904e+00
1.00139826e+00
1.00140665e+00
1.00141424e+00
1.00142108e+00
1.00142729e+00
1.00143300e+00
1.00143840e+00
1.00144370e+00
1.00144916e+00
1.00145504e+00
1.00146163e+00
1.00146925e+00
1.00147818e+00
1.00148873e+00
1.00150115e+00
1.00151571e+00
1.00153261e+00
1.00155200e+00
1.00157401e+00
1.00159871e+00
1.00162607e+00
1.00165599e+00
1.00168841e+00
1.00172312e+00
1.00175975e+00
1.00179808e+00
1.00183785e+00
1.00187844e+00
1.00191939e+00
1.00196052e+00
1.00200121e+00
1.00204063e+00
1.00207869e+00
1.00211505e+00
1.00214871e+00
1.00217939e+00
1.00220725e+00
1.00223132e+00
1.00225123e+00
1.00226717e+00
1.00227922e+00
1.00228637e+00
1.00128539e+00
1.00128460e+00
1.00128447e+00
1.00128459e+00
1.00128498e+00
1.00128549e+00
1.00128585e+00
1.00128610e+00
1.00128619e+00
1.00128585e+00
1.00128489e+00
1.00128329e+00
1.00128095e+00
1.00127771e+00
1.00127343e+00
1.00126816e+00
1.00126186e+00
1.00125448e+00
1.00124603e+00
1.00123664e+00
1.00122637e+00
1.00121530e+00
1.00120358e+00
1.00119138e+00
1.00117886e+00
1.00116618e+00
1.00115355e+00
1.00114115e+00
1.00112916e+00
1.00111773e+00
1.00110704e+00
1.00109723e+00
1.00108841e+00
1.00108067e+00
1.00107410e+00
1.00106872e+00
1.00106457e+00
1.00106164e+00
1.00105989e+00
1.00105926e+00
1.00105969e+00
1.00106108e+00
1.00106332e+00
1.00106630e+00
1.00106990e+00
1.00107400e+00
1.00107847e+00
1.00108320e+00
1.00108809e+00
1.00109305e+00
1.00109799e+00
1.00110287e+00
1.00110765e+00
1.00111229e+00
1.00111681e+00
1.00112122e+00
1.00112556e+00
1.00112987e+00
1.00113422e+00
1.00113869e+00
1.00114335e+00
1.00114829e+00
1.00115360e+00
1.00115936e+00
1.00116565e+00
1.00117254e+00
1.00118009e+00
1.00118834e+00
1.00119734e+00
1.00120708e+00
1.00121757e+00
1.00122878e+00
1.00124067e+00
1.00125318e+00
1.00126622e+00
1.00127968e+00
1.00129347e+00
1.00130744e+00
1.00132145e+00
1.00133537e+00
1.00134905e+00
1.00136233e+00
1.00137508e+00
1.00138719e+00
1.00139854e+00
1.00140906e+00
1.00141870e+00
1.00142745e+00
1.00143531e+00
1.00144236e+00
1.00144869e+00
1.00145444e+00
1.00145980e+00
1.00146497e+00
1.00147021e+00
1.00147579e+00
1.00148198e+00
1.00148910e+00
1.00149744e+00
1.00150730e+00
1.00151894e+00
1.00153261e+00
1.00154852e+00
1.00156686e+00
1.00158770e+00
1.00161112e+00
1.00163716e+00
1.00166573e+00
1.00169664e+00
1.00172978e+00
1.00176495e+00
1.00180172e+00
1.00183972e+00
1.00187874e+00
1.00191830e+00
1.00195773e+00
1.00199668e+00
1.00203489e+00
1.00207170e+00
1.00210641e+00
1.00213880e+00
1.00216869e+00
1.00219543e+00
1.00221831e+00
1.00223765e+00
1.00225326e+00
1.00226437e+00
1.00227101e+00
1.00127110e+00
1.00127017e+00
1.00127005e+00
1.00127020e+00
1.00127041e+00
1.00127079e+00
1.00127121e+00
1.00127141e+00
1.00127135e+00
1.00127098e+00
1.00127004e+00
1.00126839e+00
1.00126603e+00
1.00126280e+00
1.00125857e+00
1.00125338e+00
1.00124716e+00
1.00123988e+00
1.00123161e+00
1.00122241e+00
1.00121234e+00
1.00120151e+00
1.00119008e+00
1.00117819e+00
1.00116598e+00
1.00115365e+00
1.00114139e+00
1.00112935e+00
1.00111771e+00
1.00110666e+00
1.00109633e+00
1.00108685e+00
1.00107835e+00
1.00107092e+00
1.00106462e+00
1.00105949e+00
1.00105554e+00
1.00105279e+00
1.00105118e+00
1.00105066e+00
1.00105118e+00
1.00105263e+00
1.00105491e+00
1.00105793e+00
1.00106156e+00
1.00106569e+00
1.00107021e+00
1.00107502e+00
1.00108001e+00
1.00108512e+00
1.00109026e+00
1.00109539e+00
1.00110048e+00
1.00110551e+00
1.00111048e+00
1.00111541e+00
1.00112034e+00
1.00112532e+00
1.00113040e+00
1.00113567e+00
1.00114119e+00
1.00114705e+00
1.00115333e+00
1.00116010e+00
1.00116745e+00
1.00117542e+00
1.00118408e+00
1.00119347e+00
1.00120361e+00
1.00121451e+00
1.00122615e+00
1.00123851e+00
1.00125154e+00
1.00126516e+00
1.00127930e+00
1.00129383e+00
1.00130866e+00
1.00132362e+00
1.00133860e+00
1.00135343e+00
1.00136796e+00
1.00138204e+00
1.00139553e+00
1.00140831e+00
1.00142027e+00
1.00143132e+00
1.00144141e+00
1.00145053e+00
1.00145869e+00
1.00146594e+00
1.00147239e+00
1.00147817e+00
1.00148347e+00
1.00148848e+00
1.00149347e+00
1.00149869e+00
1.00150443e+00
1.00151099e+00
1.00151867e+00
1.00152775e+00
1.00153852e+00
1.00155121e+00
1.00156604e+00
1.00158319e+00
1.00160277e+00
1.00162482e+00
1.00164938e+00
1.00167642e+00
1.00170576e+00
1.00173722e+00
1.00177065e+00
1.00180573e+00
1.00184202e+00
1.00187924e+00
1.00191704e+00
1.00195481e+00
1.00199213e+00
1.00202873e+00
1.00206393e+00
1.00209719e+00
1.00212843e+00
1.00215709e+00
1.00218242e+00
1.00220445e+00
1.00222317e+00
1.00223792e+00
1.00224830e+00
1.00225464e+00
1.00125547e+00
1.00125450e+00
1.00125411e+00
1.00125423e+00
1.00125446e+00
1.00125466e+00
1.00125494e+00
1.00125516e+00
1.00125503e+00
1.00125450e+00
1.00125353e+00
1.00125191e+00
1.00124947e+00
1.00124621e+00
1.00124207e+00
1.00123693e+00
1.00123076e+00
1.00122363e+00
1.00121555e+00
1.00120654e+00
1.00119669e+00
1.00118616e+00
1.00117504e+00
1.00116347e+00
1.00115163e+00
1.00113969e+00
1.00112782e+00
1.00111619e+00
1.00110497e+00
1.00109432e+00
1.00108439e+00
1.00107530e+00
1.00106716e+00
1.00106007e+00
1.00105407e+00
1.00104921e+00
1.00104551e+00
1.00104295e+00
1.00104150e+00
1.00104112e+00
1.00104173e+00
1.00104325e+00
1.00104560e+00
1.00104866e+00
1.00105233e+00
1.00105651e+00
1.00106110e+00
1.00106599e+00
1.00107112e+00
1.00107639e+00
1.00108176e+00
1.00108717e+00
1.00109261e+00
1.00109806e+00
1.00110353e+00
1.00110903e+00
1.00111462e+00
1.00112032e+00
1.00112621e+00
1.00113236e+00
1.00113882e+00
1.00114569e+00
1.00115303e+00
1.00116091e+00
1.00116941e+00
1.00117858e+00
1.00118846e+00
1.00119908e+00
1.00121048e+00
1.00122263e+00
1.00123554e+00
1.00124915e+00
1.00126342e+00
1.00127827e+00
1.00129360e+00
1.00130931e+00
1.00132526e+00
1.00134132e+00
1.00135733e+00
1.00137315e+00
1.00138860e+00
1.00140355e+00
1.00141784e+00
1.00143134e+00
1.00144394e+00
1.00145556e+00
1.00146613e+00
1.00147564e+00
1.00148410e+00
1.00149156e+00
1.00149813e+00
1.00150393e+00
1.00150913e+00
1.00151397e+00
1.00151866e+00
1.00152348e+00
1.00152872e+00
1.00153467e+00
1.00154162e+00
1.00154987e+00
1.00155969e+00
1.00157133e+00
1.00158500e+00
1.00160086e+00
1.00161906e+00
1.00163968e+00
1.00166267e+00
1.00168802e+00
1.00171568e+00
1.00174543e+00
1.00177697e+00
1.00181015e+00
1.00184470e+00
1.00188004e+00
1.00191583e+00
1.00195185e+00
1.00198756e+00
1.00202226e+00
1.00205573e+00
1.00208773e+00
1.00211752e+00
1.00214453e+00
1.00216886e+00
1.00219021e+00
1.00220767e+00
1.00222138e+00
1.00223179e+00
1.00223775e+00
1.00123829e+00
1.00123731e+00
1.00123691e+00
1.00123688e+00
1.00123703e+00
1.00123720e+00
1.00123733e+00
1.00123739e+00
1.00123722e+00
1.00123662e+00
1.00123552e+00
1.00123382e+00
1.00123138e+00
1.00122812e+00
1.00122397e+00
1.00121888e+00
1.00121283e+00
1.00120584e+00
1.00119792e+00
1.00118912e+00
1.00117956e+00
1.00116932e+00
1.00115852e+00
1.00114733e+00
1.00113590e+00
1.00112438e+00
1.00111294e+00
1.00110177e+00
1.00109101e+00
1.00108081e+00
1.00107132e+00
1.00106265e+00
1.00105492e+00
1.00104819e+00
1.00104253e+00
1.00103798e+00
1.00103454e+00
1.00103220e+00
1.00103094e+00
1.00103071e+00
1.00103144e+00
1.00103305e+00
1.00103547e+00
1.00103859e+00
1.00104231e+00
1.00104656e+00
1.00105122e+00
1.00105623e+00
1.00106150e+00
1.00106696e+00
1.00107258e+00
1.00107831e+00
1.00108413e+00
1.00109004e+00
1.00109605e+00
1.00110218e+00
1.00110846e+00
1.00111496e+00
1.00112172e+00
1.00112881e+00
1.00113629e+00
1.00114424e+00
1.00115272e+00
1.00116181e+00
1.00117155e+00
1.00118199e+00
1.00119318e+00
1.00120514e+00
1.00121788e+00
1.00123140e+00
1.00124566e+00
1.00126062e+00
1.00127622e+00
1.00129238e+00
1.00130900e+00
1.00132596e+00
1.00134312e+00
1.00136033e+00
1.00137745e+00
1.00139431e+00
1.00141075e+00
1.00142661e+00
1.00144174e+00
1.00145599e+00
1.00146927e+00
1.00148147e+00
1.00149254e+00
1.00150245e+00
1.00151122e+00
1.00151889e+00
1.00152556e+00
1.00153136e+00
1.00153646e+00
1.00154108e+00
1.00154545e+00
1.00154985e+00
1.00155454e+00
1.00155983e+00
1.00156601e+00
1.00157337e+00
1.00158219e+00
1.00159270e+00
1.00160514e+00
1.00161967e+00
1.00163641e+00
1.00165546e+00
1.00167684e+00
1.00170047e+00
1.00172628e+00
1.00175417e+00
1.00178386e+00
1.00181506e+00
1.00184756e+00
1.00188101e+00
1.00191491e+00
1.00194893e+00
1.00198271e+00
1.00201570e+00
1.00204751e+00
1.00207780e+00
1.00210601e+00
1.00213178e+00
1.00215492e+00
1.00217498e+00
1.00219154e+00
1.00220468e+00
1.00221433e+00
1.00221968e+00
1.00121987e+00
1.00121889e+00
1.00121852e+00
1.00121832e+00
1.00121827e+00
1.00121840e+00
1.00121846e+00
1.00121831e+00
1.00121800e+00
1.00121735e+00
1.00121614e+00
1.00121431e+00
1.00121184e+00
1.00120857e+00
1.00120440e+00
1.00119936e+00
1.00119344e+00
1.00118657e+00
1.00117882e+00
1.00117028e+00
1.00116100e+00
1.00115108e+00
1.00114065e+00
1.00112988e+00
1.00111887e+00
1.00110781e+00
1.00109687e+00
1.00108618e+00
1.00107592e+00
1.00106621e+00
1.00105721e+00
1.00104901e+00
1.00104171e+00
1.00103539e+00
1.00103011e+00
1.00102589e+00
1.00102274e+00
1.00102065e+00
1.00101960e+00
1.00101953e+00
1.00102040e+00
1.00102212e+00
1.00102462e+00
1.00102781e+00
1.00103161e+00
1.00103593e+00
1.00104069e+00
1.00104582e+00
1.00105125e+00
1.00105693e+00
1.00106282e+00
1.00106889e+00
1.00107513e+00
1.00108154e+00
1.00108812e+00
1.00109492e+00
1.00110196e+00
1.00110930e+00
1.00111698e+00
1.00112508e+00
1.00113364e+00
1.00114274e+00
1.00115244e+00
1.00116279e+00
1.00117384e+00
1.00118565e+00
1.00119823e+00
1.00121160e+00
1.00122577e+00
1.00124072e+00
1.00125641e+00
1.00127280e+00
1.00128982e+00
1.00130736e+00
1.00132534e+00
1.00134361e+00
1.00136204e+00
1.00138048e+00
1.00139876e+00
1.00141671e+00
1.00143418e+00
1.00145098e+00
1.00146697e+00
1.00148202e+00
1.00149598e+00
1.00150879e+00
1.00152036e+00
1.00153068e+00
1.00153975e+00
1.00154762e+00
1.00155438e+00
1.00156017e+00
1.00156516e+00
1.00156955e+00
1.00157358e+00
1.00157751e+00
1.00158163e+00
1.00158623e+00
1.00159160e+00
1.00159804e+00
1.00160582e+00
1.00161516e+00
1.00162631e+00
1.00163946e+00
1.00165471e+00
1.00167212e+00
1.00169179e+00
1.00171367e+00
1.00173760e+00
1.00176350e+00
1.00179124e+00
1.00182048e+00
1.00185087e+00
1.00188223e+00
1.00191421e+00
1.00194622e+00
1.00197793e+00
1.00200916e+00
1.00203927e+00
1.00206768e+00
1.00209432e+00
1.00211892e+00
1.00214066e+00
1.00215931e+00
1.00217519e+00
1.00218776e+00
1.00219638e+00
1.00220121e+00
1.00120041e+00
1.00119932e+00
1.00119882e+00
1.00119861e+00
1.00119848e+00
1.00119839e+00
1.00119830e+00
1.00119808e+00
1.00119759e+00
1.00119676e+00
1.00119545e+00
1.00119356e+00
1.00119098e+00
1.00118765e+00
1.00118351e+00
1.00117854e+00
1.00117267e+00
1.00116595e+00
1.00115842e+00
1.00115013e+00
1.00114113e+00
1.00113157e+00
1.00112155e+00
1.00111120e+00
1.00110067e+00
1.00109012e+00
1.00107969e+00
1.00106954e+00
1.00105981e+00
1.00105065e+00
1.00104216e+00
1.00103447e+00
1.00102765e+00
1.00102177e+00
1.00101689e+00
1.00101303e+00
1.00101020e+00
1.00100839e+00
1.00100756e+00
1.00100769e+00
1.00100871e+00
1.00101055e+00
1.00101315e+00
1.00101643e+00
1.00102032e+00
1.00102474e+00
1.00102961e+00
1.00103488e+00
1.00104050e+00
1.00104642e+00
1.00105260e+00
1.00105904e+00
1.00106572e+00
1.00107266e+00
1.00107986e+00
1.00108736e+00
1.00109520e+00
1.00110342e+00
1.00111207e+00
1.00112122e+00
1.00113091e+00
1.00114122e+00
1.00115219e+00
1.00116387e+00
1.00117630e+00
1.00118953e+00
1.00120356e+00
1.00121841e+00
1.00123408e+00
1.00125053e+00
1.00126772e+00
1.00128560e+00
1.00130408e+00
1.00132307e+00
1.00134245e+00
1.00136209e+00
1.00138184e+00
1.00140154e+00
1.00142102e+00
1.00144010e+00
1.00145861e+00
1.00147639e+00
1.00149327e+00
1.00150910e+00
1.00152377e+00
1.00153718e+00
1.00154926e+00
1.00155998e+00
1.00156935e+00
1.00157741e+00
1.00158426e+00
1.00159002e+00
1.00159487e+00
1.00159901e+00
1.00160268e+00
1.00160614e+00
1.00160966e+00
1.00161355e+00
1.00161809e+00
1.00162357e+00
1.00163027e+00
1.00163844e+00
1.00164827e+00
1.00165997e+00
1.00167369e+00
1.00168948e+00
1.00170737e+00
1.00172739e+00
1.00174947e+00
1.00177339e+00
1.00179902e+00
1.00182621e+00
1.00185459e+00
1.00188381e+00
1.00191363e+00
1.00194368e+00
1.00197347e+00
1.00200265e+00
1.00203088e+00
1.00205774e+00
1.00208279e+00
1.00210571e+00
1.00212619e+00
1.00214391e+00
1.00215866e+00
1.00217023e+00
1.00217846e+00
1.00218300e+00
1.00117990e+00
1.00117881e+00
1.00117812e+00
1.00117783e+00
1.00117762e+00
1.00117734e+00
1.00117706e+00
1.00117671e+00
1.00117607e+00
1.00117503e+00
1.00117360e+00
1.00117161e+00
1.00116892e+00
1.00116554e+00
1.00116142e+00
1.00115646e+00
1.00115069e+00
1.00114413e+00
1.00113682e+00
1.00112877e+00
1.00112011e+00
1.00111093e+00
1.00110133e+00
1.00109145e+00
1.00108143e+00
1.00107142e+00
1.00106154e+00
1.00105197e+00
1.00104282e+00
1.00103423e+00
1.00102630e+00
1.00101915e+00
1.00101284e+00
1.00100744e+00
1.00100299e+00
1.00099952e+00
1.00099704e+00
1.00099552e+00
1.00099495e+00
1.00099529e+00
1.00099648e+00
1.00099847e+00
1.00100119e+00
1.00100458e+00
1.00100856e+00
1.00101309e+00
1.00101809e+00
1.00102353e+00
1.00102935e+00
1.00103552e+00
1.00104203e+00
1.00104886e+00
1.00105601e+00
1.00106350e+00
1.00107135e+00
1.00107958e+00
1.00108825e+00
1.00109739e+00
1.00110705e+00
1.00111729e+00
1.00112816e+00
1.00113972e+00
1.00115200e+00
1.00116506e+00
1.00117892e+00
1.00119361e+00
1.00120915e+00
1.00122553e+00
1.00124274e+00
1.00126074e+00
1.00127948e+00
1.00129889e+00
1.00131889e+00
1.00133937e+00
1.00136020e+00
1.00138124e+00
1.00140234e+00
1.00142332e+00
1.00144402e+00
1.00146425e+00
1.00148383e+00
1.00150259e+00
1.00152036e+00
1.00153699e+00
1.00155236e+00
1.00156637e+00
1.00157895e+00
1.00159007e+00
1.00159972e+00
1.00160797e+00
1.00161489e+00
1.00162062e+00
1.00162532e+00
1.00162920e+00
1.00163250e+00
1.00163547e+00
1.00163840e+00
1.00164156e+00
1.00164527e+00
1.00164979e+00
1.00165540e+00
1.00166236e+00
1.00167089e+00
1.00168114e+00
1.00169328e+00
1.00170743e+00
1.00172358e+00
1.00174172e+00
1.00176183e+00
1.00178380e+00
1.00180738e+00
1.00183240e+00
1.00185869e+00
1.00188584e+00
1.00191348e+00
1.00194143e+00
1.00196929e+00
1.00199649e+00
1.00202278e+00
1.00204797e+00
1.00207143e+00
1.00209272e+00
1.00211190e+00
1.00212863e+00
1.00214224e+00
1.00215290e+00
1.00216074e+00
1.00216480e+00
1.00115837e+00
1.00115728e+00
1.00115662e+00
1.00115613e+00
1.00115573e+00
1.00115537e+00
1.00115493e+00
1.00115432e+00
1.00115350e+00
1.00115235e+00
1.00115073e+00
1.00114856e+00
1.00114581e+00
1.00114238e+00
1.00113822e+00
1.00113330e+00
1.00112765e+00
1.00112125e+00
1.00111413e+00
1.00110638e+00
1.00109807e+00
1.00108928e+00
1.00108013e+00
1.00107076e+00
1.00106128e+00
1.00105183e+00
1.00104256e+00
1.00103359e+00
1.00102506e+00
1.00101707e+00
1.00100975e+00
1.00100317e+00
1.00099740e+00
1.00099251e+00
1.00098853e+00
1.00098548e+00
1.00098336e+00
1.00098217e+00
1.00098188e+00
1.00098244e+00
1.00098383e+00
1.00098598e+00
1.00098884e+00
1.00099235e+00
1.00099646e+00
1.00100111e+00
1.00100627e+00
1.00101188e+00
1.00101793e+00
1.00102438e+00
1.00103123e+00
1.00103847e+00
1.00104612e+00
1.00105419e+00
1.00106270e+00
1.00107170e+00
1.00108122e+00
1.00109130e+00
1.00110200e+00
1.00111337e+00
1.00112544e+00
1.00113828e+00
1.00115191e+00
1.00116637e+00
1.00118169e+00
1.00119789e+00
1.00121497e+00
1.00123291e+00
1.00125169e+00
1.00127128e+00
1.00129160e+00
1.00131258e+00
1.00133412e+00
1.00135611e+00
1.00137841e+00
1.00140087e+00
1.00142333e+00
1.00144562e+00
1.00146754e+00
1.00148892e+00
1.00150957e+00
1.00152931e+00
1.00154796e+00
1.00156539e+00
1.00158145e+00
1.00159605e+00
1.00160911e+00
1.00162060e+00
1.00163054e+00
1.00163895e+00
1.00164594e+00
1.00165162e+00
1.00165617e+00
1.00165979e+00
1.00166270e+00
1.00166519e+00
1.00166751e+00
1.00166995e+00
1.00167281e+00
1.00167638e+00
1.00168091e+00
1.00168666e+00
1.00169386e+00
1.00170270e+00
1.00171329e+00
1.00172575e+00
1.00174015e+00
1.00175647e+00
1.00177461e+00
1.00179454e+00
1.00181611e+00
1.00183904e+00
1.00186312e+00
1.00188816e+00
1.00191378e+00
1.00193958e+00
1.00196532e+00
1.00199069e+00
1.00201517e+00
1.00203843e+00
1.00206026e+00
1.00208028e+00
1.00209805e+00
1.00211339e+00
1.00212618e+00
1.00213623e+00
1.00214321e+00
1.00214671e+00
1.00113611e+00
1.00113498e+00
1.00113425e+00
1.00113364e+00
1.00113307e+00
1.00113254e+00
1.00113192e+00
1.00113110e+00
1.00113008e+00
1.00112874e+00
1.00112693e+00
1.00112463e+00
1.00112177e+00
1.00111827e+00
1.00111408e+00
1.00110922e+00
1.00110367e+00
1.00109742e+00
1.00109054e+00
1.00108310e+00
1.00107515e+00
1.00106678e+00
1.00105812e+00
1.00104927e+00
1.00104036e+00
1.00103152e+00
1.00102288e+00
1.00101455e+00
1.00100667e+00
1.00099933e+00
1.00099263e+00
1.00098665e+00
1.00098146e+00
1.00097711e+00
1.00097362e+00
1.00097101e+00
1.00096930e+00
1.00096845e+00
1.00096845e+00
1.00096927e+00
1.00097087e+00
1.00097320e+00
1.00097622e+00
1.00097988e+00
1.00098413e+00
1.00098893e+00
1.00099426e+00
1.00100007e+00
1.00100636e+00
1.00101311e+00
1.00102032e+00
1.00102800e+00
1.00103615e+00
1.00104482e+00
1.00105402e+00
1.00106380e+00
1.00107419e+00
1.00108524e+00
1.00109700e+00
1.00110950e+00
1.00112280e+00
1.00113693e+00
1.00115193e+00
1.00116782e+00
1.00118463e+00