# vtk DataFile Version 2.0
LBM Flow Field - Timestep 4100
ASCII
DATASET STRUCTURED_POINTS
DIMENSIONS 128 128 1
ORIGIN 0.0 0.0 0.0
SPACING 1.0 1.0 1.0
POINT_DATA 16384
SCALARS density double 1
LOOKUP_TABLE default
9.97636389e-01
9.97646492e-01
9.97660603e-01
9.97670590e-01
9.97686690e-01
9.97706852e-01
9.97729845e-01
9.97755682e-01
9.97785104e-01
9.97817223e-01
9.97852773e-01
9.97891267e-01
9.97932374e-01
9.97976261e-01
9.98023153e-01
9.98072417e-01
9.98124037e-01
9.98178238e-01
9.98234831e-01
9.98293493e-01
9.98354364e-01
9.98417474e-01
9.98482614e-01
9.98549728e-01
9.98618916e-01
9.98690124e-01
9.98763264e-01
9.98838376e-01
9.98915497e-01
9.98994583e-01
9.99075622e-01
9.99158650e-01
9.99243654e-01
9.99330600e-01
9.99419473e-01
9.99510250e-01
9.99602869e-01
9.99697258e-01
9.99793341e-01
9.99891012e-01
9.99990143e-01
1.00009059e+00
1.00019219e+00
1.00029475e+00
1.00039808e+00
1.00050195e+00
1.00060615e+00
1.00071041e+00
1.00081449e+00
1.00091813e+00
1.00102107e+00
1.00112306e+00
1.00122385e+00
1.00132318e+00
1.00142084e+00
1.00151659e+00
1.00161026e+00
1.00170165e+00
1.00179061e+00
1.00187702e+00
1.00196078e+00
1.00204181e+00
1.00212007e+00
1.00219554e+00
1.00226823e+00
1.00233820e+00
1.00240550e+00
1.00247023e+00
1.00253251e+00
1.00259248e+00
1.00265028e+00
1.00270610e+00
1.00276011e+00
1.00281252e+00
1.00286350e+00
1.00291327e+00
1.00296202e+00
1.00300995e+00
1.00305723e+00
1.00310404e+00
1.00315053e+00
1.00319685e+00
1.00324313e+00
1.00328947e+00
1.00333595e+00
1.00338264e+00
1.00342958e+00
1.00347680e+00
1.00352430e+00
1.00357207e+00
1.00362008e+00
1.00366829e+00
1.00371666e+00
1.00376510e+00
1.00381356e+00
1.00386195e+00
1.00391022e+00
1.00395826e+00
1.00400600e+00
1.00405337e+00
1.00410030e+00
1.00414668e+00
1.00419246e+00
1.00423760e+00
1.00428199e+00
1.00432552e+00
1.00436822e+00
1.00441000e+00
1.00445067e+00
1.00449020e+00
1.00452868e+00
1.00456584e+00
1.00460144e+00
1.00463571e+00
1.00466866e+00
1.00469958e+00
1.00472859e+00
1.00475631e+00
1.00478212e+00
1.00480486e+00
1.00482607e+00
1.00484613e+00
1.00486274e+00
1.00487560e+00
1.00488893e+00
1.00489977e+00
1.00490311e+00
1.00490491e+00
9.97647765e-01
9.97653886e-01
9.97668264e-01
9.97679579e-01
9.97696015e-01
9.97715222e-01
9.97738518e-01
9.97764281e-01
9.97793686e-01
9.97825619e-01
9.97861014e-01
9.97899238e-01
9.97940294e-01
9.97983935e-01
9.98030499e-01
9.98079544e-01
9.98131004e-01
9.98184877e-01
9.98241167e-01
9.98299627e-01
9.98360253e-01
9.98423051e-01
9.98487945e-01
9.98554846e-01
9.98623775e-01
9.98694726e-01
9.98767655e-01
9.98842554e-01
9.98919442e-01
9.98998316e-01
9.99079160e-01
9.99161982e-01
9.99246778e-01
9.99333530e-01
9.99422207e-01
9.99512780e-01
9.99605195e-01
9.99699382e-01
9.99795254e-01
9.99892709e-01
9.99991619e-01
1.00009184e+00
1.00019321e+00
1.00029553e+00
1.00039862e+00
1.00050225e+00
1.00060620e+00
1.00071021e+00
1.00081404e+00
1.00091744e+00
1.00102014e+00
1.00112189e+00
1.00122244e+00
1.00132155e+00
1.00141900e+00
1.00151455e+00
1.00160803e+00
1.00169925e+00
1.00178806e+00
1.00187434e+00
1.00195799e+00
1.00203893e+00
1.00211711e+00
1.00219253e+00
1.00226521e+00
1.00233517e+00
1.00240248e+00
1.00246725e+00
1.00252959e+00
1.00258963e+00
1.00264752e+00
1.00270344e+00
1.00275757e+00
1.00281010e+00
1.00286122e+00
1.00291113e+00
1.00296002e+00
1.00300808e+00
1.00305549e+00
1.00310242e+00
1.00314904e+00
1.00319547e+00
1.00324184e+00
1.00328825e+00
1.00333479e+00
1.00338152e+00
1.00342849e+00
1.00347571e+00
1.00352319e+00
1.00357093e+00
1.00361889e+00
1.00366704e+00
1.00371532e+00
1.00376367e+00
1.00381202e+00
1.00386031e+00
1.00390845e+00
1.00395636e+00
1.00400398e+00
1.00405122e+00
1.00409802e+00
1.00414428e+00
1.00418996e+00
1.00423497e+00
1.00427924e+00
1.00432270e+00
1.00436532e+00
1.00440697e+00
1.00444758e+00
1.00448709e+00
1.00452548e+00
1.00456252e+00
1.00459818e+00
1.00463246e+00
1.00466524e+00
1.00469613e+00
1.00472541e+00
1.00475298e+00
1.00477852e+00
1.00480154e+00
1.00482314e+00
1.00484253e+00
1.00485903e+00
1.00487273e+00
1.00488590e+00
1.00489521e+00
1.00490014e+00
1.00490433e+00
9.97664889e-01
9.97671285e-01
9.97678377e-01
9.97692441e-01
9.97709666e-01
9.97728371e-01
9.97751130e-01
9.97776937e-01
9.97805927e-01
9.97838132e-01
9.97873108e-01
9.97910781e-01
9.97951714e-01
9.97995317e-01
9.98041251e-01
9.98089882e-01
9.98141210e-01
9.98194716e-01
9.98250452e-01
9.98308609e-01
9.98368958e-01
9.98431301e-01
9.98495775e-01
9.98562380e-01
9.98630955e-01
9.98701499e-01
9.98774091e-01
9.98848682e-01
9.98925223e-01
9.99003758e-01
9.99084305e-01
9.99166826e-01
9.99251311e-01
9.99337770e-01
9.99426169e-01
9.99516457e-01
9.99608589e-01
9.99702503e-01
9.99798103e-01
9.99895283e-01
9.99993921e-01
1.00009387e+00
1.00019496e+00
1.00029702e+00
1.00039983e+00
1.00050319e+00
1.00060685e+00
1.00071059e+00
1.00081415e+00
1.00091727e+00
1.00101970e+00
1.00112119e+00
1.00122148e+00
1.00132034e+00
1.00141753e+00
1.00151285e+00
1.00160610e+00
1.00169711e+00
1.00178573e+00
1.00187182e+00
1.00195530e+00
1.00203609e+00
1.00211415e+00
1.00218947e+00
1.00226205e+00
1.00233194e+00
1.00239922e+00
1.00246396e+00
1.00252629e+00
1.00258635e+00
1.00264428e+00
1.00270025e+00
1.00275445e+00
1.00280706e+00
1.00285827e+00
1.00290828e+00
1.00295727e+00
1.00300545e+00
1.00305297e+00
1.00310002e+00
1.00314673e+00
1.00319326e+00
1.00323972e+00
1.00328621e+00
1.00333281e+00
1.00337959e+00
1.00342658e+00
1.00347381e+00
1.00352129e+00
1.00356899e+00
1.00361691e+00
1.00366499e+00
1.00371318e+00
1.00376143e+00
1.00380966e+00
1.00385782e+00
1.00390581e+00
1.00395358e+00
1.00400104e+00
1.00404812e+00
1.00409473e+00
1.00414085e+00
1.00418636e+00
1.00423118e+00
1.00427529e+00
1.00431865e+00
1.00436108e+00
1.00440254e+00
1.00444308e+00
1.00448253e+00
1.00452066e+00
1.00455759e+00
1.00459337e+00
1.00462749e+00
1.00465988e+00
1.00469102e+00
1.00472054e+00
1.00474753e+00
1.00477275e+00
1.00479687e+00
1.00481820e+00
1.00483613e+00
1.00485345e+00
1.00486927e+00
1.00487975e+00
1.00488742e+00
1.00489717e+00
1.00490308e+00
9.97679535e-01
9.97686934e-01
9.97696696e-01
9.97710658e-01
9.97726009e-01
9.97744957e-01
9.97767761e-01
9.97793486e-01
9.97821984e-01
9.97853799e-01
9.97888581e-01
9.97926120e-01
9.97966461e-01
9.98009600e-01
9.98055321e-01
9.98103554e-01
9.98154267e-01
9.98207377e-01
9.98262773e-01
9.98320404e-01
9.98380231e-01
9.98442192e-01
9.98506236e-01
9.98572336e-01
9.98640476e-01
9.98710632e-01
9.98782790e-01
9.98856949e-01
9.98933111e-01
9.99011270e-01
9.99091426e-01
9.99173579e-01
9.99257720e-01
9.99343828e-01
9.99431879e-01
9.99521835e-01
9.99613640e-01
9.99707222e-01
9.99802496e-01
9.99899352e-01
9.99997665e-01
1.00009729e+00
1.00019805e+00
1.00029978e+00
1.00040226e+00
1.00050528e+00
1.00060860e+00
1.00071200e+00
1.00081522e+00
1.00091800e+00
1.00102008e+00
1.00112123e+00
1.00122119e+00
1.00131971e+00
1.00141658e+00
1.00151158e+00
1.00160452e+00
1.00169524e+00
1.00178357e+00
1.00186940e+00
1.00195263e+00
1.00203318e+00
1.00211103e+00
1.00218616e+00
1.00225858e+00
1.00232833e+00
1.00239548e+00
1.00246013e+00
1.00252240e+00
1.00258240e+00
1.00264031e+00
1.00269628e+00
1.00275050e+00
1.00280315e+00
1.00285441e+00
1.00290449e+00
1.00295356e+00
1.00300182e+00
1.00304944e+00
1.00309657e+00
1.00314338e+00
1.00319000e+00
1.00323654e+00
1.00328310e+00
1.00332977e+00
1.00337659e+00
1.00342361e+00
1.00347086e+00
1.00351833e+00
1.00356602e+00
1.00361389e+00
1.00366191e+00
1.00371003e+00
1.00375818e+00
1.00380631e+00
1.00385433e+00
1.00390219e+00
1.00394980e+00
1.00399710e+00
1.00404400e+00
1.00409045e+00
1.00413636e+00
1.00418168e+00
1.00422633e+00
1.00427025e+00
1.00431337e+00
1.00435563e+00
1.00439695e+00
1.00443725e+00
1.00447646e+00
1.00451451e+00
1.00455131e+00
1.00458675e+00
1.00462076e+00
1.00465324e+00
1.00468409e+00
1.00471318e+00
1.00474047e+00
1.00476580e+00
1.00478916e+00
1.00481033e+00
1.00482932e+00
1.00484606e+00
1.00486044e+00
1.00487207e+00
1.00488159e+00
1.00488954e+00
1.00489445e+00
9.97701460e-01
9.97708895e-01
9.97719190e-01
9.97731192e-01
9.97746597e-01
9.97766194e-01
9.97788277e-01
9.97813583e-01
9.97842046e-01
9.97873267e-01
9.97907625e-01
9.97945008e-01
9.97984793e-01
9.98027282e-01
9.98072687e-01
9.98120478e-01
9.98170506e-01
9.98223087e-01
9.98278057e-01
9.98335095e-01
9.98394307e-01
9.98455779e-01
9.98519311e-01
9.98584831e-01
9.98652446e-01
9.98722125e-01
9.98793774e-01
9.98867428e-01
9.98943130e-01
9.99020839e-01
9.99100538e-01
9.99182255e-01
9.99265981e-01
9.99351675e-01
9.99439317e-01
9.99528877e-01
9.99620292e-01
9.99713483e-01
9.99808369e-01
9.99904841e-01
1.00000277e+00
1.00010200e+00
1.00020237e+00
1.00030370e+00
1.00040578e+00
1.00050839e+00
1.00061131e+00
1.00071429e+00
1.00081709e+00
1.00091945e+00
1.00102112e+00
1.00112184e+00
1.00122138e+00
1.00131949e+00
1.00141594e+00
1.00151054e+00
1.00160309e+00
1.00169342e+00
1.00178138e+00
1.00186686e+00
1.00194976e+00
1.00203001e+00
1.00210757e+00
1.00218243e+00
1.00225461e+00
1.00232416e+00
1.00239113e+00
1.00245563e+00
1.00251777e+00
1.00257769e+00
1.00263553e+00
1.00269147e+00
1.00274568e+00
1.00279833e+00
1.00284963e+00
1.00289976e+00
1.00294890e+00
1.00299724e+00
1.00304494e+00
1.00309217e+00
1.00313908e+00
1.00318578e+00
1.00323241e+00
1.00327905e+00
1.00332578e+00
1.00337266e+00
1.00341972e+00
1.00346698e+00
1.00351446e+00
1.00356212e+00
1.00360995e+00
1.00365791e+00
1.00370594e+00
1.00375399e+00
1.00380198e+00
1.00384986e+00
1.00389756e+00
1.00394499e+00
1.00399209e+00
1.00403879e+00
1.00408503e+00
1.00413071e+00
1.00417578e+00
1.00422022e+00
1.00426390e+00
1.00430674e+00
1.00434876e+00
1.00438988e+00
1.00442989e+00
1.00446882e+00
1.00450672e+00
1.00454331e+00
1.00457837e+00
1.00461220e+00
1.00464468e+00
1.00467517e+00
1.00470383e+00
1.00473130e+00
1.00475671e+00
1.00477924e+00
1.00480026e+00
1.00482014e+00
1.00483637e+00
1.00484937e+00
1.00486230e+00
1.00487303e+00
1.00487852e+00
1.00488314e+00
9.97728396e-01
9.97734515e-01
9.97744193e-01
9.97756384e-01
9.97772311e-01
9.97791170e-01
9.97812599e-01
9.97837547e-01
9.97865809e-01
9.97896766e-01
9.97930474e-01
9.97967139e-01
9.98006647e-01
9.98048719e-01
9.98093293e-01
9.98140443e-01
9.98190077e-01
9.98241994e-01
9.98296172e-01
9.98352647e-01
9.98411310e-01
9.98472058e-01
9.98534918e-01
9.98599889e-01
9.98666894e-01
9.98735919e-01
9.98806997e-01
9.98880112e-01
9.98955238e-01
9.99032392e-01
9.99111584e-01
9.99192794e-01
9.99276008e-01
9.99361218e-01
9.99448393e-01
9.99537482e-01
9.99628431e-01
9.99721170e-01
9.99815604e-01
9.99911621e-01
1.00000909e+00
1.00010787e+00
1.00020778e+00
1.00030865e+00
1.00041026e+00
1.00051240e+00
1.00061484e+00
1.00071734e+00
1.00081965e+00
1.00092152e+00
1.00102269e+00
1.00112292e+00
1.00122196e+00
1.00131957e+00
1.00141554e+00
1.00150966e+00
1.00160174e+00
1.00169161e+00
1.00177913e+00
1.00186418e+00
1.00194667e+00
1.00202653e+00
1.00210374e+00
1.00217827e+00
1.00225015e+00
1.00231943e+00
1.00238617e+00
1.00245047e+00
1.00251244e+00
1.00257222e+00
1.00262996e+00
1.00268582e+00
1.00273999e+00
1.00279263e+00
1.00284394e+00
1.00289410e+00
1.00294330e+00
1.00299170e+00
1.00303949e+00
1.00308681e+00
1.00313380e+00
1.00318061e+00
1.00322732e+00
1.00327404e+00
1.00332084e+00
1.00336778e+00
1.00341488e+00
1.00346217e+00
1.00350964e+00
1.00355728e+00
1.00360507e+00
1.00365295e+00
1.00370089e+00
1.00374882e+00
1.00379668e+00
1.00384439e+00
1.00389190e+00
1.00393914e+00
1.00398602e+00
1.00403248e+00
1.00407846e+00
1.00412389e+00
1.00416870e+00
1.00421282e+00
1.00425621e+00
1.00429880e+00
1.00434050e+00
1.00438125e+00
1.00442103e+00
1.00445971e+00
1.00449718e+00
1.00453345e+00
1.00456845e+00
1.00460191e+00
1.00463384e+00
1.00466432e+00
1.00469306e+00
1.00471977e+00
1.00474472e+00
1.00476794e+00
1.00478878e+00
1.00480718e+00
1.00482381e+00
1.00483828e+00
1.00484991e+00
1.00485910e+00
1.00486641e+00
1.00487178e+00
9.97759154e-01
9.97765309e-01
9.97774088e-01
9.97786139e-01
9.97801309e-01
9.97819507e-01
9.97841214e-01
9.97865720e-01
9.97893077e-01
9.97923692e-01
9.97957035e-01
9.97992957e-01
9.98031847e-01
9.98073383e-01
9.98117236e-01
9.98163665e-01
9.98212655e-01
9.98263845e-01
9.98317255e-01
9.98373025e-01
9.98430972e-01
9.98490963e-01
9.98553099e-01
9.98617376e-01
9.98683672e-01
9.98751999e-01
9.98822415e-01
9.98894879e-01
9.98969361e-01
9.99045896e-01
9.99124492e-01
9.99205114e-01
9.99287755e-01
9.99372411e-01
9.99459041e-01
9.99547593e-01
9.99638014e-01
9.99730232e-01
9.99824147e-01
9.99919645e-01
1.00001660e+00
1.00011486e+00
1.00021425e+00
1.00031458e+00
1.00041566e+00
1.00051726e+00
1.00061915e+00
1.00072110e+00
1.00082285e+00
1.00092415e+00
1.00102475e+00
1.00112441e+00
1.00122288e+00
1.00131993e+00
1.00141533e+00
1.00150889e+00
1.00160042e+00
1.00168976e+00
1.00177676e+00
1.00186131e+00
1.00194332e+00
1.00202274e+00
1.00209952e+00
1.00217365e+00
1.00224517e+00
1.00231412e+00
1.00238057e+00
1.00244462e+00
1.00250637e+00
1.00256597e+00
1.00262357e+00
1.00267933e+00
1.00273342e+00
1.00278603e+00
1.00283733e+00
1.00288750e+00
1.00293674e+00
1.00298520e+00
1.00303305e+00
1.00308046e+00
1.00312754e+00
1.00317443e+00
1.00322123e+00
1.00326804e+00
1.00331491e+00
1.00336190e+00
1.00340904e+00
1.00345634e+00
1.00350381e+00
1.00355143e+00
1.00359916e+00
1.00364697e+00
1.00369480e+00
1.00374260e+00
1.00379030e+00
1.00383784e+00
1.00388514e+00
1.00393215e+00
1.00397879e+00
1.00402499e+00
1.00407067e+00
1.00411581e+00
1.00416032e+00
1.00420410e+00
1.00424715e+00
1.00428942e+00
1.00433077e+00
1.00437114e+00
1.00441058e+00
1.00444894e+00
1.00448603e+00
1.00452190e+00
1.00455662e+00
1.00458980e+00
1.00462128e+00
1.00465144e+00
1.00468006e+00
1.00470641e+00
1.00473089e+00
1.00475407e+00
1.00477486e+00
1.00479270e+00
1.00480917e+00
1.00482401e+00
1.00483504e+00
1.00484367e+00
1.00485183e+00
1.00485684e+00
9.97793303e-01
9.97799012e-01
9.97807737e-01
9.97819616e-01
9.97834263e-01
9.97852005e-01
9.97873251e-01
9.97897363e-01
9.97924188e-01
9.97954029e-01
9.97986862e-01
9.98022352e-01
9.98060351e-01
9.98101029e-01
9.98144376e-01
9.98190076e-01
9.98238063e-01
9.98288487e-01
9.98341240e-01
9.98396109e-01
9.98453145e-01
9.98512409e-01
9.98573773e-01
9.98637173e-01
9.98702682e-01
9.98770295e-01
9.98839941e-01
9.98911639e-01
9.98985428e-01
9.99061284e-01
9.99139183e-01
9.99219144e-01
9.99301158e-01
9.99385186e-01
9.99471194e-01
9.99559148e-01
9.99648981e-01
9.99740608e-01
9.99833938e-01
9.99928858e-01
1.00002523e+00
1.00012290e+00
1.00022170e+00
1.00032145e+00
1.00042192e+00
1.00052292e+00
1.00062420e+00
1.00072552e+00
1.00082664e+00
1.00092731e+00
1.00102727e+00
1.00112629e+00
1.00122412e+00
1.00132052e+00
1.00141529e+00
1.00150822e+00
1.00159913e+00
1.00168786e+00
1.00177427e+00
1.00185826e+00
1.00193972e+00
1.00201862e+00
1.00209491e+00
1.00216859e+00
1.00223969e+00
1.00230826e+00
1.00237436e+00
1.00243810e+00
1.00249960e+00
1.00255898e+00
1.00261640e+00
1.00267201e+00
1.00272600e+00
1.00277854e+00
1.00282980e+00
1.00287997e+00
1.00292923e+00
1.00297773e+00
1.00302565e+00
1.00307312e+00
1.00312029e+00
1.00316726e+00
1.00321415e+00
1.00326102e+00
1.00330796e+00
1.00335501e+00
1.00340218e+00
1.00344950e+00
1.00349697e+00
1.00354455e+00
1.00359222e+00
1.00363995e+00
1.00368767e+00
1.00373533e+00
1.00378286e+00
1.00383020e+00
1.00387729e+00
1.00392405e+00
1.00397041e+00
1.00401632e+00
1.00406171e+00
1.00410650e+00
1.00415065e+00
1.00419411e+00
1.00423679e+00
1.00427862e+00
1.00431961e+00
1.00435966e+00
1.00439861e+00
1.00443651e+00
1.00447334e+00
1.00450885e+00
1.00454294e+00
1.00457579e+00
1.00460722e+00
1.00463679e+00
1.00466470e+00
1.00469120e+00
1.00471569e+00
1.00473777e+00
1.00475820e+00
1.00477693e+00
1.00479282e+00
1.00480620e+00
1.00481806e+00
1.00482761e+00
1.00483406e+00
1.00483836e+00
9.97831585e-01
9.97837086e-01
9.97845144e-01
9.97856335e-01
9.97870858e-01
9.97888366e-01
9.97908683e-01
9.97932234e-01
9.97958809e-01
9.97987927e-01
9.98019890e-01
9.98054742e-01
9.98092068e-01
9.98131911e-01
9.98174395e-01
9.98219255e-01
9.98266399e-01
9.98315942e-01
9.98367769e-01
9.98421732e-01
9.98477893e-01
9.98536254e-01
9.98596703e-01
9.98659231e-01
9.98723891e-01
9.98790641e-01
9.98859449e-01
9.98930349e-01
9.99003352e-01
9.99078430e-01
9.99155584e-01
9.99234824e-01
9.99316127e-01
9.99399458e-01
9.99484792e-01
9.99572082e-01
9.99661255e-01
9.99752232e-01
9.99844919e-01
9.99939195e-01
1.00003492e+00
1.00013195e+00
1.00023010e+00
1.00032919e+00
1.00042900e+00
1.00052932e+00
1.00062992e+00
1.00073056e+00
1.00083098e+00
1.00093095e+00
1.00103021e+00
1.00112851e+00
1.00122563e+00
1.00132132e+00
1.00141539e+00
1.00150762e+00
1.00159784e+00
1.00168590e+00
1.00177165e+00
1.00185500e+00
1.00193586e+00
1.00201417e+00
1.00208991e+00
1.00216308e+00
1.00223371e+00
1.00230184e+00
1.00236755e+00
1.00243094e+00
1.00249212e+00
1.00255124e+00
1.00260844e+00
1.00266388e+00
1.00271774e+00
1.00277018e+00
1.00282138e+00
1.00287153e+00
1.00292078e+00
1.00296931e+00
1.00301727e+00
1.00306480e+00
1.00311204e+00
1.00315908e+00
1.00320604e+00
1.00325299e+00
1.00329999e+00
1.00334707e+00
1.00339428e+00
1.00344161e+00
1.00348905e+00
1.00353659e+00
1.00358420e+00
1.00363182e+00
1.00367941e+00
1.00372692e+00
1.00377426e+00
1.00382139e+00
1.00386824e+00
1.00391473e+00
1.00396079e+00
1.00400638e+00
1.00405144e+00
1.00409587e+00
1.00413964e+00
1.00418271e+00
1.00422499e+00
1.00426641e+00
1.00430695e+00
1.00434656e+00
1.00438512e+00
1.00442255e+00
1.00445890e+00
1.00449403e+00
1.00452772e+00
1.00456005e+00
1.00459105e+00
1.00462036e+00
1.00464784e+00
1.00467382e+00
1.00469806e+00
1.00471997e+00
1.00473994e+00
1.00475832e+00
1.00477412e+00
1.00478727e+00
1.00479891e+00
1.00480828e+00
1.00481443e+00
1.00481889e+00
9.97872826e-01
9.97877875e-01
9.97886122e-01
9.97896845e-01
9.97910665e-01
9.97927826e-01
9.97947750e-01
9.97970510e-01
9.97996353e-01
9.98025010e-01
9.98056199e-01
9.98090057e-01
9.98126695e-01
9.98165799e-01
9.98207202e-01
9.98251109e-01
9.98297477e-01
9.98346014e-01
9.98396745e-01
9.98449806e-01
9.98505051e-01
9.98562351e-01
9.98621809e-01
9.98683448e-01
9.98747157e-01
9.98812937e-01
9.98880862e-01
9.98950906e-01
9.99023025e-01
9.99097256e-01
9.99173614e-01
9.99252061e-01
9.99332576e-01
9.99415154e-01
9.99499754e-01
9.99586310e-01
9.99674762e-01
9.99765033e-01
9.99857015e-01
9.99950584e-01
1.00004561e+00
1.00014193e+00
1.00023937e+00
1.00033774e+00
1.00043683e+00
1.00053642e+00
1.00063627e+00
1.00073616e+00
1.00083583e+00
1.00093503e+00
1.00103351e+00
1.00113105e+00
1.00122738e+00
1.00132230e+00
1.00141560e+00
1.00150706e+00
1.00159653e+00
1.00168385e+00
1.00176889e+00
1.00185154e+00
1.00193173e+00
1.00200941e+00
1.00208454e+00
1.00215715e+00
1.00222724e+00
1.00229489e+00
1.00236016e+00
1.00242315e+00
1.00248399e+00
1.00254281e+00
1.00259976e+00
1.00265499e+00
1.00270868e+00
1.00276100e+00
1.00281212e+00
1.00286221e+00
1.00291144e+00
1.00295998e+00
1.00300797e+00
1.00305554e+00
1.00310283e+00
1.00314993e+00
1.00319695e+00
1.00324396e+00
1.00329100e+00
1.00333812e+00
1.00338534e+00
1.00343266e+00
1.00348008e+00
1.00352757e+00
1.00357509e+00
1.00362261e+00
1.00367006e+00
1.00371738e+00
1.00376453e+00
1.00381143e+00
1.00385801e+00
1.00390421e+00
1.00394998e+00
1.00399522e+00
1.00403989e+00
1.00408397e+00
1.00412734e+00
1.00416996e+00
1.00421180e+00
1.00425282e+00
1.00429289e+00
1.00433197e+00
1.00437011e+00
1.00440714e+00
1.00444289e+00
1.00447749e+00
1.00451091e+00
1.00454277e+00
1.00457304e+00
1.00460204e+00
1.00462943e+00
1.00465469e+00
1.00467824e+00
1.00470036e+00
1.00472015e+00
1.00473742e+00
1.00475316e+00
1.00476696e+00
1.00477773e+00
1.00478621e+00
1.00479325e+00
1.00479788e+00
9.97917786e-01
9.97922523e-01
9.97930141e-01
9.97940531e-01
9.97953853e-01
9.97970311e-01
9.97989825e-01
9.98012049e-01
9.98037002e-01
9.98064880e-01
9.98095418e-01
9.98128440e-01
9.98164076e-01
9.98202239e-01
9.98242771e-01
9.98285690e-01
9.98330956e-01
9.98378463e-01
9.98428218e-01
9.98480204e-01
9.98534338e-01
9.98590617e-01
9.98649068e-01
9.98709642e-01
9.98772319e-01
9.98837134e-01
9.98904089e-01
9.98973158e-01
9.99044354e-01
9.99117697e-01
9.99193167e-01
9.99270747e-01
9.99350433e-01
9.99432197e-01
9.99515988e-01
9.99601755e-01
9.99689435e-01
9.99778935e-01
9.99870150e-01
9.99962959e-01
1.00005722e+00
1.00015278e+00
1.00024945e+00
1.00034704e+00
1.00044534e+00
1.00054414e+00
1.00064319e+00
1.00074227e+00
1.00084112e+00
1.00093949e+00
1.00103715e+00
1.00113384e+00
1.00122934e+00
1.00132343e+00
1.00141589e+00
1.00150653e+00
1.00159519e+00
1.00168172e+00
1.00176598e+00
1.00184788e+00
1.00192735e+00
1.00200433e+00
1.00207881e+00
1.00215080e+00
1.00222032e+00
1.00228743e+00
1.00235222e+00
1.00241478e+00
1.00247523e+00
1.00253371e+00
1.00259037e+00
1.00264536e+00
1.00269886e+00
1.00275102e+00
1.00280203e+00
1.00285204e+00
1.00290123e+00
1.00294975e+00
1.00299774e+00
1.00304533e+00
1.00309265e+00
1.00313980e+00
1.00318686e+00
1.00323390e+00
1.00328097e+00
1.00332811e+00
1.00337533e+00
1.00342263e+00
1.00347000e+00
1.00351741e+00
1.00356484e+00
1.00361222e+00
1.00365951e+00
1.00370664e+00
1.00375356e+00
1.00380021e+00
1.00384651e+00
1.00389240e+00
1.00393782e+00
1.00398271e+00
1.00402700e+00
1.00407065e+00
1.00411360e+00
1.00415579e+00
1.00419716e+00
1.00423768e+00
1.00427730e+00
1.00431591e+00
1.00435348e+00
1.00439001e+00
1.00442535e+00
1.00445940e+00
1.00449221e+00
1.00452369e+00
1.00455360e+00
1.00458195e+00
1.00460882e+00
1.00463391e+00
1.00465706e+00
1.00467849e+00
1.00469804e+00
1.00471530e+00
1.00473054e+00
1.00474384e+00
1.00475461e+00
1.00476314e+00
1.00476983e+00
1.00477401e+00
9.97965684e-01
9.97969945e-01
9.97976959e-01
9.97987142e-01
9.98000220e-01
9.98015888e-01
9.98034613e-01
9.98056376e-01
9.98080672e-01
9.98107545e-01
9.98137242e-01
9.98169528e-01
9.98204126e-01
9.98241206e-01
9.98280832e-01
9.98322707e-01
9.98366778e-01
9.98413224e-01
9.98461937e-01
9.98512734e-01
9.98565712e-01
9.98620936e-01
9.98678274e-01
9.98737700e-01
9.98799314e-01
9.98863097e-01
9.98928988e-01
9.98997027e-01
9.99067255e-01
9.99139633e-01
9.99214145e-01
9.99290811e-01
9.99369610e-01
9.99450490e-01
9.99533416e-01
9.99618344e-01
9.99705190e-01
9.99793860e-01
9.99884254e-01
9.99976247e-01
1.00006969e+00
1.00016442e+00
1.00026027e+00
1.00035703e+00
1.00045449e+00
1.00055244e+00
1.00065063e+00
1.00074884e+00
1.00084681e+00
1.00094430e+00
1.00104107e+00
1.00113687e+00
1.00123147e+00
1.00132467e+00
1.00141624e+00
1.00150601e+00
1.00159380e+00
1.00167948e+00
1.00176291e+00
1.00184401e+00
1.00192271e+00
1.00199895e+00
1.00207273e+00
1.00214406e+00
1.00221296e+00
1.00227950e+00
1.00234377e+00
1.00240585e+00
1.00246588e+00
1.00252399e+00
1.00258033e+00
1.00263505e+00
1.00268832e+00
1.00274030e+00
1.00279116e+00
1.00284108e+00
1.00289020e+00
1.00293867e+00
1.00298664e+00
1.00303424e+00
1.00308157e+00
1.00312873e+00
1.00317581e+00
1.00322287e+00
1.00326995e+00
1.00331708e+00
1.00336427e+00
1.00341153e+00
1.00345884e+00
1.00350616e+00
1.00355346e+00
1.00360069e+00
1.00364780e+00
1.00369473e+00
1.00374140e+00
1.00378777e+00
1.00383377e+00
1.00387933e+00
1.00392439e+00
1.00396890e+00
1.00401280e+00
1.00405601e+00
1.00409850e+00
1.00414024e+00
1.00418114e+00
1.00422113e+00
1.00426024e+00
1.00429839e+00
1.00433543e+00
1.00437135e+00
1.00440623e+00
1.00443984e+00
1.00447200e+00
1.00450291e+00
1.00453251e+00
1.00456036e+00
1.00458650e+00
1.00461129e+00
1.00463427e+00
1.00465498e+00
1.00467400e+00
1.00469141e+00
1.00470628e+00
1.00471878e+00
1.00472970e+00
1.00473843e+00
1.00474435e+00
1.00474830e+00
9.98016194e-01
9.98020286e-01
9.98027021e-01
9.98036498e-01
9.98048959e-01
9.98064305e-01
9.98082372e-01
9.98103210e-01
9.98126812e-01
9.98152982e-01
9.98181670e-01
9.98212915e-01
9.98246627e-01
9.98282711e-01
9.98321134e-01
9.98361875e-01
9.98404911e-01
9.98450177e-01
9.98497621e-01
9.98547271e-01
9.98599124e-01
9.98653114e-01
9.98709242e-01
9.98767557e-01
9.98828038e-01
9.98890657e-01
9.98955450e-01
9.99022442e-01
9.99091607e-01
9.99162943e-01
9.99236468e-01
9.99312167e-01
9.99390000e-01
9.99469945e-01
9.99551965e-01
9.99635990e-01
9.99721941e-01
9.99809734e-01
9.99899256e-01
9.99990374e-01
1.00008294e+00
1.00017680e+00
1.00027177e+00
1.00036764e+00
1.00046421e+00
1.00056125e+00
1.00065853e+00
1.00075581e+00
1.00085285e+00
1.00094941e+00
1.00104523e+00
1.00114009e+00
1.00123374e+00
1.00132599e+00
1.00141663e+00
1.00150547e+00
1.00159235e+00
1.00167713e+00
1.00175969e+00
1.00183994e+00
1.00191782e+00
1.00199328e+00
1.00206632e+00
1.00213694e+00
1.00220519e+00
1.00227112e+00
1.00233483e+00
1.00239641e+00
1.00245598e+00
1.00251369e+00
1.00256967e+00
1.00262408e+00
1.00267710e+00
1.00272887e+00
1.00277956e+00
1.00282934e+00
1.00287836e+00
1.00292677e+00
1.00297469e+00
1.00302225e+00
1.00306957e+00
1.00311672e+00
1.00316379e+00
1.00321084e+00
1.00325790e+00
1.00330499e+00
1.00335214e+00
1.00339933e+00
1.00344654e+00
1.00349374e+00
1.00354090e+00
1.00358795e+00
1.00363485e+00
1.00368154e+00
1.00372795e+00
1.00377402e+00
1.00381969e+00
1.00386490e+00
1.00390959e+00
1.00395368e+00
1.00399714e+00
1.00403992e+00
1.00408195e+00
1.00412318e+00
1.00416359e+00
1.00420311e+00
1.00424165e+00
1.00427923e+00
1.00431580e+00
1.00435121e+00
1.00438544e+00
1.00441851e+00
1.00445029e+00
1.00448060e+00
1.00450952e+00
1.00453702e+00
1.00456283e+00
1.00458690e+00
1.00460937e+00
1.00463001e+00
1.00464861e+00
1.00466531e+00
1.00468005e+00
1.00469260e+00
1.00470303e+00
1.00471130e+00
1.00471740e+00
1.00472147e+00
9.98069236e-01
9.98072906e-01
9.98079558e-01
9.98088527e-01
9.98100268e-01
9.98115131e-01
9.98132623e-01
9.98152576e-01
9.98175323e-01
9.98200738e-01
9.98228471e-01
9.98258626e-01
9.98291340e-01
9.98326370e-01
9.98363590e-01
9.98403166e-01
9.98445054e-01
9.98489062e-01
9.98535248e-01
9.98583702e-01
9.98634308e-01
9.98687016e-01
9.98741931e-01
9.98799052e-01
9.98858305e-01
9.98919733e-01
9.98983394e-01
9.99049253e-01
9.99117293e-01
9.99187557e-01
9.99260039e-01
9.99334699e-01
9.99411520e-01
9.99490488e-01
9.99571540e-01
9.99654606e-01
9.99739618e-01
9.99826482e-01
9.99915075e-01
1.00000527e+00
1.00009692e+00
1.00018985e+00
1.00028388e+00
1.00037881e+00
1.00047443e+00
1.00057052e+00
1.00066684e+00
1.00076315e+00
1.00085920e+00
1.00095477e+00
1.00104960e+00
1.00114346e+00
1.00123612e+00
1.00132738e+00
1.00141703e+00
1.00150490e+00
1.00159082e+00
1.00167466e+00
1.00175630e+00
1.00183567e+00
1.00191269e+00
1.00198734e+00
1.00205959e+00
1.00212948e+00
1.00219704e+00
1.00226233e+00
1.00232545e+00
1.00238649e+00
1.00244557e+00
1.00250285e+00
1.00255845e+00
1.00261253e+00
1.00266526e+00
1.00271679e+00
1.00276728e+00
1.00281690e+00
1.00286579e+00
1.00291410e+00
1.00296195e+00
1.00300945e+00
1.00305672e+00
1.00310384e+00
1.00315087e+00
1.00319787e+00
1.00324488e+00
1.00329192e+00
1.00333899e+00
1.00338608e+00
1.00343317e+00
1.00348022e+00
1.00352720e+00
1.00357406e+00
1.00362073e+00
1.00366715e+00
1.00371327e+00
1.00375903e+00
1.00380435e+00
1.00384918e+00
1.00389347e+00
1.00393715e+00
1.00398015e+00
1.00402247e+00
1.00406403e+00
1.00410475e+00
1.00414462e+00
1.00418363e+00
1.00422167e+00
1.00425866e+00
1.00429466e+00
1.00432958e+00
1.00436325e+00
1.00439569e+00
1.00442696e+00
1.00445682e+00
1.00448511e+00
1.00451205e+00
1.00453752e+00
1.00456110e+00
1.00458294e+00
1.00460328e+00
1.00462163e+00
1.00463776e+00
1.00465217e+00
1.00466471e+00
1.00467474e+00
1.00468265e+00
1.00468889e+00
1.00469284e+00
9.98124976e-01
9.98128219e-01
9.98134127e-01
9.98142798e-01
9.98154169e-01
9.98168166e-01
9.98184902e-01
9.98204317e-01
9.98226176e-01
9.98250493e-01
9.98277343e-01
9.98306579e-01
9.98338082e-01
9.98371908e-01
9.98408066e-01
9.98446436e-01
9.98486968e-01
9.98529731e-01
9.98574715e-01
9.98621825e-01
9.98671082e-01
9.98722555e-01
9.98776208e-01
9.98832004e-01
9.98890004e-01
9.98950241e-01
9.99012680e-01
9.99077329e-01
9.99144231e-01
9.99213377e-01
9.99284737e-01
9.99358313e-01
9.99434092e-01
9.99512023e-01
9.99592048e-01
9.99674116e-01
9.99758143e-01
9.99844021e-01
9.99931636e-01
1.00002086e+00
1.00011153e+00
1.00020349e+00
1.00029653e+00
1.00039048e+00
1.00048511e+00
1.00058019e+00
1.00067549e+00
1.00077078e+00
1.00086581e+00
1.00096034e+00
1.00105413e+00
1.00114694e+00
1.00123857e+00
1.00132879e+00
1.00141742e+00
1.00150427e+00
1.00158919e+00
1.00167206e+00
1.00175275e+00
1.00183119e+00
1.00190733e+00
1.00198112e+00
1.00205257e+00
1.00212169e+00
1.00218853e+00
1.00225315e+00
1.00231565e+00
1.00237612e+00
1.00243469e+00
1.00249150e+00
1.00254669e+00
1.00260041e+00
1.00265283e+00
1.00270409e+00
1.00275436e+00
1.00280379e+00
1.00285252e+00
1.00290069e+00
1.00294843e+00
1.00299584e+00
1.00304303e+00
1.00309007e+00
1.00313703e+00
1.00318396e+00
1.00323088e+00
1.00327782e+00
1.00332478e+00
1.00337173e+00
1.00341867e+00
1.00346555e+00
1.00351232e+00
1.00355893e+00
1.00360534e+00
1.00365148e+00
1.00369728e+00
1.00374269e+00
1.00378764e+00
1.00383207e+00
1.00387593e+00
1.00391917e+00
1.00396172e+00
1.00400353e+00
1.00404458e+00
1.00408482e+00
1.00412417e+00
1.00416260e+00
1.00420011e+00
1.00423660e+00
1.00427198e+00
1.00430630e+00
1.00433950e+00
1.00437141e+00
1.00440199e+00
1.00443134e+00
1.00445927e+00
1.00448558e+00
1.00451039e+00
1.00453370e+00
1.00455520e+00
1.00457485e+00
1.00459280e+00
1.00460890e+00
1.00462288e+00
1.00463485e+00
1.00464487e+00
1.00465284e+00
1.00465865e+00
1.00466234e+00
9.98182562e-01
9.98185455e-01
9.98190912e-01
9.98199140e-01
9.98210020e-01
9.98223326e-01
9.98239303e-01
9.98257962e-01
9.98278959e-01
9.98302300e-01
9.98328146e-01
9.98356324e-01
9.98386680e-01
9.98419330e-01
9.98454281e-01
9.98491367e-01
9.98530605e-01
9.98572085e-01
9.98615725e-01
9.98661470e-01
9.98709410e-01
9.98759559e-01
9.98811851e-01
9.98866328e-01
9.98923055e-01
9.98982006e-01
9.99043170e-01
9.99106602e-01
9.99172312e-01
9.99240267e-01
9.99310473e-01
9.99382935e-01
9.99457611e-01
9.99534450e-01
9.99613416e-01
9.99694440e-01
9.99777426e-01
9.99862273e-01
9.99948869e-01
1.00003707e+00
1.00012672e+00
1.00021765e+00
1.00030968e+00
1.00040258e+00
1.00049617e+00
1.00059020e+00
1.00068444e+00
1.00077866e+00
1.00087262e+00
1.00096607e+00
1.00105877e+00
1.00115051e+00
1.00124106e+00
1.00133021e+00
1.00141777e+00
1.00150357e+00
1.00158746e+00
1.00166932e+00
1.00174903e+00
1.00182652e+00
1.00190174e+00
1.00197465e+00
1.00204526e+00
1.00211359e+00
1.00217969e+00