# vtk DataFile Version 2.0
LBM Flow Field - Timestep 3380
ASCII
DATASET STRUCTURED_POINTS
DIMENSIONS 128 128 1
ORIGIN 0.0 0.0 0.0
SPACING 1.0 1.0 1.0
POINT_DATA 16384
SCALARS density double 1
LOOKUP_TABLE default
1.00088486e+00
1.00088154e+00
1.00087558e+00
1.00086523e+00
1.00085297e+00
1.00084088e+00
1.00082608e+00
1.00080946e+00
1.00079232e+00
1.00077482e+00
1.00075611e+00
1.00073733e+00
1.00071886e+00
1.00070074e+00
1.00068304e+00
1.00066644e+00
1.00065104e+00
1.00063701e+00
1.00062456e+00
1.00061398e+00
1.00060529e+00
1.00059863e+00
1.00059406e+00
1.00059162e+00
1.00059126e+00
1.00059294e+00
1.00059659e+00
1.00060207e+00
1.00060923e+00
1.00061791e+00
1.00062793e+00
1.00063909e+00
1.00065120e+00
1.00066406e+00
1.00067749e+00
1.00069132e+00
1.00070541e+00
1.00071964e+00
1.00073392e+00
1.00074819e+00
1.00076243e+00
1.00077665e+00
1.00079089e+00
1.00080523e+00
1.00081977e+00
1.00083461e+00
1.00084991e+00
1.00086582e+00
1.00088248e+00
1.00090007e+00
1.00091872e+00
1.00093860e+00
1.00095981e+00
1.00098248e+00
1.00100670e+00
1.00103252e+00
1.00106000e+00
1.00108915e+00
1.00111997e+00
1.00115241e+00
1.00118642e+00
1.00122192e+00
1.00125881e+00
1.00129697e+00
1.00133628e+00
1.00137660e+00
1.00141776e+00
1.00145963e+00
1.00150204e+00
1.00154484e+00
1.00158788e+00
1.00163104e+00
1.00167417e+00
1.00171716e+00
1.00175994e+00
1.00180241e+00
1.00184453e+00
1.00188626e+00
1.00192760e+00
1.00196857e+00
1.00200919e+00
1.00204954e+00
1.00208968e+00
1.00212972e+00
1.00216976e+00
1.00220992e+00
1.00225033e+00
1.00229112e+00
1.00233240e+00
1.00237431e+00
1.00241694e+00
1.00246039e+00
1.00250471e+00
1.00254997e+00
1.00259616e+00
1.00264330e+00
1.00269132e+00
1.00274015e+00
1.00278968e+00
1.00283978e+00
1.00289027e+00
1.00294095e+00
1.00299161e+00
1.00304203e+00
1.00309192e+00
1.00314103e+00
1.00318913e+00
1.00323597e+00
1.00328122e+00
1.00332472e+00
1.00336629e+00
1.00340571e+00
1.00344264e+00
1.00347727e+00
1.00350942e+00
1.00353878e+00
1.00356521e+00
1.00358959e+00
1.00361115e+00
1.00362936e+00
1.00364521e+00
1.00366014e+00
1.00367082e+00
1.00367798e+00
1.00368589e+00
1.00369260e+00
1.00368860e+00
1.00368593e+00
1.00088475e+00
1.00088033e+00
1.00087393e+00
1.00086516e+00
1.00085284e+00
1.00084042e+00
1.00082588e+00
1.00080999e+00
1.00079265e+00
1.00077523e+00
1.00075684e+00
1.00073833e+00
1.00071982e+00
1.00070190e+00
1.00068441e+00
1.00066794e+00
1.00065261e+00
1.00063876e+00
1.00062643e+00
1.00061594e+00
1.00060734e+00
1.00060078e+00
1.00059627e+00
1.00059389e+00
1.00059357e+00
1.00059529e+00
1.00059895e+00
1.00060444e+00
1.00061160e+00
1.00062028e+00
1.00063028e+00
1.00064142e+00
1.00065350e+00
1.00066633e+00
1.00067974e+00
1.00069355e+00
1.00070762e+00
1.00072184e+00
1.00073612e+00
1.00075039e+00
1.00076465e+00
1.00077888e+00
1.00079314e+00
1.00080750e+00
1.00082205e+00
1.00083692e+00
1.00085223e+00
1.00086813e+00
1.00088479e+00
1.00090235e+00
1.00092096e+00
1.00094077e+00
1.00096191e+00
1.00098449e+00
1.00100859e+00
1.00103429e+00
1.00106162e+00
1.00109060e+00
1.00112123e+00
1.00115348e+00
1.00118728e+00
1.00122257e+00
1.00125924e+00
1.00129718e+00
1.00133626e+00
1.00137635e+00
1.00141730e+00
1.00145895e+00
1.00150115e+00
1.00154376e+00
1.00158662e+00
1.00162960e+00
1.00167258e+00
1.00171545e+00
1.00175810e+00
1.00180048e+00
1.00184252e+00
1.00188420e+00
1.00192551e+00
1.00196646e+00
1.00200709e+00
1.00204746e+00
1.00208764e+00
1.00212774e+00
1.00216785e+00
1.00220809e+00
1.00224859e+00
1.00228947e+00
1.00233085e+00
1.00237284e+00
1.00241556e+00
1.00245908e+00
1.00250348e+00
1.00254878e+00
1.00259502e+00
1.00264217e+00
1.00269018e+00
1.00273899e+00
1.00278847e+00
1.00283849e+00
1.00288888e+00
1.00293945e+00
1.00298997e+00
1.00304022e+00
1.00308993e+00
1.00313887e+00
1.00318676e+00
1.00323338e+00
1.00327842e+00
1.00332175e+00
1.00336306e+00
1.00340228e+00
1.00343905e+00
1.00347356e+00
1.00350539e+00
1.00353469e+00
1.00356113e+00
1.00358538e+00
1.00360650e+00
1.00362512e+00
1.00364108e+00
1.00365552e+00
1.00366584e+00
1.00367440e+00
1.00368156e+00
1.00368702e+00
1.00368474e+00
1.00368598e+00
1.00088525e+00
1.00087994e+00
1.00087111e+00
1.00086296e+00
1.00085267e+00
1.00083902e+00
1.00082423e+00
1.00080916e+00
1.00079227e+00
1.00077427e+00
1.00075624e+00
1.00073811e+00
1.00071966e+00
1.00070169e+00
1.00068454e+00
1.00066824e+00
1.00065302e+00
1.00063930e+00
1.00062722e+00
1.00061687e+00
1.00060844e+00
1.00060205e+00
1.00059773e+00
1.00059550e+00
1.00059535e+00
1.00059724e+00
1.00060105e+00
1.00060667e+00
1.00061397e+00
1.00062277e+00
1.00063288e+00
1.00064413e+00
1.00065631e+00
1.00066923e+00
1.00068271e+00
1.00069659e+00
1.00071073e+00
1.00072501e+00
1.00073933e+00
1.00075365e+00
1.00076793e+00
1.00078219e+00
1.00079646e+00
1.00081082e+00
1.00082536e+00
1.00084020e+00
1.00085547e+00
1.00087132e+00
1.00088789e+00
1.00090536e+00
1.00092386e+00
1.00094354e+00
1.00096452e+00
1.00098692e+00
1.00101083e+00
1.00103632e+00
1.00106342e+00
1.00109217e+00
1.00112255e+00
1.00115453e+00
1.00118807e+00
1.00122308e+00
1.00125947e+00
1.00129714e+00
1.00133595e+00
1.00137577e+00
1.00141645e+00
1.00145785e+00
1.00149981e+00
1.00154218e+00
1.00158483e+00
1.00162761e+00
1.00167041e+00
1.00171311e+00
1.00175562e+00
1.00179787e+00
1.00183981e+00
1.00188141e+00
1.00192265e+00
1.00196356e+00
1.00200418e+00
1.00204455e+00
1.00208476e+00
1.00212489e+00
1.00216506e+00
1.00220538e+00
1.00224597e+00
1.00228694e+00
1.00232843e+00
1.00237054e+00
1.00241337e+00
1.00245701e+00
1.00250152e+00
1.00254693e+00
1.00259326e+00
1.00264049e+00
1.00268857e+00
1.00273742e+00
1.00278693e+00
1.00283695e+00
1.00288731e+00
1.00293783e+00
1.00298827e+00
1.00303839e+00
1.00308797e+00
1.00313675e+00
1.00318445e+00
1.00323082e+00
1.00327567e+00
1.00331875e+00
1.00335976e+00
1.00339865e+00
1.00343532e+00
1.00346945e+00
1.00350087e+00
1.00353001e+00
1.00355657e+00
1.00357998e+00
1.00360080e+00
1.00362005e+00
1.00363598e+00
1.00364827e+00
1.00365983e+00
1.00367055e+00
1.00367502e+00
1.00367687e+00
1.00368226e+00
1.00368469e+00
1.00088129e+00
1.00087609e+00
1.00086876e+00
1.00085964e+00
1.00084892e+00
1.00083608e+00
1.00082180e+00
1.00080620e+00
1.00078964e+00
1.00077216e+00
1.00075424e+00
1.00073609e+00
1.00071807e+00
1.00070039e+00
1.00068339e+00
1.00066732e+00
1.00065246e+00
1.00063900e+00
1.00062717e+00
1.00061712e+00
1.00060900e+00
1.00060289e+00
1.00059886e+00
1.00059692e+00
1.00059705e+00
1.00059920e+00
1.00060327e+00
1.00060914e+00
1.00061666e+00
1.00062567e+00
1.00063599e+00
1.00064742e+00
1.00065976e+00
1.00067283e+00
1.00068645e+00
1.00070046e+00
1.00071470e+00
1.00072907e+00
1.00074347e+00
1.00075785e+00
1.00077219e+00
1.00078648e+00
1.00080078e+00
1.00081514e+00
1.00082966e+00
1.00084447e+00
1.00085968e+00
1.00087545e+00
1.00089193e+00
1.00090928e+00
1.00092763e+00
1.00094714e+00
1.00096793e+00
1.00099011e+00
1.00101378e+00
1.00103900e+00
1.00106582e+00
1.00109427e+00
1.00112434e+00
1.00115600e+00
1.00118920e+00
1.00122386e+00
1.00125991e+00
1.00129723e+00
1.00133569e+00
1.00137517e+00
1.00141552e+00
1.00145659e+00
1.00149823e+00
1.00154030e+00
1.00158266e+00
1.00162518e+00
1.00166772e+00
1.00171019e+00
1.00175250e+00
1.00179457e+00
1.00183636e+00
1.00187782e+00
1.00191897e+00
1.00195980e+00
1.00200037e+00
1.00204072e+00
1.00208094e+00
1.00212110e+00
1.00216133e+00
1.00220173e+00
1.00224241e+00
1.00228351e+00
1.00232513e+00
1.00236739e+00
1.00241038e+00
1.00245418e+00
1.00249885e+00
1.00254443e+00
1.00259091e+00
1.00263828e+00
1.00268649e+00
1.00273544e+00
1.00278503e+00
1.00283510e+00
1.00288549e+00
1.00293598e+00
1.00298637e+00
1.00303641e+00
1.00308586e+00
1.00313445e+00
1.00318196e+00
1.00322810e+00
1.00327265e+00
1.00331540e+00
1.00335615e+00
1.00339468e+00
1.00343091e+00
1.00346468e+00
1.00349592e+00
1.00352449e+00
1.00355054e+00
1.00357391e+00
1.00359465e+00
1.00361277e+00
1.00362864e+00
1.00364175e+00
1.00365264e+00
1.00366123e+00
1.00366767e+00
1.00367141e+00
1.00367450e+00
1.00367433e+00
1.00087560e+00
1.00087075e+00
1.00086453e+00
1.00085470e+00
1.00084331e+00
1.00083148e+00
1.00081765e+00
1.00080166e+00
1.00078529e+00
1.00076847e+00
1.00075071e+00
1.00073265e+00
1.00071505e+00
1.00069777e+00
1.00068101e+00
1.00066528e+00
1.00065085e+00
1.00063776e+00
1.00062628e+00
1.00061665e+00
1.00060894e+00
1.00060322e+00
1.00059959e+00
1.00059805e+00
1.00059857e+00
1.00060109e+00
1.00060552e+00
1.00061174e+00
1.00061959e+00
1.00062891e+00
1.00063951e+00
1.00065121e+00
1.00066380e+00
1.00067709e+00
1.00069091e+00
1.00070510e+00
1.00071950e+00
1.00073401e+00
1.00074853e+00
1.00076301e+00
1.00077743e+00
1.00079178e+00
1.00080611e+00
1.00082049e+00
1.00083500e+00
1.00084977e+00
1.00086492e+00
1.00088061e+00
1.00089697e+00
1.00091416e+00
1.00093234e+00
1.00095164e+00
1.00097219e+00
1.00099411e+00
1.00101748e+00
1.00104238e+00
1.00106886e+00
1.00109695e+00
1.00112663e+00
1.00115789e+00
1.00119068e+00
1.00122493e+00
1.00126056e+00
1.00129745e+00
1.00133549e+00
1.00137454e+00
1.00141448e+00
1.00145514e+00
1.00149640e+00
1.00153810e+00
1.00158011e+00
1.00162229e+00
1.00166452e+00
1.00170671e+00
1.00174876e+00
1.00179060e+00
1.00183219e+00
1.00187349e+00
1.00191450e+00
1.00195523e+00
1.00199573e+00
1.00203605e+00
1.00207627e+00
1.00211647e+00
1.00215676e+00
1.00219725e+00
1.00223806e+00
1.00227931e+00
1.00232110e+00
1.00236355e+00
1.00240674e+00
1.00245075e+00
1.00249563e+00
1.00254142e+00
1.00258811e+00
1.00263567e+00
1.00268405e+00
1.00273316e+00
1.00278286e+00
1.00283302e+00
1.00288346e+00
1.00293395e+00
1.00298429e+00
1.00303425e+00
1.00308356e+00
1.00313195e+00
1.00317921e+00
1.00322509e+00
1.00326930e+00
1.00331164e+00
1.00335203e+00
1.00339016e+00
1.00342583e+00
1.00345913e+00
1.00349004e+00
1.00351807e+00
1.00354338e+00
1.00356657e+00
1.00358718e+00
1.00360431e+00
1.00361957e+00
1.00363352e+00
1.00364386e+00
1.00365065e+00
1.00365827e+00
1.00366371e+00
1.00366320e+00
1.00366316e+00
1.00086952e+00
1.00086404e+00
1.00085683e+00
1.00084816e+00
1.00083750e+00
1.00082489e+00
1.00081091e+00
1.00079597e+00
1.00077986e+00
1.00076284e+00
1.00074550e+00
1.00072808e+00
1.00071068e+00
1.00069367e+00
1.00067745e+00
1.00066220e+00
1.00064811e+00
1.00063550e+00
1.00062456e+00
1.00061541e+00
1.00060818e+00
1.00060299e+00
1.00059987e+00
1.00059882e+00
1.00059983e+00
1.00060284e+00
1.00060774e+00
1.00061441e+00
1.00062269e+00
1.00063241e+00
1.00064339e+00
1.00065544e+00
1.00066836e+00
1.00068195e+00
1.00069605e+00
1.00071047e+00
1.00072510e+00
1.00073979e+00
1.00075448e+00
1.00076910e+00
1.00078362e+00
1.00079806e+00
1.00081244e+00
1.00082684e+00
1.00084135e+00
1.00085608e+00
1.00087116e+00
1.00088674e+00
1.00090296e+00
1.00091998e+00
1.00093795e+00
1.00095700e+00
1.00097727e+00
1.00099887e+00
1.00102190e+00
1.00104643e+00
1.00107251e+00
1.00110017e+00
1.00112941e+00
1.00116020e+00
1.00119252e+00
1.00122628e+00
1.00126141e+00
1.00129781e+00
1.00133535e+00
1.00137392e+00
1.00141337e+00
1.00145357e+00
1.00149437e+00
1.00153563e+00
1.00157722e+00
1.00161901e+00
1.00166088e+00
1.00170273e+00
1.00174447e+00
1.00178604e+00
1.00182739e+00
1.00186849e+00
1.00190934e+00
1.00194995e+00
1.00199037e+00
1.00203064e+00
1.00207085e+00
1.00211109e+00
1.00215145e+00
1.00219204e+00
1.00223299e+00
1.00227440e+00
1.00231639e+00
1.00235906e+00
1.00240248e+00
1.00244674e+00
1.00249188e+00
1.00253793e+00
1.00258487e+00
1.00263267e+00
1.00268126e+00
1.00273056e+00
1.00278042e+00
1.00283070e+00
1.00288120e+00
1.00293172e+00
1.00298203e+00
1.00303189e+00
1.00308105e+00
1.00312925e+00
1.00317623e+00
1.00322175e+00
1.00326561e+00
1.00330756e+00
1.00334738e+00
1.00338500e+00
1.00342025e+00
1.00345292e+00
1.00348304e+00
1.00351071e+00
1.00353568e+00
1.00355784e+00
1.00357768e+00
1.00359525e+00
1.00360993e+00
1.00362215e+00
1.00363274e+00
1.00364113e+00
1.00364673e+00
1.00365055e+00
1.00365243e+00
1.00365365e+00
1.00086136e+00
1.00085609e+00
1.00084815e+00
1.00083969e+00
1.00082947e+00
1.00081682e+00
1.00080306e+00
1.00078858e+00
1.00077264e+00
1.00075585e+00
1.00073900e+00
1.00072201e+00
1.00070493e+00
1.00068839e+00
1.00067271e+00
1.00065794e+00
1.00064437e+00
1.00063234e+00
1.00062198e+00
1.00061340e+00
1.00060678e+00
1.00060220e+00
1.00059969e+00
1.00059924e+00
1.00060085e+00
1.00060445e+00
1.00060991e+00
1.00061712e+00
1.00062593e+00
1.00063615e+00
1.00064760e+00
1.00066008e+00
1.00067340e+00
1.00068737e+00
1.00070180e+00
1.00071654e+00
1.00073143e+00
1.00074637e+00
1.00076127e+00
1.00077606e+00
1.00079073e+00
1.00080527e+00
1.00081973e+00
1.00083417e+00
1.00084868e+00
1.00086338e+00
1.00087839e+00
1.00089385e+00
1.00090992e+00
1.00092674e+00
1.00094447e+00
1.00096324e+00
1.00098320e+00
1.00100444e+00
1.00102708e+00
1.00105119e+00
1.00107681e+00
1.00110398e+00
1.00113271e+00
1.00116298e+00
1.00119475e+00
1.00122796e+00
1.00126253e+00
1.00129836e+00
1.00133534e+00
1.00137335e+00
1.00141225e+00
1.00145191e+00
1.00149219e+00
1.00153295e+00
1.00157406e+00
1.00161540e+00
1.00165685e+00
1.00169831e+00
1.00173970e+00
1.00178096e+00
1.00182203e+00
1.00186289e+00
1.00190355e+00
1.00194401e+00
1.00198432e+00
1.00202454e+00
1.00206473e+00
1.00210500e+00
1.00214543e+00
1.00218614e+00
1.00222724e+00
1.00226884e+00
1.00231105e+00
1.00235396e+00
1.00239765e+00
1.00244220e+00
1.00248763e+00
1.00253396e+00
1.00258118e+00
1.00262926e+00
1.00267810e+00
1.00272762e+00
1.00277766e+00
1.00282808e+00
1.00287866e+00
1.00292921e+00
1.00297949e+00
1.00302925e+00
1.00307823e+00
1.00312621e+00
1.00317289e+00
1.00321802e+00
1.00326144e+00
1.00330292e+00
1.00334219e+00
1.00337917e+00
1.00341383e+00
1.00344593e+00
1.00347527e+00
1.00350220e+00
1.00352669e+00
1.00354823e+00
1.00356712e+00
1.00358424e+00
1.00359876e+00
1.00361011e+00
1.00362003e+00
1.00362881e+00
1.00363385e+00
1.00363679e+00
1.00363962e+00
1.00364047e+00
1.00085048e+00
1.00084541e+00
1.00083873e+00
1.00082982e+00
1.00081914e+00
1.00080738e+00
1.00079409e+00
1.00077926e+00
1.00076372e+00
1.00074774e+00
1.00073114e+00
1.00071434e+00
1.00069792e+00
1.00068202e+00
1.00066674e+00
1.00065253e+00
1.00063967e+00
1.00062827e+00
1.00061852e+00
1.00061064e+00
1.00060473e+00
1.00060084e+00
1.00059902e+00
1.00059929e+00
1.00060160e+00
1.00060587e+00
1.00061200e+00
1.00061985e+00
1.00062927e+00
1.00064007e+00
1.00065208e+00
1.00066508e+00
1.00067888e+00
1.00069330e+00
1.00070814e+00
1.00072325e+00
1.00073848e+00
1.00075371e+00
1.00076886e+00
1.00078387e+00
1.00079872e+00
1.00081340e+00
1.00082796e+00
1.00084246e+00
1.00085699e+00
1.00087165e+00
1.00088658e+00
1.00090193e+00
1.00091783e+00
1.00093444e+00
1.00095191e+00
1.00097038e+00
1.00098998e+00
1.00101083e+00
1.00103304e+00
1.00105667e+00
1.00108178e+00
1.00110842e+00
1.00113658e+00
1.00116627e+00
1.00119743e+00
1.00123002e+00
1.00126396e+00
1.00129916e+00
1.00133551e+00
1.00137289e+00
1.00141118e+00
1.00145024e+00
1.00148994e+00
1.00153014e+00
1.00157071e+00
1.00161154e+00
1.00165252e+00
1.00169354e+00
1.00173453e+00
1.00177542e+00
1.00181618e+00
1.00185678e+00
1.00189721e+00
1.00193750e+00
1.00197769e+00
1.00201783e+00
1.00205801e+00
1.00209830e+00
1.00213881e+00
1.00217964e+00
1.00222090e+00
1.00226271e+00
1.00230515e+00
1.00234833e+00
1.00239232e+00
1.00243717e+00
1.00248292e+00
1.00252957e+00
1.00257711e+00
1.00262548e+00
1.00267460e+00
1.00272435e+00
1.00277460e+00
1.00282516e+00
1.00287585e+00
1.00292642e+00
1.00297666e+00
1.00302631e+00
1.00307511e+00
1.00312280e+00
1.00316915e+00
1.00321391e+00
1.00325680e+00
1.00329770e+00
1.00333644e+00
1.00337278e+00
1.00340659e+00
1.00343800e+00
1.00346684e+00
1.00349283e+00
1.00351627e+00
1.00353749e+00
1.00355598e+00
1.00357166e+00
1.00358549e+00
1.00359745e+00
1.00360652e+00
1.00361350e+00
1.00361935e+00
1.00362321e+00
1.00362449e+00
1.00362443e+00
1.00083883e+00
1.00083374e+00
1.00082705e+00
1.00081818e+00
1.00080776e+00
1.00079627e+00
1.00078315e+00
1.00076868e+00
1.00075363e+00
1.00073797e+00
1.00072174e+00
1.00070554e+00
1.00068970e+00
1.00067429e+00
1.00065962e+00
1.00064613e+00
1.00063394e+00
1.00062322e+00
1.00061423e+00
1.00060714e+00
1.00060200e+00
1.00059889e+00
1.00059788e+00
1.00059894e+00
1.00060203e+00
1.00060707e+00
1.00061395e+00
1.00062254e+00
1.00063266e+00
1.00064413e+00
1.00065677e+00
1.00067038e+00
1.00068474e+00
1.00069967e+00
1.00071500e+00
1.00073054e+00
1.00074616e+00
1.00076175e+00
1.00077721e+00
1.00079249e+00
1.00080755e+00
1.00082241e+00
1.00083710e+00
1.00085168e+00
1.00086624e+00
1.00088088e+00
1.00089575e+00
1.00091097e+00
1.00092670e+00
1.00094308e+00
1.00096027e+00
1.00097842e+00
1.00099764e+00
1.00101807e+00
1.00103980e+00
1.00106291e+00
1.00108748e+00
1.00111353e+00
1.00114107e+00
1.00117011e+00
1.00120061e+00
1.00123253e+00
1.00126578e+00
1.00130028e+00
1.00133594e+00
1.00137263e+00
1.00141024e+00
1.00144863e+00
1.00148769e+00
1.00152727e+00
1.00156725e+00
1.00160752e+00
1.00164797e+00
1.00168850e+00
1.00172905e+00
1.00176955e+00
1.00180995e+00
1.00185025e+00
1.00189043e+00
1.00193053e+00
1.00197058e+00
1.00201064e+00
1.00205078e+00
1.00209109e+00
1.00213168e+00
1.00217264e+00
1.00221407e+00
1.00225609e+00
1.00229879e+00
1.00234225e+00
1.00238654e+00
1.00243172e+00
1.00247780e+00
1.00252480e+00
1.00257266e+00
1.00262134e+00
1.00267075e+00
1.00272075e+00
1.00277120e+00
1.00282191e+00
1.00287268e+00
1.00292327e+00
1.00297345e+00
1.00302296e+00
1.00307156e+00
1.00311894e+00
1.00316490e+00
1.00320920e+00
1.00325159e+00
1.00329185e+00
1.00332990e+00
1.00336558e+00
1.00339866e+00
1.00342915e+00
1.00345718e+00
1.00348253e+00
1.00350508e+00
1.00352528e+00
1.00354322e+00
1.00355838e+00
1.00357122e+00
1.00358250e+00
1.00359143e+00
1.00359789e+00
1.00360331e+00
1.00360690e+00
1.00360775e+00
1.00360812e+00
1.00082566e+00
1.00082036e+00
1.00081328e+00
1.00080508e+00
1.00079523e+00
1.00078344e+00
1.00077051e+00
1.00075686e+00
1.00074212e+00
1.00072661e+00
1.00071105e+00
1.00069555e+00
1.00068013e+00
1.00066530e+00
1.00065145e+00
1.00063866e+00
1.00062715e+00
1.00061725e+00
1.00060912e+00
1.00060284e+00
1.00059854e+00
1.00059633e+00
1.00059620e+00
1.00059813e+00
1.00060209e+00
1.00060800e+00
1.00061572e+00
1.00062512e+00
1.00063603e+00
1.00064826e+00
1.00066162e+00
1.00067590e+00
1.00069090e+00
1.00070643e+00
1.00072230e+00
1.00073835e+00
1.00075443e+00
1.00077043e+00
1.00078625e+00
1.00080184e+00
1.00081717e+00
1.00083225e+00
1.00084710e+00
1.00086178e+00
1.00087640e+00
1.00089104e+00
1.00090585e+00
1.00092096e+00
1.00093651e+00
1.00095266e+00
1.00096957e+00
1.00098736e+00
1.00100618e+00
1.00102616e+00
1.00104738e+00
1.00106995e+00
1.00109392e+00
1.00111934e+00
1.00114622e+00
1.00117457e+00
1.00120435e+00
1.00123553e+00
1.00126804e+00
1.00130179e+00
1.00133670e+00
1.00137264e+00
1.00140951e+00
1.00144719e+00
1.00148554e+00
1.00152444e+00
1.00156378e+00
1.00160344e+00
1.00164331e+00
1.00168332e+00
1.00172338e+00
1.00176345e+00
1.00180347e+00
1.00184344e+00
1.00188335e+00
1.00192323e+00
1.00196313e+00
1.00200309e+00
1.00204320e+00
1.00208353e+00
1.00212419e+00
1.00216528e+00
1.00220689e+00
1.00224913e+00
1.00229209e+00
1.00233585e+00
1.00238046e+00
1.00242597e+00
1.00247240e+00
1.00251974e+00
1.00256794e+00
1.00261694e+00
1.00266662e+00
1.00271687e+00
1.00276752e+00
1.00281836e+00
1.00286920e+00
1.00291980e+00
1.00296990e+00
1.00301923e+00
1.00306757e+00
1.00311465e+00
1.00316017e+00
1.00320393e+00
1.00324576e+00
1.00328542e+00
1.00332268e+00
1.00335753e+00
1.00338992e+00
1.00341959e+00
1.00344653e+00
1.00347107e+00
1.00349305e+00
1.00351216e+00
1.00352897e+00
1.00354387e+00
1.00355620e+00
1.00356609e+00
1.00357462e+00
1.00358147e+00
1.00358591e+00
1.00358865e+00
1.00359039e+00
1.00359096e+00
1.00081047e+00
1.00080550e+00
1.00079860e+00
1.00079038e+00
1.00078060e+00
1.00076927e+00
1.00075682e+00
1.00074338e+00
1.00072898e+00
1.00071413e+00
1.00069914e+00
1.00068407e+00
1.00066931e+00
1.00065528e+00
1.00064212e+00
1.00063004e+00
1.00061939e+00
1.00061038e+00
1.00060310e+00
1.00059772e+00
1.00059438e+00
1.00059311e+00
1.00059392e+00
1.00059682e+00
1.00060174e+00
1.00060858e+00
1.00061722e+00
1.00062751e+00
1.00063929e+00
1.00065236e+00
1.00066651e+00
1.00068155e+00
1.00069727e+00
1.00071347e+00
1.00072996e+00
1.00074658e+00
1.00076319e+00
1.00077966e+00
1.00079591e+00
1.00081187e+00
1.00082751e+00
1.00084284e+00
1.00085789e+00
1.00087273e+00
1.00088742e+00
1.00090209e+00
1.00091686e+00
1.00093186e+00
1.00094725e+00
1.00096317e+00
1.00097978e+00
1.00099722e+00
1.00101562e+00
1.00103512e+00
1.00105582e+00
1.00107780e+00
1.00110114e+00
1.00112589e+00
1.00115207e+00
1.00117967e+00
1.00120870e+00
1.00123909e+00
1.00127080e+00
1.00130376e+00
1.00133785e+00
1.00137300e+00
1.00140908e+00
1.00144598e+00
1.00148358e+00
1.00152176e+00
1.00156041e+00
1.00159941e+00
1.00163867e+00
1.00167811e+00
1.00171765e+00
1.00175725e+00
1.00179686e+00
1.00183648e+00
1.00187610e+00
1.00191575e+00
1.00195547e+00
1.00199533e+00
1.00203539e+00
1.00207574e+00
1.00211647e+00
1.00215769e+00
1.00219948e+00
1.00224195e+00
1.00228517e+00
1.00232922e+00
1.00237415e+00
1.00242000e+00
1.00246678e+00
1.00251445e+00
1.00256298e+00
1.00261228e+00
1.00266224e+00
1.00271271e+00
1.00276352e+00
1.00281448e+00
1.00286535e+00
1.00291591e+00
1.00296589e+00
1.00301503e+00
1.00306306e+00
1.00310974e+00
1.00315481e+00
1.00319802e+00
1.00323917e+00
1.00327813e+00
1.00331469e+00
1.00334867e+00
1.00338011e+00
1.00340899e+00
1.00343510e+00
1.00345853e+00
1.00347957e+00
1.00349808e+00
1.00351398e+00
1.00352777e+00
1.00353959e+00
1.00354910e+00
1.00355678e+00
1.00356302e+00
1.00356732e+00
1.00356997e+00
1.00357138e+00
1.00357161e+00
1.00079358e+00
1.00078871e+00
1.00078243e+00
1.00077422e+00
1.00076448e+00
1.00075374e+00
1.00074166e+00
1.00072837e+00
1.00071455e+00
1.00070038e+00
1.00068580e+00
1.00067131e+00
1.00065737e+00
1.00064405e+00
1.00063157e+00
1.00062037e+00
1.00061065e+00
1.00060250e+00
1.00059615e+00
1.00059178e+00
1.00058945e+00
1.00058917e+00
1.00059101e+00
1.00059494e+00
1.00060088e+00
1.00060873e+00
1.00061837e+00
1.00062964e+00
1.00064236e+00
1.00065634e+00
1.00067137e+00
1.00068724e+00
1.00070375e+00
1.00072069e+00
1.00073788e+00
1.00075515e+00
1.00077234e+00
1.00078936e+00
1.00080608e+00
1.00082247e+00
1.00083848e+00
1.00085412e+00
1.00086942e+00
1.00088444e+00
1.00089925e+00
1.00091397e+00
1.00092872e+00
1.00094364e+00
1.00095887e+00
1.00097457e+00
1.00099088e+00
1.00100796e+00
1.00102594e+00
1.00104495e+00
1.00106509e+00
1.00108648e+00
1.00110916e+00
1.00113321e+00
1.00115864e+00
1.00118548e+00
1.00121370e+00
1.00124327e+00
1.00127414e+00
1.00130624e+00
1.00133949e+00
1.00137379e+00
1.00140904e+00
1.00144512e+00
1.00148193e+00
1.00151934e+00
1.00155725e+00
1.00159556e+00
1.00163417e+00
1.00167301e+00
1.00171200e+00
1.00175110e+00
1.00179028e+00
1.00182952e+00
1.00186884e+00
1.00190824e+00
1.00194779e+00
1.00198753e+00
1.00202754e+00
1.00206791e+00
1.00210871e+00
1.00215006e+00
1.00219203e+00
1.00223472e+00
1.00227820e+00
1.00232255e+00
1.00236780e+00
1.00241398e+00
1.00246108e+00
1.00250908e+00
1.00255792e+00
1.00260750e+00
1.00265770e+00
1.00270837e+00
1.00275932e+00
1.00281035e+00
1.00286123e+00
1.00291169e+00
1.00296150e+00
1.00301039e+00
1.00305808e+00
1.00310431e+00
1.00314885e+00
1.00319149e+00
1.00323195e+00
1.00327010e+00
1.00330586e+00
1.00333905e+00
1.00336951e+00
1.00339737e+00
1.00342269e+00
1.00344520e+00
1.00346508e+00
1.00348276e+00
1.00349806e+00
1.00351081e+00
1.00352169e+00
1.00353095e+00
1.00353805e+00
1.00354336e+00
1.00354756e+00
1.00355030e+00
1.00355121e+00
1.00355128e+00
1.00077564e+00
1.00077082e+00
1.00076443e+00
1.00075653e+00
1.00074725e+00
1.00073666e+00
1.00072485e+00
1.00071219e+00
1.00069890e+00
1.00068510e+00
1.00067115e+00
1.00065746e+00
1.00064417e+00
1.00063154e+00
1.00061996e+00
1.00060967e+00
1.00060081e+00
1.00059361e+00
1.00058830e+00
1.00058496e+00
1.00058365e+00
1.00058446e+00
1.00058740e+00
1.00059241e+00
1.00059943e+00
1.00060836e+00
1.00061907e+00
1.00063138e+00
1.00064512e+00
1.00066008e+00
1.00067606e+00
1.00069284e+00
1.00071021e+00
1.00072797e+00
1.00074593e+00
1.00076391e+00
1.00078178e+00
1.00079940e+00
1.00081667e+00
1.00083355e+00
1.00084999e+00
1.00086600e+00
1.00088159e+00
1.00089684e+00
1.00091181e+00
1.00092662e+00
1.00094138e+00
1.00095624e+00
1.00097133e+00
1.00098682e+00
1.00100285e+00
1.00101957e+00
1.00103712e+00
1.00105563e+00
1.00107522e+00
1.00109598e+00
1.00111799e+00
1.00114131e+00
1.00116598e+00
1.00119201e+00
1.00121939e+00
1.00124811e+00
1.00127810e+00
1.00130932e+00
1.00134168e+00
1.00137509e+00
1.00140947e+00
1.00144469e+00
1.00148066e+00
1.00151727e+00
1.00155442e+00
1.00159200e+00
1.00162993e+00
1.00166814e+00
1.00170656e+00
1.00174515e+00
1.00178387e+00
1.00182273e+00
1.00186172e+00
1.00190087e+00
1.00194023e+00
1.00197985e+00
1.00201981e+00
1.00206018e+00
1.00210106e+00
1.00214253e+00
1.00218467e+00
1.00222758e+00
1.00227132e+00
1.00231595e+00
1.00236150e+00
1.00240798e+00
1.00245540e+00
1.00250370e+00
1.00255281e+00
1.00260264e+00
1.00265304e+00
1.00270385e+00
1.00275489e+00
1.00280593e+00
1.00285674e+00
1.00290708e+00
1.00295665e+00
1.00300521e+00
1.00305250e+00
1.00309824e+00
1.00314218e+00
1.00318413e+00
1.00322390e+00
1.00326125e+00
1.00329608e+00
1.00332838e+00
1.00335800e+00
1.00338484e+00
1.00340906e+00
1.00343076e+00
1.00344979e+00
1.00346633e+00
1.00348074e+00
1.00349298e+00
1.00350303e+00
1.00351136e+00
1.00351808e+00
1.00352315e+00
1.00352681e+00
1.00352909e+00
1.00353008e+00
1.00353040e+00
1.00075605e+00
1.00075129e+00
1.00074502e+00
1.00073750e+00
1.00072856e+00
1.00071815e+00
1.00070677e+00
1.00069469e+00
1.00068181e+00
1.00066853e+00
1.00065533e+00
1.00064231e+00
1.00062968e+00
1.00061790e+00
1.00060723e+00
1.00059780e+00
1.00058987e+00
1.00058373e+00
1.00057946e+00
1.00057716e+00
1.00057696e+00
1.00057891e+00
1.00058298e+00
1.00058912e+00
1.00059730e+00
1.00060737e+00
1.00061920e+00
1.00063262e+00
1.00064744e+00
1.00066346e+00
1.00068045e+00
1.00069821e+00
1.00071652e+00
1.00073517e+00
1.00075398e+00
1.00077275e+00
1.00079135e+00
1.00080965e+00
1.00082755e+00
1.00084498e+00
1.00086192e+00
1.00087834e+00
1.00089429e+00
1.00090982e+00
1.00092500e+00
1.00093994e+00
1.00095475e+00
1.00096958e+00
1.00098456e+00
1.00099986e+00
1.00101562e+00
1.00103199e+00
1.00104912e+00
1.00106714e+00
1.00108616e+00
1.00110629e+00
1.00112762e+00
1.00115020e+00
1.00117408e+00
1.00119928e+00
1.00122581e+00
1.00125364e+00
1.00128273e+00
1.00131303e+00
1.00134447e+00
1.00137697e+00
1.00141044e+00
1.00144478e+00
1.00147989e+00
1.00151567e+00
1.00155202e+00
1.00158885e+00
1.00162609e+00
1.00166365e+00
1.00170148e+00
1.00173954e+00
1.00177780e+00
1.00181626e+00
1.00185492e+00
1.00189382e+00
1.00193299e+00
1.00197249e+00
1.00201240e+00
1.00205278e+00
1.00209372e+00
1.00213531e+00
1.00217763e+00
1.00222074e+00
1.00226473e+00
1.00230962e+00
1.00235545e+00
1.00240223e+00
1.00244992e+00
1.00249848e+00
1.00254783e+00
1.00259786e+00
1.00264840e+00
1.00269931e+00
1.00275038e+00
1.00280137e+00
1.00285205e+00
1.00290216e+00
1.00295145e+00
1.00299962e+00
1.00304641e+00
1.00309160e+00
1.00313492e+00
1.00317612e+00
1.00321508e+00
1.00325163e+00
1.00328556e+00
1.00331684e+00
1.00334552e+00
1.00337146e+00
1.00339462e+00
1.00341526e+00
1.00343349e+00
1.00344914e+00
1.00346251e+00
1.00347401e+00
1.00348350e+00
1.00349102e+00
1.00349714e+00
1.00350195e+00
1.00350517e+00
1.00350712e+00
1.00350828e+00
1.00350855e+00
1.00073494e+00
1.00073045e+00
1.00072448e+00
1.00071704e+00
1.00070828e+00
1.00069839e+00
1.00068750e+00
1.00067571e+00
1.00066336e+00
1.00065082e+00
1.00063822e+00
1.00062581e+00
1.00061403e+00
1.00060313e+00
1.00059327e+00
1.00058476e+00
1.00057788e+00
1.00057276e+00
1.00056952e+00
1.00056835e+00
1.00056932e+00
1.00057241e+00
1.00057765e+00
1.00058500e+00
1.00059436e+00
1.00060562e+00
1.00061863e+00
1.00063322e+00
1.00064918e+00
1.00066631e+00
1.00068439e+00
1.00070321e+00
1.00072253e+00
1.00074214e+00
1.00076186e+00
1.00078150e+00
1.00080092e+00
1.00081997e+00
1.00083856e+00
1.00085662e+00
1.00087411e+00
1.00089103e+00
1.00090740e+00
1.00092326e+00
1.00093870e+00
1.00095382e+00
1.00096873e+00
1.00098356e+00
1.00099848e+00
1.00101361e+00
1.00102913e+00
1.00104517e+00
1.00106189e+00
1.00107942e+00
1.00109788e+00
1.00111739e+00
1.00113803e+00
1.00115986e+00
1.00118294e+00
1.00120731e+00
1.00123296e+00
1.00125988e+00
1.00128805e+00
1.00131741e+00
1.00134792e+00
1.00137948e+00
1.00141203e+00
1.00144546e+00
1.00147969e+00
1.00151462e+00
1.00155016e+00
1.00158623e+00
1.00162275e+00
1.00165965e+00
1.00169689e+00
1.00173441e+00
1.00177221e+00
1.00181027e+00
1.00184860e+00
1.00188724e+00
1.00192623e+00
1.00196561e+00
1.00200546e+00
1.00204585e+00
1.00208686e+00
1.00212856e+00
1.00217104e+00
1.00221436e+00
1.00225856e+00
1.00230370e+00
1.00234978e+00
1.00239681e+00
1.00244474e+00
1.00249351e+00
1.00254304e+00
1.00259319e+00
1.00264382e+00
1.00269474e+00
1.00274575e+00
1.00279662e+00
1.00284709e+00
1.00289689e+00
1.00294579e+00
1.00299350e+00
1.00303974e+00
1.00308426e+00
1.00312687e+00
1.00316732e+00
1.00320540e+00
1.00324102e+00
1.00327407e+00
1.00330439e+00
1.00333198e+00
1.00335695e+00
1.00337924e+00
1.00339884e+00
1.00341601e+00
1.00343092e+00
1.00344351e+00
1.00345404e+00
1.00346284e+00
1.00346995e+00
1.00347547e+00
1.00347968e+00
1.00348271e+00
1.00348460e+00
1.00348551e+00
1.00348568e+00
1.00071253e+00
1.00070813e+00
1.00070247e+00
1.00069527e+00
1.00068680e+00
1.00067732e+00
1.00066679e+00
1.00065546e+00
1.00064374e+00
1.00063178e+00
1.00061976e+00
1.00060813e+00
1.00059718e+00
1.00058706e+00
1.00057809e+00
1.00057059e+00
1.00056471e+00
1.00056061e+00
1.00055849e+00
1.00055847e+00
1.00056058e+00
1.00056486e+00
1.00057132e+00
1.00057990e+00
1.00059049e+00
1.00060298e+00
1.00061722e+00
1.00063302e+00
1.00065018e+00
1.00066849e+00
1.00068772e+00
1.00070765e+00
1.00072805e+00
1.00074870e+00
1.00076941e+00
1.00079000e+00
1.00081030e+00
1.00083018e+00
1.00084954e+00
1.00086830e+00
1.00088643e+00
1.00090391e+00
1.00092076e+00
1.00093703e+00
1.00095278e+00
1.00096813e+00
1.00098319e+00
1.00099808e+00
1.00101296e+00
1.00102797e+00
1.00104327e+00
1.00105901e+00
1.00107535e+00
1.00109241e+00
1.00111033e+00
1.00112921e+00
1.00114916e+00
1.00117026e+00
1.00119254e+00
1.00121606e+00
1.00124083e+00
1.00126684e+00
1.00129408e+00
1.00132250e+00
1.00135205e+00