# vtk DataFile Version 2.0
LBM Flow Field - Timestep 730
ASCII
DATASET STRUCTURED_POINTS
DIMENSIONS 128 128 1
ORIGIN 0.0 0.0 0.0
SPACING 1.0 1.0 1.0
POINT_DATA 16384
SCALARS density double 1
LOOKUP_TABLE default
1.00754846e+00
1.00752227e+00
1.00747146e+00
1.00735204e+00
1.00719128e+00
1.00701376e+00
1.00678971e+00
1.00651607e+00
1.00622442e+00
1.00591434e+00
1.00557084e+00
1.00521709e+00
1.00487197e+00
1.00453117e+00
1.00420134e+00
1.00389823e+00
1.00362509e+00
1.00338025e+00
1.00316689e+00
1.00298485e+00
1.00282991e+00
1.00269770e+00
1.00258447e+00
1.00248539e+00
1.00239618e+00
1.00231318e+00
1.00223361e+00
1.00215542e+00
1.00207745e+00
1.00199902e+00
1.00192004e+00
1.00184076e+00
1.00176157e+00
1.00168281e+00
1.00160484e+00
1.00152787e+00
1.00145196e+00
1.00137704e+00
1.00130301e+00
1.00122970e+00
1.00115700e+00
1.00108488e+00
1.00101342e+00
1.00094285e+00
1.00087352e+00
1.00080589e+00
1.00074048e+00
1.00067783e+00
1.00061845e+00
1.00056279e+00
1.00051118e+00
1.00046383e+00
1.00042080e+00
1.00038201e+00
1.00034730e+00
1.00031635e+00
1.00028883e+00
1.00026432e+00
1.00024239e+00
1.00022259e+00
1.00020449e+00
1.00018764e+00
1.00017163e+00
1.00015604e+00
1.00014047e+00
1.00012452e+00
1.00010780e+00
1.00008994e+00
1.00007058e+00
1.00004936e+00
1.00002598e+00
1.00000016e+00
9.99971655e-01
9.99940291e-01
9.99905930e-01
9.99868493e-01
9.99827954e-01
9.99784340e-01
9.99737725e-01
9.99688225e-01
9.99635993e-01
9.99581213e-01
9.99524097e-01
9.99464880e-01
9.99403818e-01
9.99341184e-01
9.99277265e-01
9.99212349e-01
9.99146724e-01
9.99080648e-01
9.99014328e-01
9.98947889e-01
9.98881363e-01
9.98814590e-01
9.98747224e-01
9.98678697e-01
9.98608191e-01
9.98534509e-01
9.98456228e-01
9.98371650e-01
9.98278824e-01
9.98175569e-01
9.98059791e-01
9.97929340e-01
9.97782621e-01
9.97618495e-01
9.97436164e-01
9.97235971e-01
9.97020673e-01
9.96792564e-01
9.96553974e-01
9.96311962e-01
9.96074767e-01
9.95844158e-01
9.95625198e-01
9.95431808e-01
9.95266141e-01
9.95122024e-01
9.95008601e-01
9.94934519e-01
9.94883186e-01
9.94851723e-01
9.94845508e-01
9.94853388e-01
9.94865145e-01
9.94885974e-01
9.94906633e-01
9.94921619e-01
1.00753655e+00
1.00749699e+00
1.00743054e+00
1.00731649e+00
1.00715659e+00
1.00697158e+00
1.00675061e+00
1.00648590e+00
1.00619268e+00
1.00588403e+00
1.00555183e+00
1.00520560e+00
1.00486214e+00
1.00452671e+00
1.00420355e+00
1.00390172e+00
1.00362791e+00
1.00338294e+00
1.00316802e+00
1.00298229e+00
1.00282370e+00
1.00268810e+00
1.00257165e+00
1.00246978e+00
1.00237876e+00
1.00229487e+00
1.00221539e+00
1.00213811e+00
1.00206184e+00
1.00198570e+00
1.00190946e+00
1.00183312e+00
1.00175696e+00
1.00168118e+00
1.00160607e+00
1.00153174e+00
1.00145826e+00
1.00138558e+00
1.00131361e+00
1.00124221e+00
1.00117131e+00
1.00110091e+00
1.00103110e+00
1.00096211e+00
1.00089425e+00
1.00082795e+00
1.00076368e+00
1.00070194e+00
1.00064318e+00
1.00058781e+00
1.00053615e+00
1.00048837e+00
1.00044456e+00
1.00040467e+00
1.00036854e+00
1.00033593e+00
1.00030653e+00
1.00027996e+00
1.00025584e+00
1.00023376e+00
1.00021332e+00
1.00019410e+00
1.00017571e+00
1.00015776e+00
1.00013985e+00
1.00012163e+00
1.00010270e+00
1.00008273e+00
1.00006138e+00
1.00003831e+00
1.00001324e+00
9.99985913e-01
9.99956111e-01
9.99923663e-01
9.99888445e-01
9.99850387e-01
9.99809468e-01
9.99765713e-01
9.99719194e-01
9.99670022e-01
9.99618342e-01
9.99564329e-01
9.99508186e-01
9.99450133e-01
9.99390412e-01
9.99329277e-01
9.99266992e-01
9.99203821e-01
9.99140016e-01
9.99075795e-01
9.99011332e-01
9.98946703e-01
9.98881883e-01
9.98816661e-01
9.98750666e-01
9.98683260e-01
9.98613575e-01
9.98540382e-01
9.98462283e-01
9.98377519e-01
9.98284183e-01
9.98180095e-01
9.98063324e-01
9.97931841e-01
9.97784150e-01
9.97619020e-01
9.97436336e-01
9.97236719e-01
9.97022242e-01
9.96795169e-01
9.96559717e-01
9.96321806e-01
9.96087061e-01
9.95859506e-01
9.95646635e-01
9.95456965e-01
9.95290738e-01
9.95149040e-01
9.95039044e-01
9.94962416e-01
9.94906053e-01
9.94873543e-01
9.94862825e-01
9.94866132e-01
9.94874406e-01
9.94889581e-01
9.94899708e-01
9.94911611e-01
1.00752157e+00
1.00746752e+00
1.00737051e+00
1.00726666e+00
1.00712441e+00
1.00692008e+00
1.00668881e+00
1.00644398e+00
1.00615656e+00
1.00583556e+00
1.00551136e+00
1.00517977e+00
1.00483531e+00
1.00449914e+00
1.00418267e+00
1.00388326e+00
1.00360662e+00
1.00336045e+00
1.00314405e+00
1.00295509e+00
1.00279288e+00
1.00265445e+00
1.00253546e+00
1.00243195e+00
1.00234024e+00
1.00225680e+00
1.00217890e+00
1.00210435e+00
1.00203159e+00
1.00195974e+00
1.00188835e+00
1.00181718e+00
1.00174629e+00
1.00167580e+00
1.00160582e+00
1.00153641e+00
1.00146759e+00
1.00139930e+00
1.00133144e+00
1.00126392e+00
1.00119668e+00
1.00112973e+00
1.00106315e+00
1.00099715e+00
1.00093201e+00
1.00086809e+00
1.00080580e+00
1.00074557e+00
1.00068781e+00
1.00063286e+00
1.00058102e+00
1.00053247e+00
1.00048729e+00
1.00044546e+00
1.00040688e+00
1.00037137e+00
1.00033867e+00
1.00030849e+00
1.00028050e+00
1.00025436e+00
1.00022973e+00
1.00020624e+00
1.00018354e+00
1.00016130e+00
1.00013916e+00
1.00011680e+00
1.00009388e+00
1.00007009e+00
1.00004514e+00
1.00001873e+00
9.99990626e-01
9.99960595e-01
9.99928452e-01
9.99894051e-01
9.99857290e-01
9.99818110e-01
9.99776499e-01
9.99732487e-01
9.99686140e-01
9.99637562e-01
9.99586887e-01
9.99534273e-01
9.99479901e-01
9.99423969e-01
9.99366690e-01
9.99308283e-01
9.99248974e-01
9.99188983e-01
9.99128510e-01
9.99067720e-01
9.99006728e-01
9.98945553e-01
9.98884087e-01
9.98822079e-01
9.98759090e-01
9.98694402e-01
9.98627068e-01
9.98555899e-01
9.98479398e-01
9.98395758e-01
9.98303096e-01
9.98199379e-01
9.98082561e-01
9.97950833e-01
9.97802688e-01
9.97637095e-01
9.97454353e-01
9.97255253e-01
9.97040751e-01
9.96814543e-01
9.96582337e-01
9.96346763e-01
9.96111736e-01
9.95888327e-01
9.95682279e-01
9.95490703e-01
9.95321783e-01
9.95188260e-01
9.95080468e-01
9.94991723e-01
9.94934853e-01
9.94906658e-01
9.94887579e-01
9.94880574e-01
9.94888340e-01
9.94899035e-01
9.94902084e-01
9.94901665e-01
1.00745955e+00
1.00740994e+00
1.00732184e+00
1.00720063e+00
1.00704854e+00
1.00685823e+00
1.00662849e+00
1.00637177e+00
1.00609001e+00
1.00578222e+00
1.00545786e+00
1.00512555e+00
1.00479029e+00
1.00446072e+00
1.00414347e+00
1.00384492e+00
1.00357026e+00
1.00332258e+00
1.00310257e+00
1.00291077e+00
1.00274548e+00
1.00260370e+00
1.00248203e+00
1.00237712e+00
1.00228517e+00
1.00220287e+00
1.00212744e+00
1.00205669e+00
1.00198890e+00
1.00192291e+00
1.00185800e+00
1.00179377e+00
1.00173000e+00
1.00166662e+00
1.00160362e+00
1.00154096e+00
1.00147860e+00
1.00141646e+00
1.00135447e+00
1.00129254e+00
1.00123063e+00
1.00116874e+00
1.00110694e+00
1.00104538e+00
1.00098427e+00
1.00092390e+00
1.00086458e+00
1.00080665e+00
1.00075043e+00
1.00069622e+00
1.00064426e+00
1.00059474e+00
1.00054774e+00
1.00050330e+00
1.00046138e+00
1.00042187e+00
1.00038460e+00
1.00034938e+00
1.00031597e+00
1.00028412e+00
1.00025355e+00
1.00022400e+00
1.00019518e+00
1.00016682e+00
1.00013865e+00
1.00011038e+00
1.00008176e+00
1.00005254e+00
1.00002247e+00
9.99991327e-01
9.99958920e-01
9.99925069e-01
9.99889630e-01
9.99852492e-01
9.99813580e-01
9.99772855e-01
9.99730314e-01
9.99685987e-01
9.99639939e-01
9.99592258e-01
9.99543059e-01
9.99492476e-01
9.99440658e-01
9.99387764e-01
9.99333965e-01
9.99279432e-01
9.99224334e-01
9.99168828e-01
9.99113049e-01
9.99057090e-01
9.99000979e-01
9.98944657e-01
9.98887941e-01
9.98830485e-01
9.98771749e-01
9.98710972e-01
9.98647135e-01
9.98578970e-01
9.98504924e-01
9.98423246e-01
9.98332030e-01
9.98229306e-01
9.98113048e-01
9.97981605e-01
9.97833718e-01
9.97668601e-01
9.97486141e-01
9.97287622e-01
9.97075003e-01
9.96851153e-01
9.96620083e-01
9.96387110e-01
9.96157249e-01
9.95936293e-01
9.95729483e-01
9.95541701e-01
9.95377577e-01
9.95239834e-01
9.95126660e-01
9.95040237e-01
9.94982088e-01
9.94942060e-01
9.94916283e-01
9.94908011e-01
9.94908692e-01
9.94909741e-01
9.94911515e-01
9.94904839e-01
1.00737010e+00
1.00731927e+00
1.00724919e+00
1.00711814e+00
1.00694903e+00
1.00676841e+00
1.00654807e+00
1.00628167e+00
1.00600119e+00
1.00570869e+00
1.00538826e+00
1.00505634e+00
1.00473115e+00
1.00440888e+00
1.00409235e+00
1.00379588e+00
1.00352320e+00
1.00327352e+00
1.00305034e+00
1.00285553e+00
1.00268647e+00
1.00254092e+00
1.00241658e+00
1.00231007e+00
1.00221790e+00
1.00213706e+00
1.00206470e+00
1.00199847e+00
1.00193657e+00
1.00187754e+00
1.00182033e+00
1.00176431e+00
1.00170900e+00
1.00165410e+00
1.00159943e+00
1.00154487e+00
1.00149031e+00
1.00143566e+00
1.00138085e+00
1.00132582e+00
1.00127054e+00
1.00121498e+00
1.00115921e+00
1.00110330e+00
1.00104737e+00
1.00099160e+00
1.00093619e+00
1.00088134e+00
1.00082730e+00
1.00077426e+00
1.00072242e+00
1.00067194e+00
1.00062293e+00
1.00057547e+00
1.00052958e+00
1.00048527e+00
1.00044246e+00
1.00040106e+00
1.00036097e+00
1.00032204e+00
1.00028410e+00
1.00024698e+00
1.00021051e+00
1.00017448e+00
1.00013873e+00
1.00010305e+00
1.00006727e+00
1.00003122e+00
9.99994732e-01
9.99957662e-01
9.99919876e-01
9.99881261e-01
9.99841725e-01
9.99801200e-01
9.99759643e-01
9.99717036e-01
9.99673386e-01
9.99628725e-01
9.99583106e-01
9.99536600e-01
9.99489294e-01
9.99441287e-01
9.99392686e-01
9.99343603e-01
9.99294150e-01
9.99244439e-01
9.99194567e-01
9.99144614e-01
9.99094634e-01
9.99044630e-01
9.98994534e-01
9.98944187e-01
9.98893315e-01
9.98841467e-01
9.98787995e-01
9.98732070e-01
9.98672599e-01
9.98608207e-01
9.98537333e-01
9.98458256e-01
9.98369015e-01
9.98267688e-01
9.98152473e-01
9.98021724e-01
9.97874324e-01
9.97709935e-01
9.97528386e-01
9.97330840e-01
9.97120340e-01
9.96899496e-01
9.96670666e-01
9.96440803e-01
9.96216560e-01
9.95998766e-01
9.95792400e-01
9.95609378e-01
9.95449147e-01
9.95306114e-01
9.95190639e-01
9.95107545e-01
9.95041252e-01
9.94989469e-01
9.94962741e-01
9.94949637e-01
9.94936750e-01
9.94930189e-01
9.94929935e-01
9.94922473e-01
1.00727518e+00
1.00721537e+00
1.00712575e+00
1.00700834e+00
1.00684878e+00
1.00665083e+00
1.00642926e+00
1.00618204e+00
1.00590488e+00
1.00560719e+00
1.00529841e+00
1.00498143e+00
1.00465904e+00
1.00433941e+00
1.00403183e+00
1.00373976e+00
1.00346577e+00
1.00321536e+00
1.00299148e+00
1.00279326e+00
1.00262012e+00
1.00247140e+00
1.00234457e+00
1.00223641e+00
1.00214412e+00
1.00206485e+00
1.00199575e+00
1.00193433e+00
1.00187859e+00
1.00182686e+00
1.00177783e+00
1.00173052e+00
1.00168420e+00
1.00163837e+00
1.00159270e+00
1.00154694e+00
1.00150094e+00
1.00145460e+00
1.00140785e+00
1.00136063e+00
1.00131293e+00
1.00126471e+00
1.00121595e+00
1.00116667e+00
1.00111688e+00
1.00106663e+00
1.00101595e+00
1.00096495e+00
1.00091371e+00
1.00086235e+00
1.00081099e+00
1.00075977e+00
1.00070880e+00
1.00065821e+00
1.00060810e+00
1.00055855e+00
1.00050962e+00
1.00046134e+00
1.00041373e+00
1.00036676e+00
1.00032041e+00
1.00027462e+00
1.00022932e+00
1.00018445e+00
1.00013993e+00
1.00009567e+00
1.00005160e+00
1.00000765e+00
9.99963740e-01
9.99919821e-01
9.99875837e-01
9.99831746e-01
9.99787517e-01
9.99743129e-01
9.99698575e-01
9.99653860e-01
9.99609001e-01
9.99564025e-01
9.99518972e-01
9.99473886e-01
9.99428820e-01
9.99383828e-01
9.99338965e-01
9.99294283e-01
9.99249826e-01
9.99205628e-01
9.99161710e-01
9.99118062e-01
9.99074639e-01
9.99031345e-01
9.98988015e-01
9.98944378e-01
9.98900037e-01
9.98854452e-01
9.98806886e-01
9.98756380e-01
9.98701763e-01
9.98641641e-01
9.98574410e-01
9.98498292e-01
9.98411397e-01
9.98311879e-01
9.98198100e-01
9.98068571e-01
9.97922169e-01
9.97758774e-01
9.97579076e-01
9.97383913e-01
9.97175333e-01
9.96957432e-01
9.96734145e-01
9.96508601e-01
9.96286238e-01
9.96073810e-01
9.95874946e-01
9.95691845e-01
9.95529038e-01
9.95390905e-01
9.95277356e-01
9.95183786e-01
9.95110062e-01
9.95060119e-01
9.95026236e-01
9.94997826e-01
9.94980239e-01
9.94973191e-01
9.94962968e-01
9.94951691e-01
1.00713946e+00
1.00708079e+00
1.00698064e+00
1.00686443e+00
1.00671444e+00
1.00651567e+00
1.00629196e+00
1.00605432e+00
1.00578596e+00
1.00549355e+00
1.00519593e+00
1.00489028e+00
1.00457505e+00
1.00426451e+00
1.00396545e+00
1.00367660e+00
1.00340445e+00
1.00315565e+00
1.00293024e+00
1.00272858e+00
1.00255247e+00
1.00240072e+00
1.00227087e+00
1.00216101e+00
1.00206865e+00
1.00199075e+00
1.00192466e+00
1.00186795e+00
1.00181829e+00
1.00177377e+00
1.00173284e+00
1.00169420e+00
1.00165686e+00
1.00162015e+00
1.00158353e+00
1.00154668e+00
1.00150941e+00
1.00147160e+00
1.00143321e+00
1.00139418e+00
1.00135450e+00
1.00131412e+00
1.00127296e+00
1.00123094e+00
1.00118795e+00
1.00114388e+00
1.00109864e+00
1.00105214e+00
1.00100434e+00
1.00095524e+00
1.00090487e+00
1.00085333e+00
1.00080073e+00
1.00074721e+00
1.00069296e+00
1.00063815e+00
1.00058294e+00
1.00052750e+00
1.00047198e+00
1.00041650e+00
1.00036117e+00
1.00030607e+00
1.00025127e+00
1.00019683e+00
1.00014280e+00
1.00008922e+00
1.00003613e+00
9.99983579e-01
9.99931601e-01
9.99880238e-01
9.99829527e-01
9.99779506e-01
9.99730208e-01
9.99681667e-01
9.99633912e-01
9.99586969e-01
9.99540862e-01
9.99495614e-01
9.99451242e-01
9.99407759e-01
9.99365175e-01
9.99323492e-01
9.99282701e-01
9.99242786e-01
9.99203716e-01
9.99165440e-01
9.99127886e-01
9.99090953e-01
9.99054493e-01
9.99018300e-01
9.98982101e-01
9.98945519e-01
9.98908040e-01
9.98869008e-01
9.98827598e-01
9.98782750e-01
9.98733211e-01
9.98677552e-01
9.98614120e-01
9.98541128e-01
9.98456817e-01
9.98359383e-01
9.98247182e-01
9.98119122e-01
9.97974417e-01
9.97812645e-01
9.97634848e-01
9.97442863e-01
9.97238106e-01
9.97023844e-01
9.96805659e-01
9.96586584e-01
9.96369322e-01
9.96161756e-01
9.95969034e-01
9.95789416e-01
9.95628067e-01
9.95492549e-01
9.95376991e-01
9.95277435e-01
9.95202647e-01
9.95148617e-01
9.95101367e-01
9.95065439e-01
9.95046272e-01
9.95032525e-01
9.95014722e-01
9.94999879e-01
1.00695452e+00
1.00690253e+00
1.00682246e+00
1.00669477e+00
1.00653546e+00
1.00635643e+00
1.00614282e+00
1.00589960e+00
1.00564187e+00
1.00537046e+00
1.00508101e+00
1.00478163e+00
1.00448288e+00
1.00418597e+00
1.00389180e+00
1.00360881e+00
1.00334346e+00
1.00309612e+00
1.00286906e+00
1.00266620e+00
1.00248796e+00
1.00233291e+00
1.00220041e+00
1.00208909e+00
1.00199635e+00
1.00191952e+00
1.00185611e+00
1.00180356e+00
1.00175942e+00
1.00172154e+00
1.00168805e+00
1.00165743e+00
1.00162849e+00
1.00160029e+00
1.00157219e+00
1.00154380e+00
1.00151488e+00
1.00148531e+00
1.00145505e+00
1.00142409e+00
1.00139240e+00
1.00135990e+00
1.00132646e+00
1.00129191e+00
1.00125599e+00
1.00121846e+00
1.00117905e+00
1.00113751e+00
1.00109365e+00
1.00104733e+00
1.00099849e+00
1.00094716e+00
1.00089344e+00
1.00083748e+00
1.00077952e+00
1.00071981e+00
1.00065863e+00
1.00059625e+00
1.00053297e+00
1.00046904e+00
1.00040471e+00
1.00034022e+00
1.00027578e+00
1.00021159e+00
1.00014783e+00
1.00008469e+00
1.00002233e+00
9.99960933e-01
9.99900644e-01
9.99841615e-01
9.99783980e-01
9.99727862e-01
9.99673363e-01
9.99620571e-01
9.99569552e-01
9.99520354e-01
9.99473008e-01
9.99427525e-01
9.99383899e-01
9.99342105e-01
9.99302105e-01
9.99263840e-01
9.99227236e-01
9.99192199e-01
9.99158615e-01
9.99126348e-01
9.99095227e-01
9.99065052e-01
9.99035574e-01
9.99006484e-01
9.98977387e-01
9.98947801e-01
9.98917119e-01
9.98884562e-01
9.98849195e-01
9.98809905e-01
9.98765370e-01
9.98714080e-01
9.98654390e-01
9.98584559e-01
9.98502864e-01
9.98407660e-01
9.98297416e-01
9.98171113e-01
9.98028473e-01
9.97869425e-01
9.97694432e-01
9.97505758e-01
9.97306403e-01
9.97098326e-01
9.96884955e-01
9.96672474e-01
9.96464876e-01
9.96263529e-01
9.96073544e-01
9.95901300e-01
9.95746994e-01
9.95608709e-01
9.95489968e-01
9.95394336e-01
9.95316024e-01
9.95248529e-01
9.95196647e-01
9.95162314e-01
9.95131085e-01
9.95104756e-01
9.95091423e-01
9.95076780e-01
1.00674612e+00
1.00669087e+00
1.00661645e+00
1.00649514e+00
1.00633836e+00
1.00616415e+00
1.00596067e+00
1.00572896e+00
1.00548332e+00
1.00522479e+00
1.00494944e+00
1.00466715e+00
1.00438396e+00
1.00409792e+00
1.00381477e+00
1.00354281e+00
1.00328303e+00
1.00303758e+00
1.00281243e+00
1.00260964e+00
1.00242882e+00
1.00227114e+00
1.00213682e+00
1.00202389e+00
1.00193037e+00
1.00185433e+00
1.00179315e+00
1.00174407e+00
1.00170465e+00
1.00167253e+00
1.00164559e+00
1.00162207e+00
1.00160055e+00
1.00157992e+00
1.00155945e+00
1.00153865e+00
1.00151724e+00
1.00149514e+00
1.00147233e+00
1.00144880e+00
1.00142454e+00
1.00139944e+00
1.00137334e+00
1.00134595e+00
1.00131692e+00
1.00128584e+00
1.00125229e+00
1.00121587e+00
1.00117621e+00
1.00113306e+00
1.00108623e+00
1.00103569e+00
1.00098149e+00
1.00092379e+00
1.00086284e+00
1.00079897e+00
1.00073253e+00
1.00066392e+00
1.00059354e+00
1.00052177e+00
1.00044902e+00
1.00037565e+00
1.00030203e+00
1.00022849e+00
1.00015537e+00
1.00008298e+00
1.00001164e+00
9.99941636e-01
9.99873249e-01
9.99806739e-01
9.99742340e-01
9.99680261e-01
9.99620675e-01
9.99563724e-01
9.99509515e-01
9.99458116e-01
9.99409563e-01
9.99363855e-01
9.99320960e-01
9.99280816e-01
9.99243332e-01
9.99208389e-01
9.99175842e-01
9.99145521e-01
9.99117227e-01
9.99090734e-01
9.99065781e-01
9.99042067e-01
9.99019242e-01
9.98996897e-01
9.98974539e-01
9.98951568e-01
9.98927280e-01
9.98900814e-01
9.98871134e-01
9.98837048e-01
9.98797187e-01
9.98750004e-01
9.98693878e-01
9.98627112e-01
9.98547969e-01
9.98455001e-01
9.98347056e-01
9.98223060e-01
9.98082693e-01
9.97926807e-01
9.97756240e-01
9.97572163e-01
9.97378014e-01
9.97177534e-01
9.96972662e-01
9.96767464e-01
9.96568059e-01
9.96376508e-01
9.96194390e-01
9.96027656e-01
9.95877992e-01
9.95742904e-01
9.95626025e-01
9.95529027e-01
9.95444550e-01
9.95372892e-01
9.95318739e-01
9.95275628e-01
9.95235223e-01
9.95206849e-01
9.95192613e-01
9.95173705e-01
1.00650764e+00
1.00645224e+00
1.00636636e+00
1.00626005e+00
1.00612062e+00
1.00594377e+00
1.00574804e+00
1.00553944e+00
1.00530789e+00
1.00505922e+00
1.00480500e+00
1.00454430e+00
1.00427436e+00
1.00400298e+00
1.00373697e+00
1.00347564e+00
1.00322181e+00
1.00298271e+00
1.00276135e+00
1.00255827e+00
1.00237635e+00
1.00221768e+00
1.00208156e+00
1.00196696e+00
1.00187293e+00
1.00179742e+00
1.00173780e+00
1.00169151e+00
1.00165597e+00
1.00162861e+00
1.00160715e+00
1.00158958e+00
1.00157430e+00
1.00156008e+00
1.00154606e+00
1.00153169e+00
1.00151668e+00
1.00150097e+00
1.00148454e+00
1.00146741e+00
1.00144960e+00
1.00143098e+00
1.00141134e+00
1.00139033e+00
1.00136751e+00
1.00134233e+00
1.00131425e+00
1.00128269e+00
1.00124718e+00
1.00120732e+00
1.00116282e+00
1.00111355e+00
1.00105952e+00
1.00100087e+00
1.00093786e+00
1.00087085e+00
1.00080025e+00
1.00072653e+00
1.00065020e+00
1.00057177e+00
1.00049174e+00
1.00041061e+00
1.00032888e+00
1.00024703e+00
1.00016551e+00
1.00008479e+00
1.00000530e+00
9.99927460e-01
9.99851669e-01
9.99778293e-01
9.99707665e-01
9.99640077e-01
9.99575774e-01
9.99514953e-01
9.99457758e-01
9.99404282e-01
9.99354566e-01
9.99308601e-01
9.99266333e-01
9.99227661e-01
9.99192447e-01
9.99160514e-01
9.99131651e-01
9.99105615e-01
9.99082126e-01
9.99060873e-01
9.99041511e-01
9.99023651e-01
9.99006844e-01
9.98990588e-01
9.98974304e-01
9.98957299e-01
9.98938761e-01
9.98917757e-01
9.98893187e-01
9.98863777e-01
9.98828115e-01
9.98784663e-01
9.98731786e-01
9.98667867e-01
9.98591316e-01
9.98500699e-01
9.98395084e-01
9.98273925e-01
9.98136858e-01
9.97984538e-01
9.97818887e-01
9.97641515e-01
9.97454194e-01
9.97261127e-01
9.97066638e-01
9.96872263e-01
9.96681148e-01
9.96499457e-01
9.96329276e-01
9.96169310e-01
9.96023153e-01
9.95895220e-01
9.95782019e-01
9.95679745e-01
9.95592902e-01
9.95523567e-01
9.95461572e-01
9.95405945e-01
9.95366991e-01
9.95339617e-01
9.95312437e-01
9.95291275e-01
1.00621879e+00
1.00617403e+00
1.00609792e+00
1.00599401e+00
1.00586171e+00
1.00570057e+00
1.00552000e+00
1.00532323e+00
1.00510862e+00
1.00488267e+00
1.00464916e+00
1.00440570e+00
1.00415584e+00
1.00390562e+00
1.00365468e+00
1.00340448e+00
1.00316223e+00
1.00293152e+00
1.00271329e+00
1.00251186e+00
1.00233126e+00
1.00217190e+00
1.00203411e+00
1.00191857e+00
1.00182422e+00
1.00174885e+00
1.00169036e+00
1.00164631e+00
1.00161386e+00
1.00159033e+00
1.00157330e+00
1.00156059e+00
1.00155043e+00
1.00154144e+00
1.00153268e+00
1.00152352e+00
1.00151370e+00
1.00150312e+00
1.00149178e+00
1.00147977e+00
1.00146709e+00
1.00145363e+00
1.00143916e+00
1.00142330e+00
1.00140553e+00
1.00138523e+00
1.00136174e+00
1.00133439e+00
1.00130258e+00
1.00126580e+00
1.00122368e+00
1.00117600e+00
1.00112271e+00
1.00106391e+00
1.00099985e+00
1.00093088e+00
1.00085747e+00
1.00078013e+00
1.00069943e+00
1.00061596e+00
1.00053031e+00
1.00044310e+00
1.00035493e+00
1.00026638e+00
1.00017803e+00
1.00009047e+00
1.00000423e+00
9.99919852e-01
9.99837835e-01
9.99758644e-01
9.99682702e-01
9.99610379e-01
9.99541988e-01
9.99477779e-01
9.99417937e-01
9.99362579e-01
9.99311759e-01
9.99265465e-01
9.99223627e-01
9.99186117e-01
9.99152758e-01
9.99123324e-01
9.99097549e-01
9.99075124e-01
9.99055705e-01
9.99038909e-01
9.99024311e-01
9.99011445e-01
9.98999792e-01
9.98988758e-01
9.98977679e-01
9.98965796e-01
9.98952219e-01
9.98935924e-01
9.98915758e-01
9.98890406e-01
9.98858423e-01
9.98818275e-01
9.98768334e-01
9.98707029e-01
9.98633008e-01
9.98544980e-01
9.98441931e-01
9.98323747e-01
9.98190801e-01
9.98043362e-01
9.97882991e-01
9.97712767e-01
9.97534826e-01
9.97351097e-01
9.97166194e-01
9.96984156e-01
9.96805975e-01
9.96634488e-01
9.96474123e-01
9.96325139e-01
9.96187355e-01
9.96063271e-01
9.95952265e-01
9.95852516e-01
9.95765404e-01
9.95690109e-01
9.95623027e-01
9.95566348e-01
9.95522461e-01
9.95487656e-01
9.95461031e-01
9.95443199e-01
1.00589824e+00
1.00586140e+00
1.00580266e+00
1.00570185e+00
1.00557483e+00
1.00543428e+00
1.00527064e+00
1.00508560e+00
1.00489284e+00
1.00469201e+00
1.00447762e+00
1.00425532e+00
1.00403058e+00
1.00380021e+00
1.00356480e+00
1.00333120e+00
1.00310243e+00
1.00287915e+00
1.00266655e+00
1.00246989e+00
1.00229084e+00
1.00213114e+00
1.00199324e+00
1.00187745e+00
1.00178257e+00
1.00170737e+00
1.00164995e+00
1.00160763e+00
1.00157760e+00
1.00155717e+00
1.00154372e+00
1.00153493e+00
1.00152889e+00
1.00152409e+00
1.00151949e+00
1.00151444e+00
1.00150860e+00
1.00150188e+00
1.00149432e+00
1.00148602e+00
1.00147698e+00
1.00146715e+00
1.00145629e+00
1.00144401e+00
1.00142978e+00
1.00141294e+00
1.00139277e+00
1.00136855e+00
1.00133960e+00
1.00130534e+00
1.00126534e+00
1.00121930e+00
1.00116712e+00
1.00110886e+00
1.00104473e+00
1.00097507e+00
1.00090034e+00
1.00082107e+00
1.00073786e+00
1.00065134e+00
1.00056217e+00
1.00047102e+00
1.00037855e+00
1.00028545e+00
1.00019238e+00
1.00009999e+00
1.00000893e+00
9.99919798e-01
9.99833194e-01
9.99749659e-01
9.99669690e-01
9.99593724e-01
9.99522134e-01
9.99455223e-01
9.99393215e-01
9.99336259e-01
9.99284426e-01
9.99237714e-01
9.99196049e-01
9.99159291e-01
9.99127238e-01
9.99099635e-01
9.99076176e-01
9.99056506e-01
9.99040230e-01
9.99026913e-01
9.99016071e-01
9.99007173e-01
9.98999640e-01
9.98992820e-01
9.98985972e-01
9.98978265e-01
9.98968761e-01
9.98956371e-01
9.98939875e-01
9.98917936e-01
9.98889084e-01
9.98851786e-01
9.98804506e-01
9.98745704e-01
9.98674063e-01
9.98588670e-01
9.98488781e-01
9.98374056e-01
9.98245275e-01
9.98103721e-01
9.97950432e-01
9.97787691e-01
9.97619287e-01
9.97447572e-01
9.97274290e-01
9.97103817e-01
9.96939840e-01
9.96782033e-01
9.96631874e-01
9.96493609e-01
9.96366593e-01
9.96247474e-01
9.96138939e-01
9.96043795e-01
9.95956411e-01
9.95874408e-01
9.95805770e-01
9.95749986e-01
9.95697205e-01
9.95655436e-01
9.95634801e-01
9.95618653e-01
1.00556229e+00
1.00552875e+00
1.00547251e+00
1.00538613e+00
1.00527572e+00
1.00514520e+00
1.00499632e+00
1.00483524e+00
1.00466477e+00
1.00448278e+00
1.00429251e+00
1.00409743e+00
1.00389482e+00
1.00368380e+00
1.00346955e+00
1.00325406e+00
1.00303718e+00
1.00282386e+00
1.00262019e+00
1.00242840e+00
1.00225131e+00
1.00209327e+00
1.00195626e+00
1.00184022e+00
1.00174523e+00
1.00167058e+00
1.00161407e+00
1.00157313e+00
1.00154516e+00
1.00152732e+00
1.00151683e+00
1.00151128e+00
1.00150861e+00
1.00150722e+00
1.00150596e+00
1.00150410e+00
1.00150125e+00
1.00149730e+00
1.00149231e+00
1.00148634e+00
1.00147948e+00
1.00147168e+00
1.00146274e+00
1.00145230e+00
1.00143987e+00
1.00142480e+00
1.00140638e+00
1.00138390e+00
1.00135665e+00
1.00132405e+00
1.00128560e+00
1.00124099e+00
1.00119008e+00
1.00113286e+00
1.00106952e+00
1.00100036e+00
1.00092581e+00
1.00084638e+00
1.00076268e+00
1.00067531e+00
1.00058497e+00
1.00049234e+00
1.00039811e+00
1.00030301e+00
1.00020773e+00
1.00011297e+00
1.00001942e+00
9.99927760e-01
9.99838613e-01
9.99752582e-01
9.99670214e-01
9.99591999e-01
9.99518360e-01
9.99449642e-01
9.99386112e-01
9.99327954e-01
9.99275269e-01
9.99228076e-01
9.99186315e-01
9.99149854e-01
9.99118489e-01
9.99091956e-01
9.99069934e-01
9.99052049e-01
9.99037878e-01
9.99026950e-01
9.99018753e-01
9.99012713e-01
9.99008198e-01
9.99004515e-01
9.99000878e-01
9.98996393e-01
9.98990061e-01
9.98980760e-01
9.98967226e-01
9.98948083e-01
9.98921856e-01
9.98887007e-01
9.98842071e-01
9.98785668e-01
9.98716489e-01
9.98633703e-01
9.98537117e-01
9.98426628e-01
9.98302622e-01
9.98166932e-01
9.98021712e-01
9.97868349e-01
9.97709633e-01
9.97549735e-01
9.97390702e-01
9.97233667e-01
9.97082359e-01
9.96939273e-01
9.96803377e-01
9.96675129e-01
9.96556635e-01
9.96446827e-01
9.96343832e-01
9.96248264e-01
9.96160722e-01
9.96080504e-01
9.96007972e-01
9.95944619e-01
9.95891106e-01
9.95850589e-01
9.95824776e-01
9.95806763e-01
1.00520513e+00
1.00517968e+00
1.00512764e+00
1.00505460e+00
1.00495950e+00
1.00484060e+00
1.00471043e+00
1.00457244e+00
1.00442158e+00
1.00426198e+00
1.00409907e+00
1.00392812e+00
1.00374703e+00
1.00355995e+00
1.00336746e+00
1.00316779e+00
1.00296510e+00
1.00276501e+00
1.00256980e+00
1.00238298e+00
1.00221031e+00
1.00205514e+00
1.00191889e+00
1.00180329e+00
1.00170908e+00
1.00163503e+00
1.00157928e+00
1.00153974e+00
1.00151365e+00
1.00149803e+00
1.00149012e+00
1.00148738e+00
1.00148763e+00
1.00148914e+00
1.00149065e+00
1.00149133e+00
1.00149075e+00
1.00148873e+00
1.00148528e+00
1.00148051e+00
1.00147450e+00
1.00146725e+00
1.00145861e+00
1.00144831e+00
1.00143591e+00
1.00142086e+00
1.00140252e+00
1.00138023e+00
1.00135334e+00
1.00132129e+00
1.00128362e+00
1.00124000e+00
1.00119026e+00
1.00113439e+00
1.00107252e+00
1.00100492e+00
1.00093195e+00
1.00085410e+00
1.00077190e+00
1.00068596e+00
1.00059690e+00
1.00050540e+00
1.00041214e+00
1.00031780e+00
1.00022310e+00
1.00012872e+00
1.00003536e+00
9.99943685e-01
9.99854356e-01
9.99767983e-01
9.99685140e-01
9.99606343e-01
9.99532046e-01
9.99462634e-01
9.99398410e-01
9.99339598e-01
9.99286338e-01
9.99238686e-01
9.99196617e-01
9.99160027e-01
9.99128740e-01
9.99102510e-01
9.99081029e-01
9.99063932e-01
9.99050798e-01
9.99041150e-01
9.99034460e-01
9.99030146e-01
9.99027550e-01
9.99025936e-01
9.99024492e-01
9.99022291e-01
9.99018276e-01
9.99011283e-01
9.99000020e-01
9.98983079e-01
9.98958997e-01
9.98926261e-01
9.98883384e-01
9.98829127e-01
9.98762476e-01
9.98682568e-01
9.98589214e-01
9.98483069e-01
9.98364852e-01
9.98235654e-01
9.98098104e-01
9.97955006e-01
9.97807982e-01
9.97659713e-01
9.97514197e-01
9.97372848e-01
9.97235832e-01
9.97105863e-01
9.96984453e-01
9.96868951e-01
9.96758988e-01
9.96656979e-01
9.96560692e-01
9.96466577e-01
9.96378511e-01
9.96299227e-01
9.96223648e-01
9.96154313e-01
9.96100308e-01
9.96059196e-01
9.96028286e-01
9.96012449e-01
1.00483443e+00
1.00481982e+00
1.00478033e+00
1.00471430e+00
1.00462954e+00
1.00453039e+00
1.00442005e+00
1.00429819e+00
1.00416919e+00
1.00403645e+00
1.00389678e+00
1.00374771e+00
1.00359207e+00
1.00342885e+00
1.00325495e+00
1.00307272e+00
1.00288683e+00
1.00269878e+00
1.00251181e+00
1.00233237e+00
1.00216506e+00
1.00201240e+00
1.00187776e+00
1.00176368e+00
1.00167030e+00
1.00159682e+00
1.00154210e+00
1.00150396e+00
1.00147952e+00
1.00146593e+00
1.00146038e+00
1.00146020e+00
1.00146310e+00
1.00146723e+00
1.00147120e+00
1.00147408e+00
1.00147531e+00
1.00147465e+00
1.00147206e+00
1.00146762e+00
1.00146142e+00
1.00145350e+00
1.00144379e+00
1.00143212e+00
1.00141817e+00
1.00140151e+00
1.00138165e+00
1.00135804e+00
1.00133016e+00
1.00129753e+00
1.00125975e+00
1.00121656e+00
1.00116778e+00
1.00111339e+00
1.00105351e+00
1.00098833e+00
1.00091819e+00
1.00084347e+00
1.00076467e+00
1.00068230e+00
1.00059693e+00
1.00050915e+00
1.00041957e+00
1.00032884e+00
1.00023758e+00
1.00014645e+00
1.00005608e+00
9.99967105e-01
9.99880148e-01
9.99795800e-01
9.99714622e-01
9.99637130e-01
9.99563790e-01
9.99495006e-01
9.99431115e-01
9.99372381e-01
9.99318991e-01
9.99271053e-01
9.99228594e-01
9.99191566e-01
9.99159844e-01
9.99133235e-01
9.99111473e-01
9.99094230e-01
9.99081121e-01
9.99071694e-01
9.99065434e-01
9.99061760e-01
9.99060021e-01
9.99059469e-01
9.99059254e-01
9.99058428e-01
9.99055909e-01
9.99050486e-01
9.99040837e-01
9.99025533e-01
9.99003095e-01
9.98972074e-01
9.98931042e-01
9.98878727e-01
9.98814336e-01
9.98737398e-01
9.98647645e-01
9.98545706e-01
9.98433167e-01
9.98311407e-01
9.98182108e-01
9.98048516e-01
9.97913625e-01
9.97778723e-01
9.97646185e-01
9.97519296e-01
9.97398411e-01
9.97282567e-01
9.97173282e-01
9.97070845e-01
9.96972255e-01
9.96876176e-01
9.96784186e-01
9.96695445e-01
9.96608010e-01
9.96524064e-01
9.96447248e-01
9.96378527e-01
9.96319010e-01
9.96272383e-01
9.96244751e-01
9.96232995e-01
1.00446882e+00
1.00446068e+00
1.00443034e+00
1.00437412e+00
1.00430249e+00
1.00421989e+00
1.00412557e+00
1.00402250e+00
1.00391707e+00
1.00380638e+00
1.00368779e+00
1.00356351e+00
1.00343211e+00
1.00328868e+00
1.00313414e+00
1.00297126e+00
1.00280014e+00
1.00262311e+00
1.00244647e+00
1.00227504e+00
1.00211218e+00
1.00196271e+00
1.00183085e+00
1.00171822e+00
1.00162549e+00
1.00155294e+00
1.00149933e+00
1.00146230e+00
1.00143933e+00
1.00142763e+00
1.00142424e+00
1.00142641e+00
1.00143177e+00
1.00143836e+00
1.00144463e+00
1.00144952e+00
1.00145234e+00
1.00145274e+00
1.00145059e+00
1.00144593e+00
1.00143883e+00
1.00142938e+00
1.00141761e+00
1.00140343e+00
1.00138668e+00
1.00136713e+00
1.00134444e+00
1.00131826e+00
1.00128824e+00
1.00125403e+00
1.00121537e+00
1.00117206e+00
1.00112399e+00
1.00107114e+00
1.00101361e+00
1.00095158e+00
1.00088529e+00
1.00081509e+00
1.00074134e+00
1.00066448e+00
1.00058498e+00
1.00050331e+00
1.00041999e+00
1.00033555e+00
1.00025051e+00