# vtk DataFile Version 2.0
LBM Flow Field - Timestep 4640
ASCII
DATASET STRUCTURED_POINTS
DIMENSIONS 128 128 1
ORIGIN 0.0 0.0 0.0
SPACING 1.0 1.0 1.0
POINT_DATA 16384
SCALARS density double 1
LOOKUP_TABLE default
9.98838283e-01
9.98832470e-01
9.98825409e-01
9.98832354e-01
9.98839527e-01
9.98844451e-01
9.98853460e-01
9.98867015e-01
9.98880938e-01
9.98896814e-01
9.98916478e-01
9.98938907e-01
9.98963204e-01
9.98990643e-01
9.99021388e-01
9.99054882e-01
9.99091214e-01
9.99130926e-01
9.99173816e-01
9.99219741e-01
9.99268867e-01
9.99321292e-01
9.99376821e-01
9.99435424e-01
9.99497109e-01
9.99561773e-01
9.99629244e-01
9.99699431e-01
9.99772196e-01
9.99847346e-01
9.99924683e-01
1.00000403e+00
1.00008515e+00
1.00016782e+00
1.00025180e+00
1.00033686e+00
1.00042275e+00
1.00050922e+00
1.00059604e+00
1.00068298e+00
1.00076980e+00
1.00085630e+00
1.00094227e+00
1.00102753e+00
1.00111191e+00
1.00119524e+00
1.00127739e+00
1.00135823e+00
1.00143765e+00
1.00151557e+00
1.00159190e+00
1.00166659e+00
1.00173957e+00
1.00181082e+00
1.00188030e+00
1.00194800e+00
1.00201391e+00
1.00207803e+00
1.00214038e+00
1.00220096e+00
1.00225982e+00
1.00231696e+00
1.00237245e+00
1.00242632e+00
1.00247864e+00
1.00252945e+00
1.00257883e+00
1.00262687e+00
1.00267363e+00
1.00271923e+00
1.00276374e+00
1.00280729e+00
1.00284998e+00
1.00289193e+00
1.00293327e+00
1.00297412e+00
1.00301462e+00
1.00305490e+00
1.00309510e+00
1.00313534e+00
1.00317578e+00
1.00321653e+00
1.00325774e+00
1.00329952e+00
1.00334199e+00
1.00338527e+00
1.00342946e+00
1.00347465e+00
1.00352093e+00
1.00356835e+00
1.00361698e+00
1.00366686e+00
1.00371800e+00
1.00377042e+00
1.00382410e+00
1.00387902e+00
1.00393512e+00
1.00399234e+00
1.00405057e+00
1.00410974e+00
1.00416970e+00
1.00423028e+00
1.00429135e+00
1.00435275e+00
1.00441423e+00
1.00447558e+00
1.00453664e+00
1.00459718e+00
1.00465684e+00
1.00471543e+00
1.00477288e+00
1.00482876e+00
1.00488260e+00
1.00493459e+00
1.00498458e+00
1.00503164e+00
1.00507569e+00
1.00511765e+00
1.00515640e+00
1.00519058e+00
1.00522186e+00
1.00525130e+00
1.00527492e+00
1.00529297e+00
1.00531084e+00
1.00532540e+00
1.00532626e+00
1.00532566e+00
9.98831576e-01
9.98831892e-01
9.98827580e-01
9.98832274e-01
9.98838922e-01
9.98845921e-01
9.98854696e-01
9.98867575e-01
9.98882072e-01
9.98898645e-01
9.98917967e-01
9.98940429e-01
9.98965156e-01
9.98992757e-01
9.99023387e-01
9.99057082e-01
9.99093623e-01
9.99133372e-01
9.99176288e-01
9.99222373e-01
9.99271577e-01
9.99324021e-01
9.99379599e-01
9.99438272e-01
9.99499962e-01
9.99564621e-01
9.99632095e-01
9.99702267e-01
9.99774983e-01
9.99850081e-01
9.99927356e-01
1.00000662e+00
1.00008764e+00
1.00017021e+00
1.00025407e+00
1.00033900e+00
1.00042475e+00
1.00051109e+00
1.00059776e+00
1.00068454e+00
1.00077121e+00
1.00085756e+00
1.00094338e+00
1.00102849e+00
1.00111271e+00
1.00119590e+00
1.00127791e+00
1.00135861e+00
1.00143791e+00
1.00151570e+00
1.00159191e+00
1.00166648e+00
1.00173936e+00
1.00181051e+00
1.00187990e+00
1.00194751e+00
1.00201334e+00
1.00207739e+00
1.00213967e+00
1.00220020e+00
1.00225900e+00
1.00231610e+00
1.00237155e+00
1.00242539e+00
1.00247767e+00
1.00252846e+00
1.00257783e+00
1.00262585e+00
1.00267261e+00
1.00271820e+00
1.00276272e+00
1.00280627e+00
1.00284897e+00
1.00289093e+00
1.00293227e+00
1.00297314e+00
1.00301365e+00
1.00305393e+00
1.00309414e+00
1.00313439e+00
1.00317483e+00
1.00321559e+00
1.00325680e+00
1.00329858e+00
1.00334106e+00
1.00338434e+00
1.00342852e+00
1.00347371e+00
1.00351997e+00
1.00356739e+00
1.00361600e+00
1.00366586e+00
1.00371699e+00
1.00376939e+00
1.00382304e+00
1.00387793e+00
1.00393400e+00
1.00399118e+00
1.00404938e+00
1.00410850e+00
1.00416840e+00
1.00422894e+00
1.00428996e+00
1.00435129e+00
1.00441270e+00
1.00447400e+00
1.00453500e+00
1.00459543e+00
1.00465503e+00
1.00471362e+00
1.00477095e+00
1.00482669e+00
1.00488057e+00
1.00493258e+00
1.00498229e+00
1.00502932e+00
1.00507363e+00
1.00511541e+00
1.00515368e+00
1.00518830e+00
1.00521993e+00
1.00524851e+00
1.00527179e+00
1.00529127e+00
1.00530835e+00
1.00532107e+00
1.00532433e+00
1.00532800e+00
9.98822056e-01
9.98824649e-01
9.98832168e-01
9.98832417e-01
9.98835162e-01
9.98845527e-01
9.98856226e-01
9.98866751e-01
9.98881335e-01
9.98899436e-01
9.98918701e-01
9.98940455e-01
9.98965817e-01
9.98993880e-01
9.99024321e-01
9.99058013e-01
9.99094983e-01
9.99134831e-01
9.99177730e-01
9.99223977e-01
9.99273392e-01
9.99325871e-01
9.99381520e-01
9.99440322e-01
9.99502100e-01
9.99566787e-01
9.99634321e-01
9.99704545e-01
9.99777277e-01
9.99852374e-01
9.99929652e-01
1.00000889e+00
1.00008988e+00
1.00017239e+00
1.00025619e+00
1.00034104e+00
1.00042670e+00
1.00051293e+00
1.00059950e+00
1.00068616e+00
1.00077270e+00
1.00085891e+00
1.00094460e+00
1.00102956e+00
1.00111364e+00
1.00119668e+00
1.00127854e+00
1.00135911e+00
1.00143826e+00
1.00151592e+00
1.00159200e+00
1.00166645e+00
1.00173921e+00
1.00181024e+00
1.00187953e+00
1.00194705e+00
1.00201279e+00
1.00207676e+00
1.00213898e+00
1.00219944e+00
1.00225819e+00
1.00231526e+00
1.00237067e+00
1.00242449e+00
1.00247676e+00
1.00252754e+00
1.00257691e+00
1.00262494e+00
1.00267171e+00
1.00271732e+00
1.00276185e+00
1.00280542e+00
1.00284814e+00
1.00289013e+00
1.00293150e+00
1.00297238e+00
1.00301291e+00
1.00305321e+00
1.00309343e+00
1.00313369e+00
1.00317413e+00
1.00321489e+00
1.00325610e+00
1.00329787e+00
1.00334033e+00
1.00338359e+00
1.00342775e+00
1.00347291e+00
1.00351915e+00
1.00356653e+00
1.00361511e+00
1.00366493e+00
1.00371602e+00
1.00376837e+00
1.00382199e+00
1.00387683e+00
1.00393285e+00
1.00398998e+00
1.00404813e+00
1.00410719e+00
1.00416704e+00
1.00422754e+00
1.00428851e+00
1.00434975e+00
1.00441111e+00
1.00447240e+00
1.00453331e+00
1.00459364e+00
1.00465326e+00
1.00471185e+00
1.00476898e+00
1.00482466e+00
1.00487877e+00
1.00493063e+00
1.00497994e+00
1.00502728e+00
1.00507203e+00
1.00511296e+00
1.00515093e+00
1.00518693e+00
1.00521843e+00
1.00524467e+00
1.00526938e+00
1.00529176e+00
1.00530540e+00
1.00531446e+00
1.00532621e+00
1.00533172e+00
9.98823681e-01
9.98823463e-01
9.98826876e-01
9.98829960e-01
9.98835819e-01
9.98843834e-01
9.98853892e-01
9.98866182e-01
9.98881053e-01
9.98898259e-01
9.98918055e-01
9.98940491e-01
9.98965698e-01
9.98993690e-01
9.99024631e-01
9.99058526e-01
9.99095472e-01
9.99135511e-01
9.99178704e-01
9.99225037e-01
9.99274549e-01
9.99327221e-01
9.99383026e-01
9.99441900e-01
9.99503791e-01
9.99568597e-01
9.99636205e-01
9.99706478e-01
9.99779272e-01
9.99854405e-01
9.99931692e-01
1.00001093e+00
1.00009190e+00
1.00017438e+00
1.00025812e+00
1.00034291e+00
1.00042849e+00
1.00051462e+00
1.00060107e+00
1.00068761e+00
1.00077402e+00
1.00086009e+00
1.00094563e+00
1.00103044e+00
1.00111437e+00
1.00119725e+00
1.00127896e+00
1.00135936e+00
1.00143836e+00
1.00151587e+00
1.00159181e+00
1.00166612e+00
1.00173875e+00
1.00180966e+00
1.00187883e+00
1.00194625e+00
1.00201190e+00
1.00207579e+00
1.00213793e+00
1.00219835e+00
1.00225705e+00
1.00231408e+00
1.00236948e+00
1.00242328e+00
1.00247556e+00
1.00252636e+00
1.00257575e+00
1.00262381e+00
1.00267062e+00
1.00271627e+00
1.00276086e+00
1.00280449e+00
1.00284728e+00
1.00288932e+00
1.00293075e+00
1.00297170e+00
1.00301228e+00
1.00305264e+00
1.00309291e+00
1.00313322e+00
1.00317370e+00
1.00321449e+00
1.00325572e+00
1.00329751e+00
1.00333998e+00
1.00338325e+00
1.00342740e+00
1.00347255e+00
1.00351876e+00
1.00356612e+00
1.00361466e+00
1.00366444e+00
1.00371548e+00
1.00376778e+00
1.00382134e+00
1.00387612e+00
1.00393207e+00
1.00398913e+00
1.00404720e+00
1.00410618e+00
1.00416595e+00
1.00422636e+00
1.00428724e+00
1.00434841e+00
1.00440969e+00
1.00447086e+00
1.00453170e+00
1.00459199e+00
1.00465148e+00
1.00470994e+00
1.00476712e+00
1.00482275e+00
1.00487660e+00
1.00492843e+00
1.00497801e+00
1.00502506e+00
1.00506942e+00
1.00511084e+00
1.00514911e+00
1.00518406e+00
1.00521558e+00
1.00524332e+00
1.00526736e+00
1.00528746e+00
1.00530334e+00
1.00531495e+00
1.00532412e+00
1.00532735e+00
9.98823307e-01
9.98822517e-01
9.98821425e-01
9.98827466e-01
9.98835312e-01
9.98841118e-01
9.98850906e-01
9.98864998e-01
9.98879872e-01
9.98896346e-01
9.98916695e-01
9.98939818e-01
9.98964867e-01
9.98992883e-01
9.99024301e-01
9.99058442e-01
9.99095408e-01
9.99135682e-01
9.99179172e-01
9.99225646e-01
9.99275291e-01
9.99328185e-01
9.99384168e-01
9.99443161e-01
9.99505189e-01
9.99570138e-01
9.99637844e-01
9.99708195e-01
9.99781064e-01
9.99856251e-01
9.99933561e-01
1.00001281e+00
1.00009377e+00
1.00017621e+00
1.00025991e+00
1.00034462e+00
1.00043011e+00
1.00051613e+00
1.00060246e+00
1.00068887e+00
1.00077513e+00
1.00086105e+00
1.00094641e+00
1.00103105e+00
1.00111480e+00
1.00119751e+00
1.00127903e+00
1.00135926e+00
1.00143808e+00
1.00151542e+00
1.00159119e+00
1.00166534e+00
1.00173782e+00
1.00180860e+00
1.00187765e+00
1.00194495e+00
1.00201051e+00
1.00207432e+00
1.00213640e+00
1.00219676e+00
1.00225543e+00
1.00231244e+00
1.00236784e+00
1.00242166e+00
1.00247396e+00
1.00252480e+00
1.00257425e+00
1.00262238e+00
1.00266928e+00
1.00271502e+00
1.00275970e+00
1.00280344e+00
1.00284632e+00
1.00288848e+00
1.00293002e+00
1.00297107e+00
1.00301176e+00
1.00305222e+00
1.00309258e+00
1.00313297e+00
1.00317353e+00
1.00321438e+00
1.00325567e+00
1.00329750e+00
1.00334000e+00
1.00338328e+00
1.00342745e+00
1.00347259e+00
1.00351879e+00
1.00356612e+00
1.00361462e+00
1.00366436e+00
1.00371534e+00
1.00376757e+00
1.00382105e+00
1.00387575e+00
1.00393161e+00
1.00398857e+00
1.00404654e+00
1.00410542e+00
1.00416508e+00
1.00422536e+00
1.00428611e+00
1.00434719e+00
1.00440835e+00
1.00446936e+00
1.00453010e+00
1.00459032e+00
1.00464965e+00
1.00470794e+00
1.00476511e+00
1.00482068e+00
1.00487425e+00
1.00492603e+00
1.00497580e+00
1.00502260e+00
1.00506653e+00
1.00510836e+00
1.00514693e+00
1.00518094e+00
1.00521229e+00
1.00524148e+00
1.00526502e+00
1.00528318e+00
1.00530090e+00
1.00531461e+00
1.00531983e+00
1.00532311e+00
9.98817840e-01
9.98818647e-01
9.98820780e-01
9.98824509e-01
9.98830004e-01
9.98838640e-01
9.98849529e-01
9.98861795e-01
9.98876763e-01
9.98894787e-01
9.98915006e-01
9.98937628e-01
9.98963323e-01
9.98991919e-01
9.99023191e-01
9.99057475e-01
9.99094940e-01
9.99135432e-01
9.99178982e-01
9.99225746e-01
9.99275690e-01
9.99328725e-01
9.99384866e-01
9.99444095e-01
9.99506293e-01
9.99571357e-01
9.99639201e-01
9.99709684e-01
9.99782632e-01
9.99857879e-01
9.99935243e-01
1.00001451e+00
1.00009547e+00
1.00017788e+00
1.00026153e+00
1.00034618e+00
1.00043157e+00
1.00051749e+00
1.00060369e+00
1.00068994e+00
1.00077605e+00
1.00086179e+00
1.00094697e+00
1.00103142e+00
1.00111497e+00
1.00119747e+00
1.00127879e+00
1.00135881e+00
1.00143744e+00
1.00151458e+00
1.00159017e+00
1.00166415e+00
1.00173647e+00
1.00180709e+00
1.00187601e+00
1.00194319e+00
1.00200864e+00
1.00207237e+00
1.00213438e+00
1.00219470e+00
1.00225334e+00
1.00231035e+00
1.00236576e+00
1.00241962e+00
1.00247197e+00
1.00252288e+00
1.00257242e+00
1.00262065e+00
1.00266766e+00
1.00271353e+00
1.00275835e+00
1.00280223e+00
1.00284526e+00
1.00288757e+00
1.00292926e+00
1.00297046e+00
1.00301129e+00
1.00305189e+00
1.00309237e+00
1.00313288e+00
1.00317355e+00
1.00321450e+00
1.00325586e+00
1.00329776e+00
1.00334031e+00
1.00338363e+00
1.00342781e+00
1.00347296e+00
1.00351914e+00
1.00356644e+00
1.00361491e+00
1.00366459e+00
1.00371550e+00
1.00376765e+00
1.00382104e+00
1.00387564e+00
1.00393139e+00
1.00398823e+00
1.00404607e+00
1.00410481e+00
1.00416433e+00
1.00422448e+00
1.00428509e+00
1.00434599e+00
1.00440700e+00
1.00446791e+00
1.00452847e+00
1.00458848e+00
1.00464775e+00
1.00470596e+00
1.00476283e+00
1.00481826e+00
1.00487197e+00
1.00492354e+00
1.00497283e+00
1.00501987e+00
1.00506414e+00
1.00510519e+00
1.00514334e+00
1.00517856e+00
1.00520984e+00
1.00523715e+00
1.00526143e+00
1.00528196e+00
1.00529771e+00
1.00530948e+00
1.00531762e+00
1.00532236e+00
9.98813838e-01
9.98814068e-01
9.98817712e-01
9.98820558e-01
9.98825673e-01
9.98835404e-01
9.98846155e-01
9.98858045e-01
9.98873644e-01
9.98892130e-01
9.98912207e-01
9.98935026e-01
9.98961226e-01
9.98990038e-01
9.99021423e-01
9.99056046e-01
9.99093847e-01
9.99134538e-01
9.99178325e-01
9.99225396e-01
9.99275586e-01
9.99328828e-01
9.99385207e-01
9.99444663e-01
9.99507044e-01
9.99572280e-01
9.99640291e-01
9.99710909e-01
9.99783961e-01
9.99859297e-01
9.99936725e-01
1.00001603e+00
1.00009699e+00
1.00017939e+00
1.00026300e+00
1.00034757e+00
1.00043287e+00
1.00051867e+00
1.00060473e+00
1.00069083e+00
1.00077676e+00
1.00086231e+00
1.00094730e+00
1.00103153e+00
1.00111487e+00
1.00119714e+00
1.00127824e+00
1.00135804e+00
1.00143645e+00
1.00151338e+00
1.00158877e+00
1.00166255e+00
1.00173469e+00
1.00180515e+00
1.00187391e+00
1.00194097e+00
1.00200631e+00
1.00206995e+00
1.00213189e+00
1.00219216e+00
1.00225079e+00
1.00230780e+00
1.00236324e+00
1.00241714e+00
1.00246957e+00
1.00252057e+00
1.00257022e+00
1.00261859e+00
1.00266574e+00
1.00271177e+00
1.00275676e+00
1.00280081e+00
1.00284403e+00
1.00288652e+00
1.00292840e+00
1.00296978e+00
1.00301079e+00
1.00305156e+00
1.00309221e+00
1.00313287e+00
1.00317367e+00
1.00321474e+00
1.00325620e+00
1.00329818e+00
1.00334080e+00
1.00338416e+00
1.00342838e+00
1.00347353e+00
1.00351971e+00
1.00356698e+00
1.00361540e+00
1.00366501e+00
1.00371585e+00
1.00376791e+00
1.00382119e+00
1.00387567e+00
1.00393128e+00
1.00398798e+00
1.00404568e+00
1.00410427e+00
1.00416361e+00
1.00422359e+00
1.00428404e+00
1.00434475e+00
1.00440558e+00
1.00446632e+00
1.00452672e+00
1.00458652e+00
1.00464561e+00
1.00470371e+00
1.00476041e+00
1.00481561e+00
1.00486926e+00
1.00492077e+00
1.00496979e+00
1.00501667e+00
1.00506109e+00
1.00510199e+00
1.00513974e+00
1.00517513e+00
1.00520667e+00
1.00523344e+00
1.00525761e+00
1.00527893e+00
1.00529410e+00
1.00530519e+00
1.00531474e+00
1.00531911e+00
9.98811140e-01
9.98810240e-01
9.98811414e-01
9.98815857e-01
9.98822643e-01
9.98830453e-01
9.98840791e-01
9.98854591e-01
9.98870257e-01
9.98887792e-01
9.98908570e-01
9.98932310e-01
9.98958293e-01
9.98987097e-01
9.99019182e-01
9.99054165e-01
9.99091980e-01
9.99133008e-01
9.99177260e-01
9.99224538e-01
9.99274924e-01
9.99328513e-01
9.99385179e-01
9.99444819e-01
9.99507423e-01
9.99572900e-01
9.99641082e-01
9.99711838e-01
9.99785036e-01
9.99860485e-01
9.99937980e-01
1.00001733e+00
1.00009831e+00
1.00018071e+00
1.00026427e+00
1.00034877e+00
1.00043398e+00
1.00051966e+00
1.00060558e+00
1.00069152e+00
1.00077726e+00
1.00086261e+00
1.00094738e+00
1.00103139e+00
1.00111448e+00
1.00119652e+00
1.00127738e+00
1.00135694e+00
1.00143511e+00
1.00151180e+00
1.00158696e+00
1.00166053e+00
1.00173247e+00
1.00180276e+00
1.00187136e+00
1.00193827e+00
1.00200350e+00
1.00206704e+00
1.00212892e+00
1.00218914e+00
1.00224775e+00
1.00230477e+00
1.00236025e+00
1.00241421e+00
1.00246673e+00
1.00251785e+00
1.00256763e+00
1.00261615e+00
1.00266347e+00
1.00270969e+00
1.00275488e+00
1.00279915e+00
1.00284259e+00
1.00288530e+00
1.00292740e+00
1.00296900e+00
1.00301022e+00
1.00305119e+00
1.00309203e+00
1.00313287e+00
1.00317383e+00
1.00321505e+00
1.00325664e+00
1.00329873e+00
1.00334143e+00
1.00338485e+00
1.00342910e+00
1.00347427e+00
1.00352044e+00
1.00356769e+00
1.00361606e+00
1.00366561e+00
1.00371636e+00
1.00376832e+00
1.00382148e+00
1.00387582e+00
1.00393130e+00
1.00398783e+00
1.00404536e+00
1.00410377e+00
1.00416293e+00
1.00422270e+00
1.00428295e+00
1.00434349e+00
1.00440411e+00
1.00446460e+00
1.00452482e+00
1.00458450e+00
1.00464332e+00
1.00470115e+00
1.00475783e+00
1.00481290e+00
1.00486610e+00
1.00491752e+00
1.00496680e+00
1.00501327e+00
1.00505708e+00
1.00509851e+00
1.00513660e+00
1.00517082e+00
1.00520216e+00
1.00523046e+00
1.00525407e+00
1.00527356e+00
1.00529018e+00
1.00530273e+00
1.00531017e+00
1.00531362e+00
9.98805757e-01
9.98805171e-01
9.98806026e-01
9.98810500e-01
9.98817182e-01
9.98825004e-01
9.98835922e-01
9.98849764e-01
9.98865269e-01
9.98883312e-01
9.98904578e-01
9.98928325e-01
9.98954526e-01
9.98983853e-01
9.99016249e-01
9.99051409e-01
9.99089599e-01
9.99131036e-01
9.99175555e-01
9.99223116e-01
9.99273862e-01
9.99327760e-01
9.99384679e-01
9.99444594e-01
9.99507471e-01
9.99573168e-01
9.99641546e-01
9.99712492e-01
9.99785846e-01
9.99861410e-01
9.99938997e-01
1.00001841e+00
1.00009942e+00
1.00018181e+00
1.00026534e+00
1.00034978e+00
1.00043489e+00
1.00052045e+00
1.00060621e+00
1.00069198e+00
1.00077753e+00
1.00086266e+00
1.00094720e+00
1.00103096e+00
1.00111381e+00
1.00119559e+00
1.00127618e+00
1.00135548e+00
1.00143339e+00
1.00150983e+00
1.00158475e+00
1.00165809e+00
1.00172982e+00
1.00179990e+00
1.00186833e+00
1.00193509e+00
1.00200019e+00
1.00206363e+00
1.00212543e+00
1.00218562e+00
1.00224421e+00
1.00230125e+00
1.00235676e+00
1.00241081e+00
1.00246342e+00
1.00251467e+00
1.00256461e+00
1.00261330e+00
1.00266082e+00
1.00270726e+00
1.00275268e+00
1.00279718e+00
1.00284087e+00
1.00288383e+00
1.00292619e+00
1.00296804e+00
1.00300951e+00
1.00305071e+00
1.00309177e+00
1.00313281e+00
1.00317396e+00
1.00321534e+00
1.00325708e+00
1.00329929e+00
1.00334209e+00
1.00338559e+00
1.00342988e+00
1.00347508e+00
1.00352125e+00
1.00356846e+00
1.00361679e+00
1.00366627e+00
1.00371692e+00
1.00376877e+00
1.00382180e+00
1.00387599e+00
1.00393130e+00
1.00398766e+00
1.00404499e+00
1.00410319e+00
1.00416215e+00
1.00422172e+00
1.00428173e+00
1.00434204e+00
1.00440245e+00
1.00446272e+00
1.00452268e+00
1.00458215e+00
1.00464080e+00
1.00469838e+00
1.00475480e+00
1.00480977e+00
1.00486283e+00
1.00491394e+00
1.00496305e+00
1.00500958e+00
1.00505319e+00
1.00509425e+00
1.00513242e+00
1.00516677e+00
1.00519775e+00
1.00522587e+00
1.00524974e+00
1.00526914e+00
1.00528569e+00
1.00529818e+00
1.00530531e+00
1.00530927e+00
9.98798868e-01
9.98798591e-01
9.98800814e-01
9.98804268e-01
9.98810051e-01
9.98819298e-01
9.98830618e-01
9.98843477e-01
9.98859475e-01
9.98878568e-01
9.98899640e-01
9.98923277e-01
9.98950266e-01
9.98980067e-01
9.99012439e-01
9.99047968e-01
9.99086755e-01
9.99128463e-01
9.99173203e-01
9.99221210e-01
9.99272356e-01
9.99326503e-01
9.99383726e-01
9.99443996e-01
9.99507141e-01
9.99573060e-01
9.99641684e-01
9.99712847e-01
9.99786357e-01
9.99862056e-01
9.99939761e-01
1.00001925e+00
1.00010029e+00
1.00018268e+00
1.00026619e+00
1.00035056e+00
1.00043557e+00
1.00052100e+00
1.00060661e+00
1.00069219e+00
1.00077754e+00
1.00086245e+00
1.00094674e+00
1.00103025e+00
1.00111282e+00
1.00119432e+00
1.00127464e+00
1.00135365e+00
1.00143129e+00
1.00150746e+00
1.00158212e+00
1.00165522e+00
1.00172671e+00
1.00179659e+00
1.00186483e+00
1.00193142e+00
1.00199639e+00
1.00205972e+00
1.00212144e+00
1.00218158e+00
1.00224016e+00
1.00229721e+00
1.00235278e+00
1.00240691e+00
1.00245964e+00
1.00251103e+00
1.00256114e+00
1.00261003e+00
1.00265777e+00
1.00270444e+00
1.00275012e+00
1.00279489e+00
1.00283885e+00
1.00288210e+00
1.00292473e+00
1.00296687e+00
1.00300861e+00
1.00305007e+00
1.00309138e+00
1.00313266e+00
1.00317402e+00
1.00321559e+00
1.00325749e+00
1.00329984e+00
1.00334275e+00
1.00338634e+00
1.00343069e+00
1.00347592e+00
1.00352209e+00
1.00356928e+00
1.00361756e+00
1.00366696e+00
1.00371752e+00
1.00376924e+00
1.00382213e+00
1.00387616e+00
1.00393129e+00
1.00398746e+00
1.00404459e+00
1.00410257e+00
1.00416129e+00
1.00422063e+00
1.00428041e+00
1.00434045e+00
1.00440060e+00
1.00446068e+00
1.00452038e+00
1.00457953e+00
1.00463800e+00
1.00469544e+00
1.00475151e+00
1.00480618e+00
1.00485928e+00
1.00491021e+00
1.00495879e+00
1.00500529e+00
1.00504920e+00
1.00508973e+00
1.00512734e+00
1.00516235e+00
1.00519346e+00
1.00522041e+00
1.00524449e+00
1.00526506e+00
1.00528066e+00
1.00529220e+00
1.00530074e+00
1.00530509e+00
9.98792392e-01
9.98791527e-01
9.98793384e-01
9.98797149e-01
9.98803345e-01
9.98812386e-01
9.98823496e-01
9.98837009e-01
9.98853469e-01
9.98872364e-01
9.98893698e-01
9.98918049e-01
9.98945290e-01
9.98975185e-01
9.99008069e-01
9.99044124e-01
9.99083151e-01
9.99125185e-01
9.99170425e-01
9.99218819e-01
9.99270256e-01
9.99324781e-01
9.99382395e-01
9.99442964e-01
9.99506390e-01
9.99572613e-01
9.99641496e-01
9.99712862e-01
9.99786562e-01
9.99862429e-01
9.99940250e-01
1.00001981e+00
1.00010091e+00
1.00018331e+00
1.00026678e+00
1.00035109e+00
1.00043601e+00
1.00052131e+00
1.00060676e+00
1.00069215e+00
1.00077728e+00
1.00086195e+00
1.00094599e+00
1.00102923e+00
1.00111152e+00
1.00119273e+00
1.00127274e+00
1.00135146e+00
1.00142880e+00
1.00150469e+00
1.00157907e+00
1.00165191e+00
1.00172316e+00
1.00179281e+00
1.00186085e+00
1.00192727e+00
1.00199208e+00
1.00205530e+00
1.00211694e+00
1.00217703e+00
1.00223559e+00
1.00229267e+00
1.00234829e+00
1.00240250e+00
1.00245535e+00
1.00250690e+00
1.00255719e+00
1.00260629e+00
1.00265427e+00
1.00270120e+00
1.00274716e+00
1.00279222e+00
1.00283648e+00
1.00288004e+00
1.00292298e+00
1.00296541e+00
1.00300745e+00
1.00304920e+00
1.00309079e+00
1.00313231e+00
1.00317391e+00
1.00321569e+00
1.00325777e+00
1.00330028e+00
1.00334332e+00
1.00338700e+00
1.00343142e+00
1.00347668e+00
1.00352286e+00
1.00357003e+00
1.00361825e+00
1.00366757e+00
1.00371802e+00
1.00376961e+00
1.00382234e+00
1.00387620e+00
1.00393114e+00
1.00398709e+00
1.00404400e+00
1.00410175e+00
1.00416022e+00
1.00421929e+00
1.00427882e+00
1.00433861e+00
1.00439848e+00
1.00445826e+00
1.00451775e+00
1.00457665e+00
1.00463478e+00
1.00469199e+00
1.00474793e+00
1.00480231e+00
1.00485505e+00
1.00490593e+00
1.00495445e+00
1.00500053e+00
1.00504419e+00
1.00508494e+00
1.00512240e+00
1.00515686e+00
1.00518806e+00
1.00521535e+00
1.00523905e+00
1.00525926e+00
1.00527512e+00
1.00528695e+00
1.00529518e+00
1.00529909e+00
9.98785006e-01
9.98783874e-01
9.98784873e-01
9.98789176e-01
9.98795927e-01
9.98804362e-01
9.98815593e-01
9.98829987e-01
9.98846433e-01
9.98865205e-01
9.98887249e-01
9.98912108e-01
9.98939357e-01
9.98969644e-01
9.99003183e-01
9.99039550e-01
9.99078837e-01
9.99121402e-01
9.99167122e-01
9.99215823e-01
9.99267645e-01
9.99322631e-01
9.99380602e-01
9.99441477e-01
9.99505255e-01
9.99571802e-01
9.99640935e-01
9.99712536e-01
9.99786460e-01
9.99862496e-01
9.99940440e-01
1.00002010e+00
1.00010126e+00
1.00018367e+00
1.00026712e+00
1.00035137e+00
1.00043620e+00
1.00052136e+00
1.00060665e+00
1.00069184e+00
1.00077675e+00
1.00086117e+00
1.00094494e+00
1.00102790e+00
1.00110989e+00
1.00119079e+00
1.00127050e+00
1.00134891e+00
1.00142594e+00
1.00150152e+00
1.00157561e+00
1.00164817e+00
1.00171916e+00
1.00178857e+00
1.00185640e+00
1.00192263e+00
1.00198729e+00
1.00205038e+00
1.00211193e+00
1.00217197e+00
1.00223051e+00
1.00228760e+00
1.00234328e+00
1.00239759e+00
1.00245057e+00
1.00250228e+00
1.00255277e+00
1.00260210e+00
1.00265033e+00
1.00269753e+00
1.00274378e+00
1.00278916e+00
1.00283374e+00
1.00287762e+00
1.00292090e+00
1.00296366e+00
1.00300602e+00
1.00304808e+00
1.00308996e+00
1.00313176e+00
1.00317361e+00
1.00321562e+00
1.00325790e+00
1.00330058e+00
1.00334376e+00
1.00338755e+00
1.00343204e+00
1.00347734e+00
1.00352353e+00
1.00357068e+00
1.00361885e+00
1.00366808e+00
1.00371842e+00
1.00376988e+00
1.00382245e+00
1.00387612e+00
1.00393086e+00
1.00398660e+00
1.00404325e+00
1.00410075e+00
1.00415898e+00
1.00421777e+00
1.00427700e+00
1.00433653e+00
1.00439613e+00
1.00445559e+00
1.00451477e+00
1.00457346e+00
1.00463131e+00
1.00468816e+00
1.00474391e+00
1.00479815e+00
1.00485051e+00
1.00490107e+00
1.00494964e+00
1.00499554e+00
1.00503869e+00
1.00507943e+00
1.00511712e+00
1.00515105e+00
1.00518192e+00
1.00520974e+00
1.00523330e+00
1.00525276e+00
1.00526906e+00
1.00528137e+00
1.00528881e+00
1.00529258e+00
9.98775870e-01
9.98774960e-01
9.98776338e-01
9.98780310e-01
9.98786797e-01
9.98795792e-01
9.98807468e-01
9.98821611e-01
9.98838250e-01
9.98857800e-01
9.98880097e-01
9.98904967e-01
9.98932793e-01
9.98963705e-01
9.98997456e-01
9.99034161e-01
9.99074070e-01
9.99117091e-01
9.99163120e-01
9.99212288e-01
9.99264620e-01
9.99319974e-01
9.99378298e-01
9.99439594e-01
9.99503738e-01
9.99570575e-01
9.99640001e-01
9.99711884e-01
9.99786025e-01
9.99862234e-01
9.99940331e-01
1.00002010e+00
1.00010132e+00
1.00018375e+00
1.00026719e+00
1.00035138e+00
1.00043610e+00
1.00052113e+00
1.00060625e+00
1.00069125e+00
1.00077592e+00
1.00086009e+00
1.00094359e+00
1.00102624e+00
1.00110793e+00
1.00118852e+00
1.00126790e+00
1.00134598e+00
1.00142269e+00
1.00149796e+00
1.00157174e+00
1.00164400e+00
1.00171472e+00
1.00178388e+00
1.00185148e+00
1.00191752e+00
1.00198201e+00
1.00204497e+00
1.00210642e+00
1.00216639e+00
1.00222491e+00
1.00228202e+00
1.00233775e+00
1.00239216e+00
1.00244527e+00
1.00249715e+00
1.00254784e+00
1.00259740e+00
1.00264590e+00
1.00269339e+00
1.00273995e+00
1.00278565e+00
1.00283058e+00
1.00287480e+00
1.00291843e+00
1.00296154e+00
1.00300424e+00
1.00304663e+00
1.00308881e+00
1.00313091e+00
1.00317303e+00
1.00321528e+00
1.00325778e+00
1.00330064e+00
1.00334397e+00
1.00338787e+00
1.00343245e+00
1.00347779e+00
1.00352399e+00
1.00357112e+00
1.00361923e+00
1.00366838e+00
1.00371860e+00
1.00376991e+00
1.00382232e+00
1.00387579e+00
1.00393030e+00
1.00398581e+00
1.00404221e+00
1.00409944e+00
1.00415737e+00
1.00421590e+00
1.00427483e+00
1.00433403e+00
1.00439334e+00
1.00445253e+00
1.00451138e+00
1.00456973e+00
1.00462738e+00
1.00468396e+00
1.00473931e+00
1.00479332e+00
1.00484561e+00
1.00489584e+00
1.00494400e+00
1.00498990e+00
1.00503305e+00
1.00507329e+00
1.00511075e+00
1.00514500e+00
1.00517567e+00
1.00520295e+00
1.00522666e+00
1.00524647e+00
1.00526240e+00
1.00527433e+00
1.00528216e+00
1.00528628e+00
9.98766031e-01
9.98765030e-01
9.98766741e-01
9.98770533e-01
9.98776928e-01
9.98786419e-01
9.98798265e-01
9.98812366e-01
9.98829516e-01
9.98849540e-01
9.98871934e-01
9.98897202e-01
9.98925662e-01
9.98956907e-01
9.98990974e-01
9.99028267e-01
9.99068699e-01
9.99112074e-01
9.99158571e-01
9.99208286e-01
9.99261044e-01
9.99316786e-01
9.99375568e-01
9.99437287e-01
9.99501772e-01
9.99568948e-01
9.99638710e-01
9.99710865e-01
9.99785229e-01
9.99861644e-01
9.99939907e-01
1.00001979e+00
1.00010107e+00
1.00018354e+00
1.00026696e+00
1.00035109e+00
1.00043572e+00
1.00052061e+00
1.00060556e+00
1.00069035e+00
1.00077479e+00
1.00085870e+00
1.00094191e+00
1.00102427e+00
1.00110563e+00
1.00118589e+00
1.00126494e+00
1.00134268e+00
1.00141905e+00
1.00149399e+00
1.00156746e+00
1.00163942e+00
1.00170985e+00
1.00177874e+00
1.00184610e+00
1.00191193e+00
1.00197624e+00
1.00203906e+00
1.00210041e+00
1.00216031e+00
1.00221880e+00
1.00227592e+00
1.00233171e+00
1.00238621e+00
1.00243946e+00
1.00249151e+00
1.00254241e+00
1.00259221e+00
1.00264098e+00
1.00268877e+00
1.00273566e+00
1.00278170e+00
1.00282697e+00
1.00287156e+00
1.00291555e+00
1.00295903e+00
1.00300208e+00
1.00304482e+00
1.00308734e+00
1.00312974e+00
1.00317215e+00
1.00321466e+00
1.00325738e+00
1.00330044e+00
1.00334393e+00
1.00338796e+00
1.00343263e+00
1.00347803e+00
1.00352424e+00
1.00357135e+00
1.00361941e+00
1.00366847e+00
1.00371857e+00
1.00376973e+00
1.00382196e+00
1.00387523e+00
1.00392951e+00
1.00398476e+00
1.00404091e+00
1.00409786e+00
1.00415549e+00
1.00421371e+00
1.00427235e+00
1.00433123e+00
1.00439019e+00
1.00444909e+00
1.00450766e+00
1.00456565e+00
1.00462296e+00
1.00467934e+00
1.00473440e+00
1.00478801e+00
1.00484010e+00
1.00489022e+00
1.00493801e+00
1.00498361e+00
1.00502676e+00
1.00506684e+00
1.00510388e+00
1.00513814e+00
1.00516889e+00
1.00519578e+00
1.00521939e+00
1.00523947e+00
1.00525516e+00
1.00526685e+00
1.00527505e+00
1.00527916e+00
9.98755668e-01
9.98754383e-01
9.98755710e-01
9.98759861e-01
9.98766649e-01
9.98775945e-01
9.98787867e-01
9.98802646e-01
9.98820105e-01
9.98840116e-01
9.98863037e-01
9.98888977e-01
9.98917664e-01
9.98949237e-01
9.98983989e-01
9.99021799e-01
9.99062555e-01
9.99106459e-01
9.99153565e-01
9.99203710e-01
9.99256883e-01
9.99313151e-01
9.99372401e-01
9.99434491e-01
9.99499369e-01
9.99566943e-01
9.99637025e-01
9.99709451e-01
9.99784081e-01
9.99860717e-01
9.99939136e-01
1.00001914e+00
1.00010051e+00
1.00018301e+00
1.00026641e+00
1.00035049e+00
1.00043503e+00
1.00051979e+00
1.00060456e+00
1.00068914e+00
1.00077335e+00
1.00085699e+00
1.00093991e+00
1.00102195e+00
1.00110299e+00
1.00118291e+00
1.00126161e+00
1.00133901e+00
1.00141503e+00
1.00148963e+00
1.00156277e+00
1.00163441e+00
1.00170454e+00
1.00177316e+00
1.00184027e+00
1.00190588e+00
1.00197000e+00
1.00203267e+00
1.00209389e+00
1.00215372e+00
1.00221218e+00
1.00226931e+00
1.00232514e+00
1.00237973e+00
1.00243311e+00
1.00248533e+00
1.00253645e+00
1.00258650e+00
1.00263554e+00
1.00268364e+00
1.00273086e+00
1.00277725e+00
1.00282289e+00
1.00286785e+00
1.00291221e+00
1.00295607e+00
1.00299949e+00
1.00304259e+00
1.00308545e+00
1.00312818e+00
1.00317088e+00
1.00321366e+00
1.00325662e+00
1.00329988e+00
1.00334354e+00
1.00338770e+00
1.00343247e+00
1.00347792e+00
1.00352415e+00
1.00357124e+00
1.00361924e+00
1.00366821e+00
1.00371819e+00
1.00376919e+00
1.00382123e+00
1.00387428e+00
1.00392834e+00
1.00398332e+00
1.00403919e+00
1.00409585e+00
1.00415318e+00
1.00421106e+00
1.00426937e+00
1.00432794e+00
1.00438657e+00
1.00444509e+00
1.00450335e+00
1.00456108e+00
1.00461801e+00
1.00467402e+00
1.00472890e+00
1.00478226e+00
1.00483392e+00
1.00488381e+00
1.00493157e+00
1.00497682e+00
1.00501958e+00
1.00505972e+00
1.00509673e+00
1.00513049e+00
1.00516113e+00
1.00518831e+00
1.00521169e+00
1.00523134e+00
1.00524726e+00
1.00525923e+00
1.00526706e+00
1.00527099e+00
9.98744071e-01
9.98742797e-01
9.98744008e-01
9.98748279e-01
9.98755242e-01
9.98764630e-01
9.98776864e-01
9.98792007e-01
9.98809656e-01
9.98830055e-01
9.98853532e-01
9.98879818e-01
9.98908870e-01
9.98941054e-01
9.98976338e-01
9.99014540e-01
9.99055834e-01
9.99100350e-01
9.99147928e-01
9.99198533e-01
9.99252262e-01
9.99309037e-01
9.99368708e-01
9.99431237e-01
9.99496562e-01
9.99564507e-01
9.99634913e-01
9.99707660e-01
9.99782566e-01
9.99859412e-01
9.99938006e-01
1.00001815e+00
1.00009960e+00
1.00018214e+00
1.00026554e+00
1.00034957e+00
1.00043401e+00
1.00051863e+00
1.00060323e+00
1.00068760e+00
1.00077156e+00
1.00085494e+00
1.00093756e+00
1.00101929e+00
1.00110000e+00
1.00117957e+00
1.00125792e+00
1.00133496e+00
1.00141063e+00
1.00148487e+00
1.00155767e+00
1.00162898e+00
1.00169881e+00
1.00176714e+00
1.00183399e+00
1.00189936e+00
1.00196329e+00
1.00202579e+00
1.00208689e+00
1.00214663e+00
1.00220505e+00
1.00226218e+00
1.00231806e+00
1.00237273e+00
1.00242624e+00