# vtk DataFile Version 2.0
LBM Flow Field - Timestep 330
ASCII
DATASET STRUCTURED_POINTS
DIMENSIONS 128 128 1
ORIGIN 0.0 0.0 0.0
SPACING 1.0 1.0 1.0
POINT_DATA 16384
SCALARS density double 1
LOOKUP_TABLE default
1.00359004e+00
1.00353004e+00
1.00345117e+00
1.00334315e+00
1.00317089e+00
1.00301275e+00
1.00276387e+00
1.00242983e+00
1.00207557e+00
1.00169322e+00
1.00127345e+00
1.00085515e+00
1.00046148e+00
1.00009787e+00
9.99776223e-01
9.99504465e-01
9.99283966e-01
9.99111456e-01
9.98983379e-01
9.98893552e-01
9.98836036e-01
9.98804360e-01
9.98793198e-01
9.98797383e-01
9.98812896e-01
9.98836154e-01
9.98864554e-01
9.98896006e-01
9.98929213e-01
9.98963289e-01
9.98997856e-01
9.99032733e-01
9.99067905e-01
9.99103322e-01
9.99138887e-01
9.99174394e-01
9.99209597e-01
9.99244241e-01
9.99278158e-01
9.99311299e-01
9.99343767e-01
9.99375793e-01
9.99407696e-01
9.99439799e-01
9.99472369e-01
9.99505553e-01
9.99539356e-01
9.99573646e-01
9.99608186e-01
9.99642688e-01
9.99676874e-01
9.99710521e-01
9.99743499e-01
9.99775779e-01
9.99807423e-01
9.99838559e-01
9.99869355e-01
9.99899975e-01
9.99930563e-01
9.99961224e-01
9.99992014e-01
1.00002294e+00
1.00005399e+00
1.00008509e+00
1.00011618e+00
1.00014719e+00
1.00017807e+00
1.00020878e+00
1.00023932e+00
1.00026976e+00
1.00030021e+00
1.00033084e+00
1.00036183e+00
1.00039339e+00
1.00042567e+00
1.00045873e+00
1.00049251e+00
1.00052681e+00
1.00056135e+00
1.00059574e+00
1.00062967e+00
1.00066289e+00
1.00069532e+00
1.00072705e+00
1.00075836e+00
1.00078956e+00
1.00082102e+00
1.00085300e+00
1.00088562e+00
1.00091885e+00
1.00095255e+00
1.00098649e+00
1.00102048e+00
1.00105437e+00
1.00108811e+00
1.00112170e+00
1.00115514e+00
1.00118831e+00
1.00122094e+00
1.00125249e+00
1.00128217e+00
1.00130878e+00
1.00133091e+00
1.00134653e+00
1.00135327e+00
1.00134783e+00
1.00132640e+00
1.00128394e+00
1.00121522e+00
1.00111396e+00
1.00097485e+00
1.00079268e+00
1.00056551e+00
1.00029156e+00
9.99973732e-01
9.99619818e-01
9.99240125e-01
9.98836301e-01
9.98426570e-01
9.98041041e-01
9.97666395e-01
9.97290708e-01
9.96978367e-01
9.96743238e-01
9.96476925e-01
9.96272392e-01
9.96142726e-01
9.96043736e-01
1.00353036e+00
1.00348293e+00
1.00338749e+00
1.00329166e+00
1.00310225e+00
1.00292167e+00
1.00268590e+00
1.00238148e+00
1.00204009e+00
1.00167658e+00
1.00128973e+00
1.00089724e+00
1.00051933e+00
1.00016662e+00
9.99850886e-01
9.99577260e-01
9.99350590e-01
9.99169345e-01
9.99031834e-01
9.98932450e-01
9.98866511e-01
9.98827510e-01
9.98810372e-01
9.98809585e-01
9.98821156e-01
9.98841261e-01
9.98867339e-01
9.98897154e-01
9.98929392e-01
9.98962990e-01
9.98997443e-01
9.99032360e-01
9.99067600e-01
9.99103002e-01
9.99138457e-01
9.99173783e-01
9.99208808e-01
9.99243342e-01
9.99277267e-01
9.99310539e-01
9.99343232e-01
9.99375519e-01
9.99407656e-01
9.99439915e-01
9.99472534e-01
9.99505662e-01
9.99539328e-01
9.99573441e-01
9.99607807e-01
9.99642174e-01
9.99676286e-01
9.99709927e-01
9.99742961e-01
9.99775341e-01
9.99807109e-01
9.99838374e-01
9.99869283e-01
9.99899992e-01
9.99930638e-01
9.99961323e-01
9.99992107e-01
1.00002301e+00
1.00005400e+00
1.00008505e+00
1.00011609e+00
1.00014706e+00
1.00017790e+00
1.00020860e+00
1.00023917e+00
1.00026968e+00
1.00030023e+00
1.00033099e+00
1.00036213e+00
1.00039384e+00
1.00042622e+00
1.00045931e+00
1.00049304e+00
1.00052722e+00
1.00056156e+00
1.00059575e+00
1.00062951e+00
1.00066265e+00
1.00069510e+00
1.00072696e+00
1.00075845e+00
1.00078984e+00
1.00082145e+00
1.00085350e+00
1.00088612e+00
1.00091932e+00
1.00095299e+00
1.00098695e+00
1.00102102e+00
1.00105501e+00
1.00108882e+00
1.00112234e+00
1.00115551e+00
1.00118816e+00
1.00122003e+00
1.00125057e+00
1.00127903e+00
1.00130410e+00
1.00132427e+00
1.00133713e+00
1.00134010e+00
1.00132938e+00
1.00130121e+00
1.00125042e+00
1.00117254e+00
1.00106181e+00
1.00091463e+00
1.00072634e+00
1.00049646e+00
1.00022377e+00
9.99913374e-01
9.99568809e-01
9.99199957e-01
9.98813052e-01
9.98425287e-01
9.98048390e-01
9.97680450e-01
9.97333379e-01
9.97040766e-01
9.96793834e-01
9.96531582e-01
9.96368719e-01
9.96236966e-01
9.96144786e-01
1.00345197e+00
1.00338799e+00
1.00328000e+00
1.00317863e+00
1.00303438e+00
1.00280498e+00
1.00255421e+00
1.00230565e+00
1.00199590e+00
1.00164858e+00
1.00130077e+00
1.00094750e+00
1.00059262e+00
1.00025654e+00
9.99949621e-01
9.99676415e-01
9.99442871e-01
9.99251371e-01
9.99101140e-01
9.98989028e-01
9.98910932e-01
9.98861478e-01
9.98835370e-01
9.98827391e-01
9.98833128e-01
9.98848781e-01
9.98871475e-01
9.98898950e-01
9.98929627e-01
9.98962355e-01
9.98996385e-01
9.99031184e-01
9.99066419e-01
9.99101840e-01
9.99137265e-01
9.99172529e-01
9.99207480e-01
9.99241982e-01
9.99275940e-01
9.99309322e-01
9.99342185e-01
9.99374669e-01
9.99406983e-01
9.99439366e-01
9.99472040e-01
9.99505153e-01
9.99538758e-01
9.99572786e-01
9.99607073e-01
9.99641394e-01
9.99675502e-01
9.99709186e-01
9.99742300e-01
9.99774785e-01
9.99806668e-01
9.99838044e-01
9.99869050e-01
9.99899835e-01
9.99930534e-01
9.99961251e-01
9.99992048e-01
1.00002295e+00
1.00005393e+00
1.00008496e+00
1.00011599e+00
1.00014694e+00
1.00017779e+00
1.00020851e+00
1.00023911e+00
1.00026968e+00
1.00030032e+00
1.00033118e+00
1.00036244e+00
1.00039427e+00
1.00042675e+00
1.00045991e+00
1.00049366e+00
1.00052781e+00
1.00056210e+00
1.00059622e+00
1.00062992e+00
1.00066303e+00
1.00069550e+00
1.00072743e+00
1.00075901e+00
1.00079050e+00
1.00082219e+00
1.00085430e+00
1.00088698e+00
1.00092025e+00
1.00095403e+00
1.00098814e+00
1.00102237e+00
1.00105650e+00
1.00109032e+00
1.00112367e+00
1.00115639e+00
1.00118829e+00
1.00121908e+00
1.00124821e+00
1.00127484e+00
1.00129760e+00
1.00131459e+00
1.00132318e+00
1.00132021e+00
1.00130179e+00
1.00126378e+00
1.00120163e+00
1.00111117e+00
1.00098831e+00
1.00083031e+00
1.00063492e+00
1.00040174e+00
1.00013242e+00
9.99831246e-01
9.99500128e-01
9.99146928e-01
9.98788231e-01
9.98425984e-01
9.98054919e-01
9.97711494e-01
9.97420523e-01
9.97122402e-01
9.96842139e-01
9.96657546e-01
9.96526391e-01
9.96374085e-01
9.96279517e-01
1.00334549e+00
1.00329365e+00
1.00317961e+00
1.00301831e+00
1.00286341e+00
1.00266384e+00
1.00242934e+00
1.00218136e+00
1.00190528e+00
1.00161520e+00
1.00131125e+00
1.00099495e+00
1.00067726e+00
1.00036900e+00
1.00007518e+00
9.99805642e-01
9.99567519e-01
9.99365052e-01
9.99199708e-01
9.99071262e-01
9.98976872e-01
9.98912533e-01
9.98873405e-01
9.98854675e-01
9.98851776e-01
9.98860821e-01
9.98878597e-01
9.98902620e-01
9.98930975e-01
9.98962264e-01
9.98995456e-01
9.99029825e-01
9.99064856e-01
9.99100195e-01
9.99135582e-01
9.99170828e-01
9.99205771e-01
9.99240290e-01
9.99274300e-01
9.99307774e-01
9.99340760e-01
9.99373387e-01
9.99405845e-01
9.99438356e-01
9.99471124e-01
9.99504295e-01
9.99537918e-01
9.99571940e-01
9.99606210e-01
9.99640515e-01
9.99674624e-01
9.99708334e-01
9.99741500e-01
9.99774061e-01
9.99806034e-01
9.99837507e-01
9.99868606e-01
9.99899474e-01
9.99930242e-01
9.99961013e-01
9.99991850e-01
1.00002278e+00
1.00005378e+00
1.00008483e+00
1.00011587e+00
1.00014685e+00
1.00017772e+00
1.00020848e+00
1.00023914e+00
1.00026978e+00
1.00030051e+00
1.00033147e+00
1.00036284e+00
1.00039476e+00
1.00042732e+00
1.00046054e+00
1.00049431e+00
1.00052846e+00
1.00056273e+00
1.00059684e+00
1.00063054e+00
1.00066367e+00
1.00069620e+00
1.00072821e+00
1.00075988e+00
1.00079146e+00
1.00082324e+00
1.00085544e+00
1.00088820e+00
1.00092157e+00
1.00095546e+00
1.00098970e+00
1.00102404e+00
1.00105823e+00
1.00109198e+00
1.00112504e+00
1.00115719e+00
1.00118813e+00
1.00121747e+00
1.00124457e+00
1.00126836e+00
1.00128727e+00
1.00129903e+00
1.00130073e+00
1.00128880e+00
1.00125926e+00
1.00120792e+00
1.00113089e+00
1.00102473e+00
1.00088703e+00
1.00071631e+00
1.00051294e+00
1.00027776e+00
1.00001319e+00
9.99723370e-01
9.99414442e-01
9.99088492e-01
9.98754522e-01
9.98422886e-01
9.98097808e-01
9.97782123e-01
9.97495817e-01
9.97230690e-01
9.97004432e-01
9.96828687e-01
9.96665344e-01
9.96544766e-01
9.96491996e-01
1.00317581e+00
1.00310628e+00
1.00303694e+00
1.00286470e+00
1.00266657e+00
1.00248738e+00
1.00228118e+00
1.00203933e+00
1.00180688e+00
1.00157421e+00
1.00131395e+00
1.00104364e+00
1.00077193e+00
1.00049508e+00
1.00022013e+00
9.99959371e-01
9.99719276e-01
9.99506010e-01
9.99324515e-01
9.99177009e-01
9.99062838e-01
9.98979748e-01
9.98924043e-01
9.98891400e-01
9.98877365e-01
9.98877841e-01
9.98889249e-01
9.98908673e-01
9.98933815e-01
9.98962927e-01
9.98994710e-01
9.99028223e-01
9.99062789e-01
9.99097923e-01
9.99133270e-01
9.99168559e-01
9.99203585e-01
9.99238195e-01
9.99272298e-01
9.99305872e-01
9.99338970e-01
9.99371720e-01
9.99404311e-01
9.99436952e-01
9.99469834e-01
9.99503092e-01
9.99536771e-01
9.99570821e-01
9.99605104e-01
9.99639421e-01
9.99673555e-01
9.99707307e-01
9.99740538e-01
9.99773180e-01
9.99805244e-01
9.99836808e-01
9.99867994e-01
9.99898940e-01
9.99929778e-01
9.99960611e-01
9.99991506e-01
1.00002249e+00
1.00005355e+00
1.00008465e+00
1.00011574e+00
1.00014677e+00
1.00017770e+00
1.00020851e+00
1.00023923e+00
1.00026994e+00
1.00030074e+00
1.00033179e+00
1.00036326e+00
1.00039528e+00
1.00042795e+00
1.00046126e+00
1.00049512e+00
1.00052932e+00
1.00056361e+00
1.00059771e+00
1.00063140e+00
1.00066452e+00
1.00069707e+00
1.00072912e+00
1.00076089e+00
1.00079262e+00
1.00082459e+00
1.00085699e+00
1.00088997e+00
1.00092353e+00
1.00095755e+00
1.00099185e+00
1.00102615e+00
1.00106016e+00
1.00109359e+00
1.00112615e+00
1.00115753e+00
1.00118732e+00
1.00121494e+00
1.00123948e+00
1.00125953e+00
1.00127312e+00
1.00127759e+00
1.00126969e+00
1.00124566e+00
1.00120159e+00
1.00113371e+00
1.00103889e+00
1.00091494e+00
1.00076106e+00
1.00057743e+00
1.00036604e+00
1.00013014e+00
9.99872857e-01
9.99596984e-01
9.99311055e-01
9.99019271e-01
9.98718381e-01
9.98419127e-01
9.98143769e-01
9.97871929e-01
9.97599266e-01
9.97376566e-01
9.97200866e-01
9.97013997e-01
9.96859081e-01
9.96815615e-01
9.96767157e-01
1.00302108e+00
1.00292858e+00
1.00280999e+00
1.00266684e+00
1.00248866e+00
1.00229053e+00
1.00209587e+00
1.00190550e+00
1.00171634e+00
1.00151403e+00
1.00130582e+00
1.00109350e+00
1.00086449e+00
1.00062112e+00
1.00037385e+00
1.00012783e+00
9.99889742e-01
9.99669180e-01
9.99473195e-01
9.99306072e-01
9.99170100e-01
9.99065285e-01
9.98989590e-01
9.98939675e-01
9.98911541e-01
9.98901021e-01
9.98904195e-01
9.98917628e-01
9.98938510e-01
9.98964640e-01
9.98994387e-01
9.99026563e-01
9.99060319e-01
9.99095038e-01
9.99130252e-01
9.99165592e-01
9.99200764e-01
9.99235549e-01
9.99269810e-01
9.99303511e-01
9.99336712e-01
9.99369556e-01
9.99402247e-01
9.99435000e-01
9.99468007e-01
9.99501396e-01
9.99535201e-01
9.99569362e-01
9.99603735e-01
9.99638125e-01
9.99672319e-01
9.99706126e-01
9.99739411e-01
9.99772113e-01
9.99804243e-01
9.99835879e-01
9.99867141e-01
9.99898167e-01
9.99929088e-01
9.99960007e-01
9.99990991e-01
1.00002207e+00
1.00005322e+00
1.00008442e+00
1.00011560e+00
1.00014672e+00
1.00017774e+00
1.00020863e+00
1.00023943e+00
1.00027021e+00
1.00030109e+00
1.00033222e+00
1.00036378e+00
1.00039590e+00
1.00042867e+00
1.00046208e+00
1.00049602e+00
1.00053031e+00
1.00056466e+00
1.00059881e+00
1.00063253e+00
1.00066569e+00
1.00069828e+00
1.00073042e+00
1.00076233e+00
1.00079426e+00
1.00082647e+00
1.00085914e+00
1.00089237e+00
1.00092611e+00
1.00096021e+00
1.00099445e+00
1.00102856e+00
1.00106225e+00
1.00109522e+00
1.00112715e+00
1.00115761e+00
1.00118599e+00
1.00121139e+00
1.00123247e+00
1.00124736e+00
1.00125361e+00
1.00124822e+00
1.00122775e+00
1.00118856e+00
1.00112711e+00
1.00104041e+00
1.00092635e+00
1.00078404e+00
1.00061421e+00
1.00041894e+00
1.00020115e+00
9.99965341e-01
9.99717531e-01
9.99460747e-01
9.99197697e-01
9.98937619e-01
9.98684785e-01
9.98431542e-01
9.98186084e-01
9.97964089e-01
9.97757445e-01
9.97562860e-01
9.97387754e-01
9.97251054e-01
9.97149535e-01
9.97072472e-01
9.97012091e-01
1.00277681e+00
1.00269691e+00
1.00256231e+00
1.00243435e+00
1.00228374e+00
1.00209668e+00
1.00192674e+00
1.00177411e+00
1.00161427e+00
1.00145370e+00
1.00130159e+00
1.00113467e+00
1.00094643e+00
1.00074499e+00
1.00052969e+00
1.00030189e+00
1.00007182e+00
9.99849109e-01
9.99641301e-01
9.99455666e-01
9.99297518e-01
9.99169294e-01
9.99071067e-01
9.99001033e-01
9.98955973e-01
9.98931900e-01
9.98924666e-01
9.98930370e-01
9.98945655e-01
9.98967816e-01
9.98994806e-01
9.99025125e-01
9.99057702e-01
9.99091751e-01
9.99126668e-01
9.99161964e-01
9.99197246e-01
9.99232212e-01
9.99266674e-01
9.99300560e-01
9.99333922e-01
9.99366908e-01
9.99399729e-01
9.99432614e-01
9.99465758e-01
9.99499286e-01
9.99533229e-01
9.99567521e-01
9.99602014e-01
9.99636508e-01
9.99670791e-01
9.99704677e-01
9.99738035e-01
9.99770807e-01
9.99803010e-01
9.99834725e-01
9.99866072e-01
9.99897191e-01
9.99928212e-01
9.99959239e-01
9.99990336e-01
1.00002153e+00
1.00005280e+00
1.00008412e+00
1.00011543e+00
1.00014667e+00
1.00017779e+00
1.00020879e+00
1.00023969e+00
1.00027057e+00
1.00030155e+00
1.00033279e+00
1.00036445e+00
1.00039668e+00
1.00042956e+00
1.00046308e+00
1.00049712e+00
1.00053149e+00
1.00056590e+00
1.00060010e+00
1.00063386e+00
1.00066709e+00
1.00069979e+00
1.00073210e+00
1.00076423e+00
1.00079644e+00
1.00082897e+00
1.00086195e+00
1.00089542e+00
1.00092930e+00
1.00096340e+00
1.00099748e+00
1.00103127e+00
1.00106449e+00
1.00109685e+00
1.00112794e+00
1.00115716e+00
1.00118363e+00
1.00120600e+00
1.00122242e+00
1.00123049e+00
1.00122729e+00
1.00120954e+00
1.00117381e+00
1.00111681e+00
1.00103572e+00
1.00092858e+00
1.00079462e+00
1.00063435e+00
1.00044974e+00
1.00024455e+00
1.00002340e+00
9.99790573e-01
9.99552482e-01
9.99316641e-01
9.99083919e-01
9.98855362e-01
9.98642881e-01
9.98446311e-01
9.98250062e-01
9.98069039e-01
9.97917290e-01
9.97770403e-01
9.97622763e-01
9.97527563e-01
9.97457918e-01
9.97374471e-01
9.97333699e-01
1.00244823e+00
1.00239705e+00
1.00231742e+00
1.00218911e+00
1.00204348e+00
1.00190694e+00
1.00177421e+00
1.00163745e+00
1.00151432e+00
1.00140558e+00
1.00129109e+00
1.00116078e+00
1.00102038e+00
1.00086124e+00
1.00067653e+00
1.00047286e+00
1.00025796e+00
1.00003822e+00
9.99823154e-01
9.99622667e-01
9.99444067e-01
9.99292410e-01
9.99170308e-01
9.99077854e-01
9.99013043e-01
9.98972517e-01
9.98952216e-01
9.98947977e-01
9.98955968e-01
9.98972954e-01
9.98996374e-01
9.99024300e-01
9.99055329e-01
9.99088424e-01
9.99122808e-01
9.99157870e-01
9.99193121e-01
9.99228190e-01
9.99262836e-01
9.99296943e-01
9.99330533e-01
9.99363735e-01
9.99396753e-01
9.99429815e-01
9.99463120e-01
9.99496798e-01
9.99530885e-01
9.99565316e-01
9.99599941e-01
9.99634558e-01
9.99668954e-01
9.99702940e-01
9.99736390e-01
9.99769250e-01
9.99801541e-01
9.99833348e-01
9.99864798e-01
9.99896030e-01
9.99927173e-01
9.99958329e-01
9.99989560e-01
1.00002089e+00
1.00005230e+00
1.00008376e+00
1.00011520e+00
1.00014658e+00
1.00017784e+00
1.00020898e+00
1.00024002e+00
1.00027104e+00
1.00030215e+00
1.00033352e+00
1.00036531e+00
1.00039766e+00
1.00043063e+00
1.00046424e+00
1.00049835e+00
1.00053276e+00
1.00056723e+00
1.00060151e+00
1.00063539e+00
1.00066879e+00
1.00070171e+00
1.00073430e+00
1.00076676e+00
1.00079930e+00
1.00083212e+00
1.00086532e+00
1.00089892e+00
1.00093280e+00
1.00096680e+00
1.00100066e+00
1.00103413e+00
1.00106691e+00
1.00109858e+00
1.00112859e+00
1.00115606e+00
1.00117970e+00
1.00119771e+00
1.00120771e+00
1.00120683e+00
1.00119182e+00
1.00115932e+00
1.00110612e+00
1.00102949e+00
1.00092756e+00
1.00079951e+00
1.00064596e+00
1.00046893e+00
1.00027169e+00
1.00005869e+00
9.99836361e-01
9.99610773e-01
9.99386178e-01
9.99169723e-01
9.98969714e-01
9.98783735e-01
9.98609336e-01
9.98458351e-01
9.98328291e-01
9.98202409e-01
9.98083731e-01
9.97991014e-01
9.97908121e-01
9.97825106e-01
9.97758713e-01
9.97730152e-01
9.97717510e-01
1.00209978e+00
1.00206068e+00
1.00201187e+00
1.00191628e+00
1.00181305e+00
1.00171870e+00
1.00161434e+00
1.00151368e+00
1.00143399e+00
1.00135570e+00
1.00127078e+00
1.00118422e+00
1.00108585e+00
1.00096041e+00
1.00080958e+00
1.00063592e+00
1.00043983e+00
1.00022843e+00
1.00001265e+00
9.99802374e-01
9.99606633e-01
9.99433305e-01
9.99287449e-01
9.99171256e-01
9.99084417e-01
9.99024701e-01
9.98988560e-01
9.98971884e-01
9.98970553e-01
9.98980842e-01
9.98999632e-01
9.99024460e-01
9.99053462e-01
9.99085259e-01
9.99118836e-01
9.99153431e-01
9.99188470e-01
9.99223521e-01
9.99258292e-01
9.99292626e-01
9.99326497e-01
9.99359995e-01
9.99393292e-01
9.99426597e-01
9.99460105e-01
9.99493954e-01
9.99528187e-01
9.99562749e-01
9.99597499e-01
9.99632239e-01
9.99666757e-01
9.99700865e-01
9.99734435e-01
9.99767414e-01
9.99799827e-01
9.99831762e-01
9.99863344e-01
9.99894713e-01
9.99926000e-01
9.99957302e-01
9.99988680e-01
1.00002016e+00
1.00005172e+00
1.00008332e+00
1.00011492e+00
1.00014645e+00
1.00017787e+00
1.00020918e+00
1.00024039e+00
1.00027159e+00
1.00030288e+00
1.00033441e+00
1.00036634e+00
1.00039880e+00
1.00043187e+00
1.00046554e+00
1.00049970e+00
1.00053417e+00
1.00056872e+00
1.00060312e+00
1.00063719e+00
1.00067085e+00
1.00070410e+00
1.00073706e+00
1.00076988e+00
1.00080275e+00
1.00083580e+00
1.00086913e+00
1.00090274e+00
1.00093655e+00
1.00097040e+00
1.00100406e+00
1.00103723e+00
1.00106951e+00
1.00110031e+00
1.00112877e+00
1.00115365e+00
1.00117321e+00
1.00118516e+00
1.00118670e+00
1.00117465e+00
1.00114562e+00
1.00109637e+00
1.00102409e+00
1.00092679e+00
1.00080365e+00
1.00065511e+00
1.00048304e+00
1.00029086e+00
1.00008351e+00
9.99866270e-01
9.99645388e-01
9.99429070e-01
9.99223804e-01
9.99032005e-01
9.98860644e-01
9.98717317e-01
9.98594546e-01
9.98487827e-01
9.98406644e-01
9.98344891e-01
9.98280448e-01
9.98227155e-01
9.98192210e-01
9.98151019e-01
9.98110705e-01
9.98105339e-01
9.98098536e-01
1.00172259e+00
1.00170182e+00
1.00166886e+00
1.00162991e+00
1.00158314e+00
1.00151803e+00
1.00145414e+00
1.00140423e+00
1.00135435e+00
1.00130042e+00
1.00125390e+00
1.00120386e+00
1.00113429e+00
1.00104323e+00
1.00092915e+00
1.00078434e+00
1.00060991e+00
1.00041371e+00
1.00020361e+00
9.99989132e-01
9.99781330e-01
9.99589894e-01
9.99421906e-01
9.99281909e-01
9.99171649e-01
9.99090434e-01
9.99035724e-01
9.99003892e-01
9.98990830e-01
9.98992492e-01
9.99005230e-01
9.99025985e-01
9.99052330e-01
9.99082427e-01
9.99114923e-01
9.99148839e-01
9.99183480e-01
9.99218352e-01
9.99253126e-01
9.99287610e-01
9.99321740e-01
9.99355560e-01
9.99389200e-01
9.99422832e-01
9.99456627e-01
9.99490713e-01
9.99525135e-01
9.99559850e-01
9.99594729e-01
9.99629588e-01
9.99664224e-01
9.99698458e-01
9.99732163e-01
9.99765286e-01
9.99797853e-01
9.99829946e-01
9.99861692e-01
9.99893227e-01
9.99924680e-01
9.99956147e-01
9.99987691e-01
1.00001933e+00
1.00005105e+00
1.00008283e+00
1.00011459e+00
1.00014630e+00
1.00017792e+00
1.00020942e+00
1.00024084e+00
1.00027224e+00
1.00030372e+00
1.00033542e+00
1.00036749e+00
1.00040006e+00
1.00043321e+00
1.00046693e+00
1.00050116e+00
1.00053572e+00
1.00057042e+00
1.00060504e+00
1.00063940e+00
1.00067342e+00
1.00070707e+00
1.00074042e+00
1.00077357e+00
1.00080668e+00
1.00083986e+00
1.00087322e+00
1.00090678e+00
1.00094051e+00
1.00097425e+00
1.00100777e+00
1.00104065e+00
1.00107229e+00
1.00110181e+00
1.00112794e+00
1.00114901e+00
1.00116283e+00
1.00116672e+00
1.00115763e+00
1.00113224e+00
1.00108726e+00
1.00101977e+00
1.00092752e+00
1.00080933e+00
1.00066537e+00
1.00049734e+00
1.00030850e+00
1.00010336e+00
9.99888108e-01
9.99670005e-01
9.99455618e-01
9.99251664e-01
9.99067310e-01
9.98907760e-01
9.98772039e-01
9.98665418e-01
9.98592781e-01
9.98543024e-01
9.98506392e-01
9.98492457e-01
9.98492356e-01
9.98485960e-01
9.98478607e-01
9.98484876e-01
9.98488670e-01
9.98487773e-01
9.98488708e-01
1.00130669e+00
1.00131883e+00
1.00132498e+00
1.00132984e+00
1.00132634e+00
1.00131242e+00
1.00130336e+00
1.00128972e+00
1.00126820e+00
1.00125193e+00
1.00123746e+00
1.00121000e+00
1.00116988e+00
1.00111399e+00
1.00103010e+00
1.00091285e+00
1.00076505e+00
1.00058882e+00
1.00038948e+00
1.00017737e+00
9.99963677e-01
9.99758703e-01
9.99571533e-01
9.99409034e-01
9.99275092e-01
9.99170911e-01
9.99095419e-01
9.99045889e-01
9.99018581e-01
9.99009373e-01
9.99014231e-01
9.99029541e-01
9.99052279e-01
9.99080062e-01
9.99111105e-01
9.99144122e-01
9.99178218e-01
9.99212792e-01
9.99247459e-01
9.99281997e-01
9.99316313e-01
9.99350421e-01
9.99384412e-01
9.99418418e-01
9.99452575e-01
9.99486981e-01
9.99521671e-01
9.99556599e-01
9.99591645e-01
9.99626641e-01
9.99661401e-01
9.99695759e-01
9.99729600e-01
9.99762875e-01
9.99795608e-01
9.99827881e-01
9.99859813e-01
9.99891540e-01
9.99923184e-01
9.99954843e-01
9.99986577e-01
1.00001841e+00
1.00005033e+00
1.00008230e+00
1.00011427e+00
1.00014619e+00
1.00017802e+00
1.00020974e+00
1.00024137e+00
1.00027297e+00
1.00030463e+00
1.00033649e+00
1.00036869e+00
1.00040136e+00
1.00043460e+00
1.00046843e+00
1.00050279e+00
1.00053754e+00
1.00057249e+00
1.00060742e+00
1.00064216e+00
1.00067656e+00
1.00071059e+00
1.00074426e+00
1.00077766e+00
1.00081092e+00
1.00084418e+00
1.00087756e+00
1.00091112e+00
1.00094484e+00
1.00097855e+00
1.00101191e+00
1.00104432e+00
1.00107489e+00
1.00110236e+00
1.00112504e+00
1.00114082e+00
1.00114711e+00
1.00114099e+00
1.00111925e+00
1.00107866e+00
1.00101621e+00
1.00092942e+00
1.00081676e+00
1.00067789e+00
1.00051402e+00
1.00032796e+00
1.00012442e+00
9.99909401e-01
9.99689800e-01
9.99473910e-01
9.99270635e-01
9.99086167e-01
9.98926194e-01
9.98799001e-01
9.98706540e-01
9.98643614e-01
9.98611827e-01
9.98613515e-01
9.98632607e-01
9.98660775e-01
9.98703578e-01
9.98750963e-01
9.98786974e-01
9.98823348e-01
9.98855976e-01
9.98879216e-01
9.98901295e-01
1.00089033e+00
1.00092870e+00
1.00097480e+00
1.00101720e+00
1.00105989e+00
1.00110362e+00
1.00113906e+00
1.00116067e+00
1.00118137e+00
1.00120030e+00
1.00120761e+00
1.00120633e+00
1.00119732e+00
1.00116766e+00
1.00110995e+00
1.00102301e+00
1.00090310e+00
1.00074871e+00
1.00056565e+00
1.00036247e+00
1.00014873e+00
9.99935453e-01
9.99733300e-01
9.99550892e-01
9.99394255e-01
9.99266743e-01
9.99169044e-01
9.99099695e-01
9.99055691e-01
9.99033167e-01
9.99027947e-01
9.99036018e-01
9.99053822e-01
9.99078408e-01
9.99107471e-01
9.99139311e-01
9.99172727e-01
9.99206921e-01
9.99241400e-01
9.99275894e-01
9.99310295e-01
9.99344606e-01
9.99378902e-01
9.99413286e-01
9.99447856e-01
9.99482671e-01
9.99517730e-01
9.99552965e-01
9.99588253e-01
9.99623433e-01
9.99658337e-01
9.99692818e-01
9.99726782e-01
9.99760195e-01
9.99793085e-01
9.99825537e-01
9.99857669e-01
9.99889609e-01
9.99921475e-01
9.99953362e-01
9.99985326e-01
1.00001739e+00
1.00004954e+00
1.00008175e+00
1.00011396e+00
1.00014613e+00
1.00017819e+00
1.00021015e+00
1.00024199e+00
1.00027378e+00
1.00030561e+00
1.00033760e+00
1.00036992e+00
1.00040271e+00
1.00043609e+00
1.00047009e+00
1.00050467e+00
1.00053971e+00
1.00057501e+00
1.00061033e+00
1.00064545e+00
1.00068022e+00
1.00071456e+00
1.00074846e+00
1.00078203e+00
1.00081540e+00
1.00084876e+00
1.00088225e+00
1.00091594e+00
1.00094977e+00
1.00098345e+00
1.00101647e+00
1.00104795e+00
1.00107668e+00
1.00110099e+00
1.00111881e+00
1.00112764e+00
1.00112465e+00
1.00110672e+00
1.00107068e+00
1.00101345e+00
1.00093241e+00
1.00082566e+00
1.00069241e+00
1.00053327e+00
1.00035062e+00
1.00014849e+00
9.99932775e-01
9.99711127e-01
9.99492025e-01
9.99283740e-01
9.99095539e-01
9.98936142e-01
9.98809318e-01
9.98717657e-01
9.98666157e-01
9.98652613e-01
9.98666647e-01
9.98707804e-01
9.98774568e-01
9.98851223e-01
9.98928795e-01
9.99013375e-01
9.99094707e-01
9.99161972e-01
9.99217855e-01
9.99268183e-01
9.99306423e-01
1.00049655e+00
1.00055152e+00
1.00062173e+00
1.00070240e+00
1.00079196e+00
1.00087876e+00
1.00095466e+00
1.00102312e+00
1.00108435e+00
1.00113042e+00
1.00116572e+00
1.00119469e+00
1.00120863e+00
1.00120134e+00
1.00117207e+00
1.00111398e+00
1.00102025e+00
1.00089094e+00
1.00072923e+00
1.00053990e+00
1.00033176e+00
1.00011600e+00
9.99903679e-01
9.99704835e-01
9.99527621e-01
9.99377508e-01
9.99257094e-01
9.99166475e-01
9.99103718e-01
9.99065541e-01
9.99047925e-01
9.99046685e-01
9.99057867e-01
9.99078012e-01
9.99104276e-01
9.99134459e-01
9.99166956e-01
9.99200673e-01
9.99234927e-01
9.99269346e-01
9.99303785e-01
9.99338240e-01
9.99372783e-01
9.99407509e-01
9.99442489e-01
9.99477745e-01
9.99513237e-01
9.99548863e-01
9.99584477e-01
9.99619912e-01
9.99655008e-01
9.99689637e-01
9.99723727e-01
9.99757265e-01
9.99790299e-01
9.99822922e-01
9.99855255e-01
9.99887423e-01
9.99919541e-01
9.99951694e-01
9.99983934e-01
1.00001628e+00
1.00004871e+00
1.00008120e+00
1.00011368e+00
1.00014610e+00
1.00017842e+00
1.00021060e+00
1.00024266e+00
1.00027463e+00
1.00030662e+00
1.00033877e+00
1.00037125e+00
1.00040421e+00
1.00043778e+00
1.00047204e+00
1.00050692e+00
1.00054231e+00
1.00057799e+00
1.00061369e+00
1.00064916e+00
1.00068423e+00
1.00071881e+00
1.00075291e+00
1.00078665e+00
1.00082022e+00
1.00085381e+00
1.00088756e+00
1.00092148e+00
1.00095540e+00
1.00098885e+00
1.00102106e+00
1.00105086e+00
1.00107669e+00
1.00109654e+00
1.00110802e+00
1.00110835e+00
1.00109451e+00
1.00106330e+00
1.00101158e+00
1.00093655e+00
1.00083600e+00
1.00070872e+00
1.00055480e+00
1.00037598e+00
1.00017592e+00
9.99960218e-01
9.99736112e-01
9.99512305e-01
9.99298877e-01
9.99105340e-01
9.98939447e-01
9.98809078e-01
9.98720181e-01
9.98671993e-01
9.98662103e-01
9.98691626e-01
9.98753509e-01
9.98835609e-01
9.98935569e-01
9.99051050e-01
9.99167512e-01
9.99280420e-01
9.99390943e-01
9.99490465e-01
9.99572394e-01
9.99637581e-01
9.99686138e-01
1.00013083e+00
1.00019768e+00
1.00028586e+00
1.00039582e+00
1.00051826e+00
1.00063955e+00
1.00075785e+00
1.00086830e+00
1.00096219e+00
1.00104101e+00
1.00110965e+00
1.00116328e+00
1.00119866e+00
1.00121769e+00
1.00121508e+00
1.00118236e+00
1.00111636e+00
1.00101511e+00
1.00087720e+00
1.00070596e+00
1.00050916e+00
1.00029648e+00
1.00007895e+00
9.99867876e-01
9.99673103e-01
9.99502042e-01
9.99359302e-01
9.99246730e-01
9.99163728e-01
9.99107897e-01
9.99075675e-01
9.99062961e-01
9.99065598e-01
9.99079738e-01
9.99102045e-01
9.99129805e-01
9.99160943e-01
9.99193981e-01
9.99227953e-01
9.99262311e-01
9.99296812e-01
9.99331413e-01
9.99366181e-01
9.99401208e-01
9.99436560e-01
9.99472237e-01
9.99508170e-01
9.99544224e-01
9.99580222e-01
9.99615979e-01
9.99651329e-01
9.99686155e-01
9.99720401e-01
9.99754081e-01
9.99787263e-01
9.99820058e-01
9.99852598e-01
9.99885009e-01
9.99917401e-01
9.99949852e-01
9.99982402e-01
1.00001506e+00
1.00004780e+00
1.00008059e+00
1.00011336e+00
1.00014606e+00
1.00017863e+00
1.00021105e+00
1.00024334e+00
1.00027553e+00
1.00030773e+00
1.00034010e+00
1.00037280e+00
1.00040601e+00
1.00043985e+00
1.00047440e+00
1.00050960e+00
1.00054532e+00
1.00058131e+00
1.00061732e+00
1.00065309e+00
1.00068842e+00
1.00072325e+00
1.00075762e+00
1.00079168e+00
1.00082561e+00
1.00085959e+00
1.00089370e+00
1.00092783e+00
1.00096161e+00
1.00099436e+00
1.00102504e+00
1.00105217e+00
1.00107391e+00
1.00108799e+00
1.00109174e+00
1.00108220e+00
1.00105617e+00
1.00101039e+00
1.00094182e+00
1.00084789e+00
1.00072695e+00
1.00057858e+00
1.00040403e+00
1.00020642e+00
9.99990949e-01
9.99764860e-01
9.99537187e-01
9.99317720e-01
9.99116719e-01
9.98944621e-01
9.98809412e-01
9.98715475e-01
9.98666452e-01
9.98663435e-01
9.98699894e-01
9.98769355e-01
9.98869191e-01
9.98990651e-01
9.99122006e-01
9.99262005e-01
9.99407515e-01
9.99547769e-01
9.99679013e-01
9.99800062e-01
9.99903259e-01
9.99981399e-01
1.00003903e+00
9.99805456e-01
9.99879181e-01
9.99977465e-01
1.00010209e+00
1.00024519e+00
1.00039578e+00
1.00054729e+00
1.00068888e+00
1.00081630e+00
1.00093074e+00
1.00102781e+00
1.00110566e+00
1.00116780e+00
1.00121252e+00
1.00123345e+00
1.00122756e+00
1.00119116e+00
1.00111830e+00
1.00100660e+00
1.00085813e+00
1.00067772e+00
1.00047332e+00
1.00025590e+00
1.00003727e+00
9.99828453e-01
9.99638730e-01
9.99474741e-01
9.99340194e-01
9.99236053e-01
9.99161063e-01
9.99112369e-01
9.99086187e-01
9.99078346e-01
9.99084748e-01
9.99101662e-01
9.99125911e-01
9.99154952e-01
9.99186881e-01
9.99220385e-01
9.99254656e-01
9.99289277e-01
9.99324104e-01
9.99359152e-01
9.99394496e-01
9.99430196e-01
9.99466251e-01
9.99502580e-01
9.99539032e-01
9.99575412e-01
9.99611516e-01
9.99647169e-01
9.99682252e-01
9.99716719e-01
9.99750597e-01
9.99783973e-01
9.99816976e-01
9.99849747e-01
9.99882420e-01
9.99915100e-01
9.99947859e-01
9.99980731e-01
1.00001371e+00
1.00004677e+00
1.00007987e+00
1.00011293e+00
1.00014591e+00
1.00017877e+00
1.00021147e+00
1.00024404e+00
1.00027653e+00
1.00030904e+00
1.00034172e+00
1.00037474e+00
1.00040825e+00
1.00044239e+00
1.00047721e+00
1.00051267e+00
1.00054862e+00
1.00058484e+00
1.00062107e+00
1.00065710e+00
1.00069274e+00
1.00072795e+00
1.00076278e+00
1.00079735e+00
1.00083183e+00
1.00086629e+00
1.00090069e+00
1.00093476e+00
1.00096793e+00
1.00099929e+00
1.00102755e+00
1.00105102e+00
1.00106758e+00
1.00107473e+00
1.00106958e+00
1.00104893e+00
1.00100942e+00
1.00094775e+00
1.00086097e+00
1.00074691e+00
1.00060461e+00
1.00043472e+00
1.00023994e+00
1.00002518e+00
9.99797530e-01
9.99565898e-01
9.99340784e-01
9.99133324e-01
9.98953707e-01
9.98810883e-01
9.98712397e-01
9.98661590e-01
9.98656980e-01
9.98696747e-01
9.98776563e-01
9.98886211e-01
9.99017336e-01
9.99166488e-01
9.99325525e-01
9.99486110e-01
9.99647706e-01
9.99806404e-01
9.99955007e-01
1.00008898e+00
1.00020291e+00
1.00028997e+00
1.00035490e+00
9.99528728e-01
9.99601299e-01
9.99701109e-01
9.99830873e-01
9.99984602e-01
1.00015191e+00
1.00032351e+00
1.00049059e+00
1.00064861e+00
1.00079153e+00
1.00091490e+00
1.00102118e+00
1.00111011e+00
1.00117847e+00
1.00122524e+00
1.00124823e+00
1.00124083e+00
1.00119747e+00
1.00111549e+00
1.00099363e+00
1.00083404e+00
1.00064345e+00
1.00043174e+00
1.00021042e+00
9.99991511e-01
9.99785930e-01
9.99602270e-01
9.99446231e-01
9.99320559e-01
9.99225375e-01
9.99158748e-01
9.99117389e-01
9.99097282e-01
9.99094214e-01
9.99104169e-01
9.99123591e-01
9.99149518e-01
9.99179639e-01
9.99212271e-01
9.99246289e-01
9.99281030e-01
9.99316170e-01
9.99351610e-01
9.99387358e-01
9.99423448e-01
9.99459871e-01
9.99496552e-01
9.99533345e-01
9.99570057e-01
9.99606485e-01
9.99642449e-01
9.99677830e-01
9.99712581e-01
9.99746733e-01
9.99780381e-01
9.99813657e-01
9.99846709e-01
9.99879672e-01
9.99912654e-01
9.99945723e-01
9.99978908e-01
1.00001220e+00
1.00004557e+00
1.00007898e+00
1.00011235e+00