# vtk DataFile Version 2.0
LBM Flow Field - Timestep 710
ASCII
DATASET STRUCTURED_POINTS
DIMENSIONS 128 128 1
ORIGIN 0.0 0.0 0.0
SPACING 1.0 1.0 1.0
POINT_DATA 16384
SCALARS density double 1
LOOKUP_TABLE default
9.99235909e-01
9.99324891e-01
9.99448470e-01
9.99390848e-01
9.99371264e-01
9.99402543e-01
9.99413635e-01
9.99411397e-01
9.99436834e-01
9.99470383e-01
9.99508037e-01
9.99550087e-01
9.99595867e-01
9.99637244e-01
9.99672358e-01
9.99695153e-01
9.99703871e-01
9.99697359e-01
9.99675702e-01
9.99639179e-01
9.99591178e-01
9.99534828e-01
9.99473468e-01
9.99410696e-01
9.99350385e-01
9.99295525e-01
9.99248649e-01
9.99211668e-01
9.99185754e-01
9.99171185e-01
9.99167562e-01
9.99173847e-01
9.99188513e-01
9.99209704e-01
9.99235466e-01
9.99263906e-01
9.99293357e-01
9.99322497e-01
9.99350432e-01
9.99376714e-01
9.99401327e-01
9.99424622e-01
9.99447225e-01
9.99469922e-01
9.99493543e-01
9.99518849e-01
9.99546444e-01
9.99576711e-01
9.99609773e-01
9.99645502e-01
9.99683541e-01
9.99723364e-01
9.99764337e-01
9.99805799e-01
9.99847130e-01
9.99887805e-01
9.99927440e-01
9.99965808e-01
1.00000283e+00
1.00003859e+00
1.00007324e+00
1.00010703e+00
1.00014022e+00
1.00017310e+00
1.00020589e+00
1.00023879e+00
1.00027192e+00
1.00030535e+00
1.00033912e+00
1.00037321e+00
1.00040758e+00
1.00044220e+00
1.00047700e+00
1.00051197e+00
1.00054708e+00
1.00058234e+00
1.00061778e+00
1.00065344e+00
1.00068937e+00
1.00072561e+00
1.00076221e+00
1.00079916e+00
1.00083647e+00
1.00087407e+00
1.00091188e+00
1.00094979e+00
1.00098766e+00
1.00102534e+00
1.00106268e+00
1.00109957e+00
1.00113590e+00
1.00117158e+00
1.00120656e+00
1.00124080e+00
1.00127428e+00
1.00130698e+00
1.00133890e+00
1.00137005e+00
1.00140046e+00
1.00143018e+00
1.00145926e+00
1.00148760e+00
1.00151521e+00
1.00154198e+00
1.00156754e+00
1.00159135e+00
1.00161336e+00
1.00163282e+00
1.00164861e+00
1.00165961e+00
1.00166519e+00
1.00166201e+00
1.00164759e+00
1.00161818e+00
1.00157040e+00
1.00149982e+00
1.00140568e+00
1.00127923e+00
1.00112589e+00
1.00095669e+00
1.00076654e+00
1.00054223e+00
1.00034224e+00
1.00018083e+00
9.99985456e-01
9.99796022e-01
9.99800767e-01
9.99812757e-01
9.99310005e-01
9.99302953e-01
9.99407335e-01
9.99387906e-01
9.99375154e-01
9.99381715e-01
9.99399861e-01
9.99405411e-01
9.99429535e-01
9.99458256e-01
9.99497399e-01
9.99537777e-01
9.99581435e-01
9.99619673e-01
9.99653003e-01
9.99674526e-01
9.99683351e-01
9.99677304e-01
9.99657630e-01
9.99624207e-01
9.99579951e-01
9.99527503e-01
9.99470466e-01
9.99411976e-01
9.99355600e-01
9.99304193e-01
9.99260261e-01
9.99225501e-01
9.99201016e-01
9.99187091e-01
9.99183385e-01
9.99188932e-01
9.99202353e-01
9.99221968e-01
9.99246001e-01
9.99272726e-01
9.99300626e-01
9.99328491e-01
9.99355496e-01
9.99381218e-01
9.99405621e-01
9.99428996e-01
9.99451880e-01
9.99474957e-01
9.99498948e-01
9.99524521e-01
9.99552205e-01
9.99582335e-01
9.99615020e-01
9.99650147e-01
9.99687401e-01
9.99726317e-01
9.99766335e-01
9.99806869e-01
9.99847367e-01
9.99887357e-01
9.99926489e-01
9.99964549e-01
1.00000146e+00
1.00003725e+00
1.00007208e+00
1.00010613e+00
1.00013965e+00
1.00017285e+00
1.00020595e+00
1.00023911e+00
1.00027246e+00
1.00030606e+00
1.00033995e+00
1.00037412e+00
1.00040854e+00
1.00044318e+00
1.00047800e+00
1.00051297e+00
1.00054807e+00
1.00058330e+00
1.00061868e+00
1.00065425e+00
1.00069003e+00
1.00072608e+00
1.00076242e+00
1.00079907e+00
1.00083600e+00
1.00087317e+00
1.00091052e+00
1.00094793e+00
1.00098529e+00
1.00102247e+00
1.00105934e+00
1.00109578e+00
1.00113170e+00
1.00116702e+00
1.00120169e+00
1.00123567e+00
1.00126896e+00
1.00130156e+00
1.00133347e+00
1.00136471e+00
1.00139534e+00
1.00142534e+00
1.00145475e+00
1.00148351e+00
1.00151161e+00
1.00153878e+00
1.00156486e+00
1.00158936e+00
1.00161210e+00
1.00163196e+00
1.00164833e+00
1.00165967e+00
1.00166513e+00
1.00166083e+00
1.00164539e+00
1.00161439e+00
1.00156603e+00
1.00149372e+00
1.00139865e+00
1.00127417e+00
1.00112818e+00
1.00095811e+00
1.00077026e+00
1.00056292e+00
1.00037787e+00
1.00019799e+00
1.00001484e+00
9.99867589e-01
9.99855310e-01
9.99794054e-01
9.99396056e-01
9.99368771e-01
9.99296358e-01
9.99341008e-01
9.99377543e-01
9.99351683e-01
9.99353865e-01
9.99381101e-01
9.99403943e-01
9.99429639e-01
9.99468632e-01
9.99510223e-01
9.99552059e-01
9.99590727e-01
9.99622446e-01
9.99644247e-01
9.99654765e-01
9.99651228e-01
9.99634257e-01
9.99605443e-01
9.99566364e-01
9.99519233e-01
9.99467640e-01
9.99414750e-01
9.99363462e-01
9.99316572e-01
9.99276475e-01
9.99244735e-01
9.99222304e-01
9.99209506e-01
9.99206028e-01
9.99211008e-01
9.99223215e-01
9.99241169e-01
9.99263295e-01
9.99288063e-01
9.99314130e-01
9.99340423e-01
9.99366200e-01
9.99391075e-01
9.99414995e-01
9.99438192e-01
9.99461108e-01
9.99484315e-01
9.99508417e-01
9.99533977e-01
9.99561442e-01
9.99591097e-01
9.99623038e-01
9.99657173e-01
9.99693239e-01
9.99730844e-01
9.99769516e-01
9.99808757e-01
9.99848095e-01
9.99887122e-01
9.99925530e-01
9.99963121e-01
9.99999811e-01
1.00003561e+00
1.00007063e+00
1.00010501e+00
1.00013892e+00
1.00017257e+00
1.00020611e+00
1.00023969e+00
1.00027340e+00
1.00030731e+00
1.00034145e+00
1.00037581e+00
1.00041038e+00
1.00044513e+00
1.00048001e+00
1.00051500e+00
1.00055008e+00
1.00058524e+00
1.00062049e+00
1.00065585e+00
1.00069135e+00
1.00072701e+00
1.00076288e+00
1.00079896e+00
1.00083524e+00
1.00087170e+00
1.00090828e+00
1.00094488e+00
1.00098142e+00
1.00101778e+00
1.00105386e+00
1.00108956e+00
1.00112479e+00
1.00115950e+00
1.00119365e+00
1.00122722e+00
1.00126022e+00
1.00129267e+00
1.00132461e+00
1.00135608e+00
1.00138711e+00
1.00141770e+00
1.00144784e+00
1.00147754e+00
1.00150667e+00
1.00153499e+00
1.00156243e+00
1.00158866e+00
1.00161289e+00
1.00163439e+00
1.00165274e+00
1.00166595e+00
1.00167188e+00
1.00166877e+00
1.00165415e+00
1.00162365e+00
1.00157518e+00
1.00150424e+00
1.00140885e+00
1.00129147e+00
1.00115030e+00
1.00097687e+00
1.00079523e+00
1.00062196e+00
1.00042396e+00
1.00021267e+00
1.00008903e+00
1.00000428e+00
9.99849447e-01
9.99772679e-01
9.99278677e-01
9.99291068e-01
9.99284913e-01
9.99305788e-01
9.99300789e-01
9.99301251e-01
9.99317312e-01
9.99336432e-01
9.99356559e-01
9.99389832e-01
9.99429015e-01
9.99469228e-01
9.99510104e-01
9.99549335e-01
9.99581529e-01
9.99604595e-01
9.99617016e-01
9.99617502e-01
9.99605764e-01
9.99582830e-01
9.99550339e-01
9.99510641e-01
9.99466431e-01
9.99420549e-01
9.99375825e-01
9.99334791e-01
9.99299468e-01
9.99271350e-01
9.99251362e-01
9.99239799e-01
9.99236413e-01
9.99240521e-01
9.99251099e-01
9.99266905e-01
9.99286618e-01
9.99308958e-01
9.99332787e-01
9.99357192e-01
9.99381528e-01
9.99405436e-01
9.99428828e-01
9.99451845e-01
9.99474805e-01
9.99498129e-01
9.99522281e-01
9.99547694e-01
9.99574722e-01
9.99603599e-01
9.99634416e-01
9.99667117e-01
9.99701515e-01
9.99737320e-01
9.99774173e-01
9.99811690e-01
9.99849498e-01
9.99887268e-01
9.99924737e-01
9.99961726e-01
9.99998138e-01
1.00003395e+00
1.00006921e+00
1.00010401e+00
1.00013845e+00
1.00017268e+00
1.00020680e+00
1.00024092e+00
1.00027511e+00
1.00030944e+00
1.00034393e+00
1.00037857e+00
1.00041336e+00
1.00044826e+00
1.00048324e+00
1.00051826e+00
1.00055331e+00
1.00058836e+00
1.00062340e+00
1.00065845e+00
1.00069353e+00
1.00072866e+00
1.00076387e+00
1.00079918e+00
1.00083458e+00
1.00087007e+00
1.00090561e+00
1.00094113e+00
1.00097656e+00
1.00101182e+00
1.00104683e+00
1.00108152e+00
1.00111582e+00
1.00114970e+00
1.00118315e+00
1.00121618e+00
1.00124882e+00
1.00128112e+00
1.00131315e+00
1.00134495e+00
1.00137656e+00
1.00140800e+00
1.00143926e+00
1.00147025e+00
1.00150093e+00
1.00153113e+00
1.00156056e+00
1.00158889e+00
1.00161558e+00
1.00163980e+00
1.00166040e+00
1.00167581e+00
1.00168400e+00
1.00168297e+00
1.00166945e+00
1.00164009e+00
1.00159268e+00
1.00152525e+00
1.00143297e+00
1.00131701e+00
1.00118053e+00
1.00102380e+00
1.00084718e+00
1.00066880e+00
1.00049174e+00
1.00031918e+00
1.00016690e+00
1.00005757e+00
9.99961206e-01
9.99926734e-01
9.99188289e-01
9.99210683e-01
9.99253338e-01
9.99232338e-01
9.99217294e-01
9.99250661e-01
9.99266543e-01
9.99274983e-01
9.99303750e-01
9.99341943e-01
9.99378335e-01
9.99418865e-01
9.99460515e-01
9.99498407e-01
9.99531053e-01
9.99555962e-01
9.99570759e-01
9.99575582e-01
9.99570117e-01
9.99554288e-01
9.99529871e-01
9.99499059e-01
9.99463756e-01
9.99426415e-01
9.99389708e-01
9.99355761e-01
9.99326291e-01
9.99302687e-01
9.99285779e-01
9.99275827e-01
9.99272688e-01
9.99275871e-01
9.99284595e-01
9.99297909e-01
9.99314809e-01
9.99334308e-01
9.99355522e-01
9.99377726e-01
9.99400393e-01
9.99423197e-01
9.99446010e-01
9.99468869e-01
9.99491937e-01
9.99515465e-01
9.99539736e-01
9.99565031e-01
9.99591590e-01
9.99619582e-01
9.99649088e-01
9.99680098e-01
9.99712515e-01
9.99746169e-01
9.99780839e-01
9.99816277e-01
9.99852233e-01
9.99888472e-01
9.99924793e-01
9.99961040e-01
9.99997102e-01
1.00003292e+00
1.00006847e+00
1.00010377e+00
1.00013886e+00
1.00017379e+00
1.00020862e+00
1.00024342e+00
1.00027822e+00
1.00031307e+00
1.00034799e+00
1.00038297e+00
1.00041802e+00
1.00045310e+00
1.00048820e+00
1.00052326e+00
1.00055826e+00
1.00059317e+00
1.00062797e+00
1.00066265e+00
1.00069723e+00
1.00073172e+00
1.00076614e+00
1.00080053e+00
1.00083489e+00
1.00086923e+00
1.00090353e+00
1.00093777e+00
1.00097189e+00
1.00100585e+00
1.00103961e+00
1.00107311e+00
1.00110633e+00
1.00113926e+00
1.00117191e+00
1.00120433e+00
1.00123658e+00
1.00126875e+00
1.00130093e+00
1.00133320e+00
1.00136558e+00
1.00139812e+00
1.00143077e+00
1.00146342e+00
1.00149600e+00
1.00152844e+00
1.00156037e+00
1.00159136e+00
1.00162109e+00
1.00164858e+00
1.00167210e+00
1.00169038e+00
1.00170158e+00
1.00170249e+00
1.00169050e+00
1.00166347e+00
1.00161753e+00
1.00155189e+00
1.00146568e+00
1.00135411e+00
1.00122059e+00
1.00107939e+00
1.00091913e+00
1.00073580e+00
1.00057212e+00
1.00044145e+00
1.00028082e+00
1.00014374e+00
1.00010866e+00
1.00008147e+00
9.99139214e-01
9.99139445e-01
9.99150795e-01
9.99156618e-01
9.99174973e-01
9.99186477e-01
9.99193182e-01
9.99219521e-01
9.99254312e-01
9.99285970e-01
9.99322430e-01
9.99364975e-01
9.99405775e-01
9.99442320e-01
9.99474905e-01
9.99501281e-01
9.99519508e-01
9.99528905e-01
9.99529427e-01
9.99521558e-01
9.99506265e-01
9.99484824e-01
9.99459189e-01
9.99431511e-01
9.99403715e-01
9.99377577e-01
9.99354715e-01
9.99336254e-01
9.99322848e-01
9.99314809e-01
9.99312125e-01
9.99314472e-01
9.99321340e-01
9.99332111e-01
9.99346110e-01
9.99362665e-01
9.99381167e-01
9.99401098e-01
9.99422052e-01
9.99443742e-01
9.99465992e-01
9.99488726e-01
9.99511944e-01
9.99535708e-01
9.99560116e-01
9.99585286e-01
9.99611337e-01
9.99638369e-01
9.99666459e-01
9.99695646e-01
9.99725928e-01
9.99757266e-01
9.99789589e-01
9.99822794e-01
9.99856761e-01
9.99891356e-01
9.99926446e-01
9.99961896e-01
9.99997588e-01
1.00003342e+00
1.00006929e+00
1.00010516e+00
1.00014097e+00
1.00017670e+00
1.00021234e+00
1.00024791e+00
1.00028342e+00
1.00031888e+00
1.00035431e+00
1.00038971e+00
1.00042507e+00
1.00046038e+00
1.00049560e+00
1.00053070e+00
1.00056564e+00
1.00060037e+00
1.00063487e+00
1.00066912e+00
1.00070311e+00
1.00073687e+00
1.00077041e+00
1.00080377e+00
1.00083698e+00
1.00087005e+00
1.00090300e+00
1.00093582e+00
1.00096851e+00
1.00100106e+00
1.00103344e+00
1.00106565e+00
1.00109769e+00
1.00112960e+00
1.00116141e+00
1.00119321e+00
1.00122509e+00
1.00125719e+00
1.00128960e+00
1.00132244e+00
1.00135576e+00
1.00138953e+00
1.00142375e+00
1.00145834e+00
1.00149313e+00
1.00152798e+00
1.00156273e+00
1.00159690e+00
1.00162974e+00
1.00166036e+00
1.00168742e+00
1.00170898e+00
1.00172271e+00
1.00172587e+00
1.00171621e+00
1.00169166e+00
1.00164850e+00
1.00158430e+00
1.00150186e+00
1.00140107e+00
1.00127638e+00
1.00113446e+00
1.00099006e+00
1.00083936e+00
1.00067750e+00
1.00053093e+00
1.00041277e+00
1.00031373e+00
1.00024704e+00
1.00019997e+00
9.99069583e-01
9.99079984e-01
9.99076119e-01
9.99096499e-01
9.99114786e-01
9.99116668e-01
9.99138953e-01
9.99172353e-01
9.99198787e-01
9.99231371e-01
9.99272579e-01
9.99311795e-01
9.99348917e-01
9.99385371e-01
9.99417535e-01
9.99443971e-01
9.99464822e-01
9.99478736e-01
9.99485456e-01
9.99485665e-01
9.99479645e-01
9.99468216e-01
9.99453069e-01
9.99435681e-01
9.99417432e-01
9.99399869e-01
9.99384264e-01
9.99371427e-01
9.99361940e-01
9.99356146e-01
9.99354103e-01
9.99355690e-01
9.99360705e-01
9.99368869e-01
9.99379857e-01
9.99393342e-01
9.99409012e-01
9.99426569e-01
9.99445740e-01
9.99466282e-01
9.99487972e-01
9.99510614e-01
9.99534040e-01
9.99558114e-01
9.99582736e-01
9.99607852e-01
9.99633451e-01
9.99659562e-01
9.99686250e-01
9.99713603e-01
9.99741721e-01
9.99770701e-01
9.99800623e-01
9.99831540e-01
9.99863470e-01
9.99896387e-01
9.99930225e-01
9.99964883e-01
1.00000023e+00
1.00003612e+00
1.00007239e+00
1.00010890e+00
1.00014553e+00
1.00018217e+00
1.00021873e+00
1.00025518e+00
1.00029149e+00
1.00032765e+00
1.00036365e+00
1.00039951e+00
1.00043522e+00
1.00047076e+00
1.00050610e+00
1.00054121e+00
1.00057604e+00
1.00061055e+00
1.00064468e+00
1.00067842e+00
1.00071176e+00
1.00074470e+00
1.00077727e+00
1.00080951e+00
1.00084146e+00
1.00087316e+00
1.00090466e+00
1.00093598e+00
1.00096715e+00
1.00099820e+00
1.00102914e+00
1.00106001e+00
1.00109084e+00
1.00112169e+00
1.00115266e+00
1.00118386e+00
1.00121542e+00
1.00124751e+00
1.00128025e+00
1.00131376e+00
1.00134811e+00
1.00138328e+00
1.00141918e+00
1.00145579e+00
1.00149295e+00
1.00153040e+00
1.00156798e+00
1.00160533e+00
1.00164149e+00
1.00167538e+00
1.00170575e+00
1.00173024e+00
1.00174638e+00
1.00175214e+00
1.00174439e+00
1.00172046e+00
1.00168029e+00
1.00162116e+00
1.00154040e+00
1.00144420e+00
1.00133487e+00
1.00120391e+00
1.00106304e+00
1.00093242e+00
1.00079580e+00
1.00065194e+00
1.00054882e+00
1.00047238e+00
1.00039386e+00
1.00036106e+00
9.98993488e-01
9.99014618e-01
9.99032217e-01
9.99044690e-01
9.99052721e-01
9.99072669e-01
9.99101790e-01
9.99124589e-01
9.99152297e-01
9.99190473e-01
9.99227673e-01
9.99261880e-01
9.99297187e-01
9.99331423e-01
9.99361630e-01
9.99387996e-01
9.99410413e-01
9.99428258e-01
9.99441232e-01
9.99449070e-01
9.99452068e-01
9.99451020e-01
9.99446590e-01
9.99439615e-01
9.99431344e-01
9.99422834e-01
9.99414811e-01
9.99407934e-01
9.99402726e-01
9.99399446e-01
9.99398240e-01
9.99399240e-01
9.99402530e-01
9.99408160e-01
9.99416174e-01
9.99426600e-01
9.99439417e-01
9.99454555e-01
9.99471881e-01
9.99491197e-01
9.99512241e-01
9.99534704e-01
9.99558254e-01
9.99582564e-01
9.99607343e-01
9.99632370e-01
9.99657505e-01
9.99682708e-01
9.99708033e-01
9.99733616e-01
9.99759652e-01
9.99786367e-01
9.99813992e-01
9.99842726e-01
9.99872719e-01
9.99904050e-01
9.99936722e-01
9.99970662e-01
1.00000573e+00
1.00004174e+00
1.00007847e+00
1.00011570e+00
1.00015321e+00
1.00019082e+00
1.00022838e+00
1.00026578e+00
1.00030296e+00
1.00033987e+00
1.00037650e+00
1.00041285e+00
1.00044892e+00
1.00048468e+00
1.00052011e+00
1.00055517e+00
1.00058982e+00
1.00062400e+00
1.00065767e+00
1.00069079e+00
1.00072335e+00
1.00075535e+00
1.00078684e+00
1.00081784e+00
1.00084843e+00
1.00087867e+00
1.00090862e+00
1.00093836e+00
1.00096795e+00
1.00099743e+00
1.00102689e+00
1.00105638e+00
1.00108599e+00
1.00111580e+00
1.00114596e+00
1.00117659e+00
1.00120789e+00
1.00124003e+00
1.00127318e+00
1.00130744e+00
1.00134287e+00
1.00137948e+00
1.00141717e+00
1.00145578e+00
1.00149526e+00
1.00153540e+00
1.00157576e+00
1.00161592e+00
1.00165522e+00
1.00169227e+00
1.00172526e+00
1.00175216e+00
1.00177053e+00
1.00177795e+00
1.00177176e+00
1.00174910e+00
1.00170972e+00
1.00165461e+00
1.00158056e+00
1.00148711e+00
1.00138382e+00
1.00127328e+00
1.00114742e+00
1.00101695e+00
1.00090181e+00
1.00079320e+00
1.00068802e+00
1.00060906e+00
1.00056546e+00
1.00055036e+00
9.98958636e-01
9.98980098e-01
9.98997488e-01
9.99007584e-01
9.99023691e-01
9.99049319e-01
9.99069679e-01
9.99093379e-01
9.99128003e-01
9.99160549e-01
9.99190022e-01
9.99223045e-01
9.99255365e-01
9.99283807e-01
9.99310892e-01
9.99336741e-01
9.99359886e-01
9.99380644e-01
9.99398882e-01
9.99413965e-01
9.99425988e-01
9.99435050e-01
9.99441164e-01
9.99444902e-01
9.99446929e-01
9.99447633e-01
9.99447474e-01
9.99446935e-01
9.99446294e-01
9.99445767e-01
9.99445655e-01
9.99446285e-01
9.99447999e-01
9.99451196e-01
9.99456291e-01
9.99463648e-01
9.99473547e-01
9.99486150e-01
9.99501471e-01
9.99519365e-01
9.99539544e-01
9.99561599e-01
9.99585050e-01
9.99609395e-01
9.99634168e-01
9.99658988e-01
9.99683598e-01
9.99707890e-01
9.99731902e-01
9.99755810e-01
9.99779896e-01
9.99804503e-01
9.99829996e-01
9.99856710e-01
9.99884917e-01
9.99914792e-01
9.99946405e-01
9.99979709e-01
1.00001456e+00
1.00005073e+00
1.00008795e+00
1.00012592e+00
1.00016434e+00
1.00020295e+00
1.00024153e+00
1.00027992e+00
1.00031798e+00
1.00035566e+00
1.00039293e+00
1.00042975e+00
1.00046613e+00
1.00050204e+00
1.00053747e+00
1.00057237e+00
1.00060670e+00
1.00064041e+00
1.00067345e+00
1.00070578e+00
1.00073739e+00
1.00076830e+00
1.00079854e+00
1.00082817e+00
1.00085726e+00
1.00088592e+00
1.00091423e+00
1.00094230e+00
1.00097023e+00
1.00099811e+00
1.00102604e+00
1.00105414e+00
1.00108252e+00
1.00111131e+00
1.00114068e+00
1.00117082e+00
1.00120192e+00
1.00123419e+00
1.00126779e+00
1.00130286e+00
1.00133941e+00
1.00137743e+00
1.00141686e+00
1.00145750e+00
1.00149914e+00
1.00154168e+00
1.00158472e+00
1.00162753e+00
1.00166937e+00
1.00170889e+00
1.00174403e+00
1.00177275e+00
1.00179247e+00
1.00180011e+00
1.00179429e+00
1.00177367e+00
1.00173498e+00
1.00167931e+00
1.00161136e+00
1.00152821e+00
1.00142870e+00
1.00132578e+00
1.00122231e+00
1.00110866e+00
1.00100043e+00
1.00091201e+00
1.00082751e+00
1.00075783e+00
1.00072383e+00
1.00071223e+00
9.98952521e-01
9.98971178e-01
9.98985366e-01
9.99002354e-01
9.99022846e-01
9.99041299e-01
9.99061716e-01
9.99090229e-01
9.99118698e-01
9.99143760e-01
9.99171241e-01
9.99199123e-01
9.99223560e-01
9.99246878e-01
9.99270452e-01
9.99293606e-01
9.99316551e-01
9.99339538e-01
9.99362092e-01
9.99383946e-01
9.99404504e-01
9.99423091e-01
9.99439612e-01
9.99454074e-01
9.99466251e-01
9.99476188e-01
9.99484116e-01
9.99490092e-01
9.99494185e-01
9.99496673e-01
9.99497937e-01
9.99498439e-01
9.99498807e-01
9.99499780e-01
9.99502102e-01
9.99506461e-01
9.99513431e-01
9.99523400e-01
9.99536523e-01
9.99552722e-01
9.99571693e-01
9.99592955e-01
9.99615904e-01
9.99639893e-01
9.99664305e-01
9.99688626e-01
9.99712498e-01
9.99735751e-01
9.99758412e-01
9.99780689e-01
9.99802933e-01
9.99825587e-01
9.99849126e-01
9.99874000e-01
9.99900583e-01
9.99929134e-01
9.99959774e-01
9.99992485e-01
1.00002712e+00
1.00006342e+00
1.00010106e+00
1.00013968e+00
1.00017892e+00
1.00021844e+00
1.00025794e+00
1.00029721e+00
1.00033609e+00
1.00037445e+00
1.00041224e+00
1.00044943e+00
1.00048600e+00
1.00052192e+00
1.00055717e+00
1.00059173e+00
1.00062553e+00
1.00065854e+00
1.00069072e+00
1.00072203e+00
1.00075247e+00
1.00078206e+00
1.00081086e+00
1.00083893e+00
1.00086638e+00
1.00089332e+00
1.00091988e+00
1.00094619e+00
1.00097240e+00
1.00099863e+00
1.00102502e+00
1.00105172e+00
1.00107889e+00
1.00110670e+00
1.00113534e+00
1.00116503e+00
1.00119600e+00
1.00122844e+00
1.00126254e+00
1.00129842e+00
1.00133609e+00
1.00137547e+00
1.00141648e+00
1.00145899e+00
1.00150269e+00
1.00154727e+00
1.00159246e+00
1.00163756e+00
1.00168133e+00
1.00172243e+00
1.00175894e+00
1.00178836e+00
1.00180823e+00
1.00181591e+00
1.00180912e+00
1.00178760e+00
1.00175064e+00
1.00169659e+00
1.00162887e+00
1.00155281e+00
1.00146607e+00
1.00136944e+00
1.00127558e+00
1.00118624e+00
1.00109434e+00
1.00101122e+00
1.00094847e+00
1.00090068e+00
1.00086703e+00
1.00085776e+00
9.98977257e-01
9.98998523e-01
9.99011479e-01
9.99028037e-01
9.99044964e-01
9.99061762e-01
9.99085163e-01
9.99108265e-01
9.99127743e-01
9.99150033e-01
9.99172517e-01
9.99190201e-01
9.99206902e-01
9.99225107e-01
9.99243158e-01
9.99262241e-01
9.99284067e-01
9.99308328e-01
9.99334510e-01
9.99362220e-01
9.99390382e-01
9.99418150e-01
9.99444835e-01
9.99469553e-01
9.99491683e-01
9.99510957e-01
9.99527009e-01
9.99539549e-01
9.99548613e-01
9.99554423e-01
9.99557347e-01
9.99558043e-01
9.99557408e-01
9.99556448e-01
9.99556211e-01
9.99557700e-01
9.99561759e-01
9.99568980e-01
9.99579667e-01
9.99593816e-01
9.99611131e-01
9.99631083e-01
9.99652981e-01
9.99676068e-01
9.99699615e-01
9.99723003e-01
9.99745794e-01
9.99767770e-01
9.99788945e-01
9.99809547e-01
9.99829980e-01
9.99850757e-01
9.99872440e-01
9.99895565e-01
9.99920584e-01
9.99947820e-01
9.99977440e-01
1.00000945e+00
1.00004369e+00
1.00007990e+00
1.00011772e+00
1.00015672e+00
1.00019648e+00
1.00023662e+00
1.00027677e+00
1.00031666e+00
1.00035608e+00
1.00039487e+00
1.00043295e+00
1.00047025e+00
1.00050674e+00
1.00054239e+00
1.00057719e+00
1.00061109e+00
1.00064406e+00
1.00067606e+00
1.00070707e+00
1.00073706e+00
1.00076605e+00
1.00079407e+00
1.00082119e+00
1.00084750e+00
1.00087314e+00
1.00089823e+00
1.00092293e+00
1.00094742e+00
1.00097186e+00
1.00099642e+00
1.00102128e+00
1.00104662e+00
1.00107262e+00
1.00109951e+00
1.00112749e+00
1.00115681e+00
1.00118770e+00
1.00122038e+00
1.00125500e+00
1.00129164e+00
1.00133034e+00
1.00137101e+00
1.00141344e+00
1.00145747e+00
1.00150290e+00
1.00154928e+00
1.00159607e+00
1.00164263e+00
1.00168770e+00
1.00172958e+00
1.00176628e+00
1.00179518e+00
1.00181379e+00
1.00182036e+00
1.00181229e+00
1.00178803e+00
1.00174993e+00
1.00169900e+00
1.00163331e+00
1.00155820e+00
1.00148150e+00
1.00139966e+00
1.00131365e+00
1.00123613e+00
1.00116661e+00
1.00109978e+00
1.00104782e+00
1.00101145e+00
1.00098749e+00
1.00098947e+00
9.99038033e-01
9.99057721e-01
9.99070490e-01
9.99084433e-01
9.99099488e-01
9.99115788e-01
9.99133504e-01
9.99149086e-01
9.99164962e-01
9.99180330e-01
9.99191600e-01
9.99200900e-01
9.99210581e-01
9.99220233e-01
9.99231378e-01
9.99246519e-01
9.99266153e-01
9.99290513e-01
9.99319502e-01
9.99352121e-01
9.99387201e-01
9.99423583e-01
9.99459659e-01
9.99494099e-01
9.99525984e-01
9.99554337e-01
9.99578293e-01
9.99597455e-01
9.99611681e-01
9.99621022e-01
9.99625934e-01
9.99627257e-01
9.99626058e-01
9.99623577e-01
9.99621152e-01
9.99620051e-01
9.99621341e-01
9.99625808e-01
9.99633896e-01
9.99645677e-01
9.99660882e-01
9.99678965e-01
9.99699189e-01
9.99720730e-01
9.99742787e-01
9.99764675e-01
9.99785903e-01
9.99806220e-01
9.99825630e-01
9.99844372e-01
9.99862879e-01
9.99881713e-01
9.99901485e-01
9.99922788e-01
9.99946126e-01
9.99971867e-01
1.00000021e+00
1.00003118e+00
1.00006462e+00
1.00010026e+00
1.00013772e+00
1.00017654e+00
1.00021626e+00
1.00025643e+00
1.00029667e+00
1.00033664e+00
1.00037609e+00
1.00041481e+00
1.00045268e+00
1.00048963e+00
1.00052559e+00
1.00056053e+00
1.00059442e+00
1.00062724e+00
1.00065895e+00
1.00068954e+00
1.00071899e+00
1.00074730e+00
1.00077451e+00
1.00080067e+00
1.00082587e+00
1.00085023e+00
1.00087389e+00
1.00089702e+00
1.00091980e+00
1.00094244e+00
1.00096512e+00
1.00098805e+00
1.00101144e+00
1.00103550e+00
1.00106044e+00
1.00108650e+00
1.00111393e+00
1.00114297e+00
1.00117386e+00
1.00120680e+00
1.00124194e+00
1.00127933e+00
1.00131891e+00
1.00136064e+00
1.00140430e+00
1.00144956e+00
1.00149620e+00
1.00154385e+00
1.00159175e+00
1.00163895e+00
1.00168432e+00
1.00172597e+00
1.00176163e+00
1.00178898e+00
1.00180530e+00
1.00180856e+00
1.00179789e+00
1.00177200e+00
1.00173093e+00
1.00167849e+00
1.00161702e+00
1.00154645e+00
1.00147258e+00
1.00140171e+00
1.00133177e+00
1.00126431e+00
1.00120790e+00
1.00116068e+00
1.00112186e+00
1.00109432e+00
1.00108263e+00
1.00109117e+00
9.99137000e-01
9.99153794e-01
9.99163336e-01
9.99173870e-01
9.99186312e-01
9.99198467e-01
9.99208750e-01
9.99218467e-01
9.99227752e-01
9.99232203e-01
9.99233364e-01
9.99234379e-01
9.99234256e-01
9.99234522e-01
9.99238979e-01
9.99249146e-01
9.99265566e-01
9.99289287e-01
9.99320032e-01
9.99356713e-01
9.99397958e-01
9.99441880e-01
9.99486498e-01
9.99530197e-01
9.99571272e-01
9.99608162e-01
9.99639842e-01
9.99665624e-01
9.99685042e-01
9.99698139e-01
9.99705467e-01
9.99707915e-01
9.99706688e-01
9.99703259e-01
9.99699181e-01
9.99695918e-01
9.99694734e-01
9.99696582e-01
9.99702023e-01
9.99711209e-01
9.99723919e-01
9.99739621e-01
9.99757568e-01
9.99776917e-01
9.99796837e-01
9.99816616e-01
9.99835738e-01
9.99853934e-01
9.99871199e-01
9.99887775e-01
9.99904101e-01
9.99920754e-01
9.99938367e-01
9.99957557e-01
9.99978853e-01
1.00000265e+00
1.00002916e+00
1.00005843e+00
1.00009033e+00
1.00012458e+00
1.00016080e+00
1.00019851e+00
1.00023725e+00
1.00027654e+00
1.00031595e+00
1.00035512e+00
1.00039374e+00
1.00043159e+00
1.00046850e+00
1.00050436e+00
1.00053909e+00
1.00057266e+00
1.00060502e+00
1.00063616e+00
1.00066606e+00
1.00069471e+00
1.00072214e+00
1.00074836e+00
1.00077342e+00
1.00079742e+00
1.00082046e+00
1.00084269e+00
1.00086426e+00
1.00088537e+00
1.00090623e+00
1.00092705e+00
1.00094807e+00
1.00096949e+00
1.00099155e+00
1.00101448e+00
1.00103852e+00
1.00106393e+00
1.00109094e+00
1.00111983e+00
1.00115082e+00
1.00118406e+00
1.00121968e+00
1.00125773e+00
1.00129809e+00
1.00134060e+00
1.00138511e+00
1.00143131e+00
1.00147871e+00
1.00152688e+00
1.00157517e+00
1.00162235e+00
1.00166695e+00
1.00170717e+00
1.00174062e+00
1.00176499e+00
1.00177794e+00
1.00177705e+00
1.00176170e+00
1.00173281e+00
1.00168996e+00
1.00163485e+00
1.00157364e+00
1.00150899e+00
1.00144067e+00
1.00137539e+00
1.00131862e+00
1.00126626e+00
1.00122097e+00
1.00118709e+00
1.00116346e+00
1.00114685e+00
1.00114089e+00
1.00115282e+00
9.99268435e-01
9.99280812e-01
9.99287828e-01
9.99295147e-01
9.99302129e-01
9.99308078e-01
9.99312646e-01
9.99314738e-01
9.99313154e-01
9.99307738e-01
9.99299878e-01
9.99289643e-01
9.99278708e-01
9.99270746e-01
9.99267852e-01
9.99271817e-01
9.99284663e-01
9.99307129e-01
9.99338729e-01
9.99378597e-01
9.99424872e-01
9.99475288e-01
9.99527684e-01
9.99579722e-01
9.99629059e-01
9.99673944e-01
9.99712995e-01
9.99745074e-01
9.99769624e-01
9.99786715e-01
9.99796835e-01
9.99800907e-01
9.99800302e-01
9.99796636e-01
9.99791586e-01
9.99786775e-01
9.99783620e-01
9.99783190e-01
9.99786141e-01
9.99792707e-01
9.99802721e-01
9.99815691e-01
9.99830898e-01
9.99847518e-01
9.99864734e-01
9.99881840e-01
9.99898324e-01
9.99913914e-01
9.99928597e-01
9.99942603e-01
9.99956360e-01
9.99970431e-01
9.99985440e-01
1.00000200e+00
1.00002063e+00
1.00004174e+00
1.00006556e+00
1.00009216e+00
1.00012141e+00
1.00015308e+00
1.00018678e+00
1.00022209e+00
1.00025851e+00
1.00029558e+00
1.00033285e+00
1.00036994e+00
1.00040652e+00
1.00044234e+00
1.00047718e+00
1.00051093e+00
1.00054348e+00
1.00057478e+00
1.00060478e+00
1.00063348e+00
1.00066087e+00
1.00068698e+00
1.00071183e+00
1.00073549e+00
1.00075804e+00
1.00077957e+00
1.00080024e+00
1.00082019e+00
1.00083961e+00
1.00085872e+00
1.00087772e+00
1.00089686e+00
1.00091638e+00
1.00093649e+00
1.00095745e+00
1.00097950e+00
1.00100288e+00
1.00102785e+00
1.00105466e+00
1.00108355e+00
1.00111473e+00
1.00114834e+00
1.00118442e+00
1.00122298e+00
1.00126392e+00
1.00130701e+00
1.00135196e+00
1.00139854e+00
1.00144625e+00
1.00149437e+00
1.00154212e+00
1.00158835e+00
1.00163128e+00
1.00166894e+00
1.00169907e+00
1.00171912e+00
1.00172713e+00
1.00172163e+00
1.00170124e+00
1.00166689e+00
1.00162123e+00
1.00156576e+00
1.00150335e+00
1.00144029e+00
1.00137984e+00
1.00132258e+00
1.00127320e+00
1.00123392e+00
1.00120338e+00
1.00118069e+00
1.00116822e+00
1.00116266e+00
1.00116315e+00
1.00117743e+00
9.99430299e-01
9.99438211e-01
9.99439884e-01
9.99443072e-01
9.99444761e-01
9.99443767e-01
9.99440794e-01
9.99433869e-01
9.99422029e-01
9.99406606e-01
9.99387809e-01
9.99366360e-01
9.99345741e-01
9.99328959e-01
9.99318090e-01
9.99316112e-01
9.99325040e-01
9.99345484e-01
9.99377279e-01
9.99419297e-01
9.99469449e-01
9.99525421e-01
9.99584436e-01
9.99643548e-01
9.99700254e-01
9.99752416e-01
9.99798106e-01
9.99836038e-01
9.99865640e-01
9.99886819e-01
9.99900008e-01
9.99906245e-01
9.99906967e-01
9.99903826e-01
9.99898599e-01
9.99893014e-01
9.99888563e-01
9.99886386e-01
9.99887218e-01
9.99891359e-01
9.99898702e-01
9.99908813e-01
9.99921034e-01
9.99934593e-01
9.99948718e-01
9.99962742e-01
9.99976175e-01
9.99988750e-01
1.00000045e+00
1.00001147e+00
1.00002221e+00
1.00003320e+00
1.00004501e+00
1.00005823e+00
1.00007336e+00
1.00009080e+00
1.00011079e+00
1.00013341e+00
1.00015859e+00
1.00018613e+00
1.00021569e+00
1.00024688e+00
1.00027927e+00
1.00031240e+00
1.00034584e+00
1.00037920e+00
1.00041216e+00
1.00044443e+00
1.00047580e+00
1.00050610e+00
1.00053524e+00
1.00056314e+00
1.00058976e+00
1.00061510e+00
1.00063917e+00
1.00066202e+00
1.00068370e+00
1.00070430e+00
1.00072393e+00
1.00074271e+00
1.00076081e+00
1.00077840e+00
1.00079567e+00
1.00081285e+00
1.00083015e+00
1.00084782e+00
1.00086609e+00
1.00088518e+00
1.00090535e+00
1.00092682e+00
1.00094983e+00
1.00097464e+00
1.00100149e+00
1.00103057e+00
1.00106206e+00
1.00109606e+00
1.00113259e+00
1.00117154e+00
1.00121279e+00
1.00125615e+00
1.00130124e+00
1.00134766e+00
1.00139500e+00
1.00144249e+00
1.00148899e+00
1.00153323e+00
1.00157349e+00
1.00160756e+00
1.00163319e+00
1.00164806e+00
1.00165008e+00
1.00163845e+00
1.00161283e+00
1.00157342e+00
1.00152319e+00
1.00146622e+00
1.00140475e+00
1.00134293e+00
1.00128703e+00
1.00123856e+00
1.00119810e+00
1.00116884e+00
1.00115089e+00
1.00114023e+00
1.00113801e+00
1.00114083e+00
1.00114585e+00
1.00116220e+00
9.99614685e-01
9.99617602e-01
9.99614987e-01
9.99613337e-01
9.99609197e-01
9.99601202e-01
9.99589438e-01
9.99573174e-01
9.99551756e-01
9.99525478e-01
9.99495404e-01
9.99463998e-01
9.99433926e-01
9.99408024e-01
9.99389781e-01
9.99382160e-01
9.99386830e-01
9.99404898e-01
9.99436220e-01
9.99479449e-01
9.99532569e-01
9.99592876e-01
9.99657079e-01
9.99722118e-01
9.99785137e-01
9.99843421e-01
9.99894863e-01
9.99938143e-01
9.99972456e-01
9.99997592e-01
1.00001407e+00
1.00002294e+00
1.00002560e+00
1.00002374e+00
1.00001919e+00
1.00001368e+00
1.00000872e+00
1.00000549e+00
1.00000478e+00
1.00000692e+00
1.00001187e+00
1.00001927e+00
1.00002853e+00
1.00003897e+00
1.00004987e+00
1.00006063e+00
1.00007079e+00
1.00008010e+00
1.00008852e+00
1.00009622e+00
1.00010353e+00
1.00011091e+00
1.00011887e+00
1.00012795e+00
1.00013861e+00
1.00015121e+00
1.00016603e+00
1.00018316e+00
1.00020260e+00
1.00022420e+00
1.00024771e+00
1.00027281e+00
1.00029913e+00
1.00032628e+00
1.00035387e+00