# vtk DataFile Version 2.0
LBM Flow Field - Timestep 4240
ASCII
DATASET STRUCTURED_POINTS
DIMENSIONS 128 128 1
ORIGIN 0.0 0.0 0.0
SPACING 1.0 1.0 1.0
POINT_DATA 16384
SCALARS density double 1
LOOKUP_TABLE default
1.00100959e+00
1.00101474e+00
1.00102257e+00
1.00102971e+00
1.00104086e+00
1.00105634e+00
1.00107384e+00
1.00109386e+00
1.00111659e+00
1.00114170e+00
1.00116851e+00
1.00119708e+00
1.00122700e+00
1.00125804e+00
1.00128980e+00
1.00132214e+00
1.00135472e+00
1.00138736e+00
1.00141981e+00
1.00145194e+00
1.00148355e+00
1.00151456e+00
1.00154485e+00
1.00157437e+00
1.00160305e+00
1.00163091e+00
1.00165793e+00
1.00168414e+00
1.00170958e+00
1.00173430e+00
1.00175837e+00
1.00178184e+00
1.00180480e+00
1.00182731e+00
1.00184944e+00
1.00187126e+00
1.00189281e+00
1.00191415e+00
1.00193530e+00
1.00195630e+00
1.00197714e+00
1.00199781e+00
1.00201830e+00
1.00203856e+00
1.00205854e+00
1.00207818e+00
1.00209739e+00
1.00211610e+00
1.00213421e+00
1.00215161e+00
1.00216820e+00
1.00218387e+00
1.00219854e+00
1.00221209e+00
1.00222444e+00
1.00223552e+00
1.00224525e+00
1.00225359e+00
1.00226050e+00
1.00226597e+00
1.00226999e+00
1.00227260e+00
1.00227383e+00
1.00227374e+00
1.00227241e+00
1.00226994e+00
1.00226642e+00
1.00226199e+00
1.00225677e+00
1.00225091e+00
1.00224456e+00
1.00223787e+00
1.00223098e+00
1.00222407e+00
1.00221726e+00
1.00221071e+00
1.00220455e+00
1.00219891e+00
1.00219391e+00
1.00218965e+00
1.00218622e+00
1.00218371e+00
1.00218219e+00
1.00218170e+00
1.00218230e+00
1.00218399e+00
1.00218681e+00
1.00219075e+00
1.00219581e+00
1.00220195e+00
1.00220916e+00
1.00221738e+00
1.00222657e+00
1.00223668e+00
1.00224763e+00
1.00225935e+00
1.00227176e+00
1.00228479e+00
1.00229835e+00
1.00231234e+00
1.00232668e+00
1.00234127e+00
1.00235603e+00
1.00237085e+00
1.00238566e+00
1.00240037e+00
1.00241489e+00
1.00242914e+00
1.00244307e+00
1.00245660e+00
1.00246963e+00
1.00248215e+00
1.00249418e+00
1.00250555e+00
1.00251614e+00
1.00252625e+00
1.00253580e+00
1.00254423e+00
1.00255187e+00
1.00255966e+00
1.00256637e+00
1.00257084e+00
1.00257618e+00
1.00258296e+00
1.00258506e+00
1.00258383e+00
1.00259366e+00
1.00260134e+00
1.00101462e+00
1.00101713e+00
1.00102474e+00
1.00103331e+00
1.00104422e+00
1.00105918e+00
1.00107670e+00
1.00109692e+00
1.00111930e+00
1.00114420e+00
1.00117082e+00
1.00119921e+00
1.00122882e+00
1.00125963e+00
1.00129113e+00
1.00132323e+00
1.00135555e+00
1.00138798e+00
1.00142022e+00
1.00145217e+00
1.00148362e+00
1.00151449e+00
1.00154465e+00
1.00157408e+00
1.00160269e+00
1.00163050e+00
1.00165748e+00
1.00168368e+00
1.00170911e+00
1.00173384e+00
1.00175792e+00
1.00178142e+00
1.00180440e+00
1.00182694e+00
1.00184910e+00
1.00187094e+00
1.00189251e+00
1.00191386e+00
1.00193502e+00
1.00195600e+00
1.00197682e+00
1.00199747e+00
1.00201792e+00
1.00203813e+00
1.00205805e+00
1.00207762e+00
1.00209676e+00
1.00211539e+00
1.00213341e+00
1.00215073e+00
1.00216723e+00
1.00218283e+00
1.00219741e+00
1.00221090e+00
1.00222319e+00
1.00223421e+00
1.00224391e+00
1.00225222e+00
1.00225913e+00
1.00226460e+00
1.00226865e+00
1.00227131e+00
1.00227259e+00
1.00227258e+00
1.00227134e+00
1.00226897e+00
1.00226558e+00
1.00226128e+00
1.00225620e+00
1.00225050e+00
1.00224430e+00
1.00223777e+00
1.00223106e+00
1.00222430e+00
1.00221766e+00
1.00221127e+00
1.00220526e+00
1.00219977e+00
1.00219490e+00
1.00219076e+00
1.00218745e+00
1.00218504e+00
1.00218360e+00
1.00218318e+00
1.00218382e+00
1.00218555e+00
1.00218839e+00
1.00219232e+00
1.00219736e+00
1.00220346e+00
1.00221061e+00
1.00221876e+00
1.00222786e+00
1.00223785e+00
1.00224867e+00
1.00226026e+00
1.00227252e+00
1.00228538e+00
1.00229875e+00
1.00231255e+00
1.00232669e+00
1.00234107e+00
1.00235560e+00
1.00237021e+00
1.00238479e+00
1.00239927e+00
1.00241355e+00
1.00242758e+00
1.00244127e+00
1.00245457e+00
1.00246739e+00
1.00247974e+00
1.00249150e+00
1.00250265e+00
1.00251316e+00
1.00252311e+00
1.00253229e+00
1.00254067e+00
1.00254849e+00
1.00255583e+00
1.00256199e+00
1.00256720e+00
1.00257288e+00
1.00257773e+00
1.00257989e+00
1.00258168e+00
1.00258975e+00
1.00259090e+00
1.00102105e+00
1.00102238e+00
1.00102521e+00
1.00103466e+00
1.00104712e+00
1.00106116e+00
1.00107835e+00
1.00109864e+00
1.00112103e+00
1.00114553e+00
1.00117201e+00
1.00120015e+00
1.00122957e+00
1.00126007e+00
1.00129136e+00
1.00132318e+00
1.00135528e+00
1.00138746e+00
1.00141949e+00
1.00145122e+00
1.00148249e+00
1.00151320e+00
1.00154323e+00
1.00157252e+00
1.00160103e+00
1.00162876e+00
1.00165568e+00
1.00168183e+00
1.00170724e+00
1.00173196e+00
1.00175604e+00
1.00177954e+00
1.00180255e+00
1.00182511e+00
1.00184729e+00
1.00186916e+00
1.00189076e+00
1.00191214e+00
1.00193332e+00
1.00195432e+00
1.00197516e+00
1.00199581e+00
1.00201626e+00
1.00203647e+00
1.00205639e+00
1.00207594e+00
1.00209507e+00
1.00211368e+00
1.00213168e+00
1.00214897e+00
1.00216545e+00
1.00218103e+00
1.00219561e+00
1.00220909e+00
1.00222138e+00
1.00223242e+00
1.00224214e+00
1.00225050e+00
1.00225746e+00
1.00226301e+00
1.00226714e+00
1.00226990e+00
1.00227130e+00
1.00227143e+00
1.00227034e+00
1.00226814e+00
1.00226492e+00
1.00226081e+00
1.00225595e+00
1.00225045e+00
1.00224448e+00
1.00223818e+00
1.00223169e+00
1.00222517e+00
1.00221876e+00
1.00221260e+00
1.00220681e+00
1.00220153e+00
1.00219687e+00
1.00219292e+00
1.00218978e+00
1.00218753e+00
1.00218623e+00
1.00218593e+00
1.00218667e+00
1.00218847e+00
1.00219136e+00
1.00219532e+00
1.00220035e+00
1.00220643e+00
1.00221353e+00
1.00222160e+00
1.00223060e+00
1.00224046e+00
1.00225113e+00
1.00226254e+00
1.00227460e+00
1.00228724e+00
1.00230037e+00
1.00231391e+00
1.00232777e+00
1.00234185e+00
1.00235608e+00
1.00237037e+00
1.00238462e+00
1.00239875e+00
1.00241270e+00
1.00242639e+00
1.00243973e+00
1.00245267e+00
1.00246518e+00
1.00247718e+00
1.00248856e+00
1.00249942e+00
1.00250976e+00
1.00251925e+00
1.00252798e+00
1.00253648e+00
1.00254423e+00
1.00255043e+00
1.00255655e+00
1.00256326e+00
1.00256745e+00
1.00256934e+00
1.00257533e+00
1.00258096e+00
1.00257666e+00
1.00257579e+00
1.00102120e+00
1.00102257e+00
1.00102762e+00
1.00103639e+00
1.00104773e+00
1.00106194e+00
1.00107935e+00
1.00109919e+00
1.00112141e+00
1.00114575e+00
1.00117204e+00
1.00119987e+00
1.00122906e+00
1.00125929e+00
1.00129032e+00
1.00132187e+00
1.00135372e+00
1.00138563e+00
1.00141744e+00
1.00144895e+00
1.00148002e+00
1.00151053e+00
1.00154040e+00
1.00156955e+00
1.00159795e+00
1.00162557e+00
1.00165243e+00
1.00167852e+00
1.00170390e+00
1.00172860e+00
1.00175268e+00
1.00177620e+00
1.00179923e+00
1.00182183e+00
1.00184406e+00
1.00186597e+00
1.00188763e+00
1.00190906e+00
1.00193030e+00
1.00195136e+00
1.00197225e+00
1.00199296e+00
1.00201346e+00
1.00203371e+00
1.00205367e+00
1.00207326e+00
1.00209243e+00
1.00211107e+00
1.00212910e+00
1.00214643e+00
1.00216295e+00
1.00217857e+00
1.00219319e+00
1.00220671e+00
1.00221907e+00
1.00223017e+00
1.00223998e+00
1.00224842e+00
1.00225549e+00
1.00226115e+00
1.00226543e+00
1.00226833e+00
1.00226991e+00
1.00227022e+00
1.00226934e+00
1.00226735e+00
1.00226437e+00
1.00226051e+00
1.00225590e+00
1.00225068e+00
1.00224499e+00
1.00223897e+00
1.00223277e+00
1.00222654e+00
1.00222041e+00
1.00221453e+00
1.00220902e+00
1.00220401e+00
1.00219960e+00
1.00219589e+00
1.00219298e+00
1.00219093e+00
1.00218981e+00
1.00218967e+00
1.00219054e+00
1.00219244e+00
1.00219540e+00
1.00219941e+00
1.00220446e+00
1.00221052e+00
1.00221756e+00
1.00222555e+00
1.00223444e+00
1.00224416e+00
1.00225466e+00
1.00226585e+00
1.00227768e+00
1.00229006e+00
1.00230291e+00
1.00231614e+00
1.00232966e+00
1.00234340e+00
1.00235726e+00
1.00237115e+00
1.00238501e+00
1.00239874e+00
1.00241227e+00
1.00242552e+00
1.00243845e+00
1.00245097e+00
1.00246304e+00
1.00247461e+00
1.00248565e+00
1.00249609e+00
1.00250593e+00
1.00251515e+00
1.00252371e+00
1.00253157e+00
1.00253885e+00
1.00254540e+00
1.00255116e+00
1.00255642e+00
1.00256120e+00
1.00256468e+00
1.00256758e+00
1.00257091e+00
1.00257156e+00
1.00257256e+00
1.00102186e+00
1.00102375e+00
1.00102914e+00
1.00103648e+00
1.00104738e+00
1.00106220e+00
1.00107938e+00
1.00109870e+00
1.00112074e+00
1.00114496e+00
1.00117092e+00
1.00119845e+00
1.00122736e+00
1.00125730e+00
1.00128802e+00
1.00131927e+00
1.00135083e+00
1.00138246e+00
1.00141399e+00
1.00144525e+00
1.00147609e+00
1.00150640e+00
1.00153608e+00
1.00156508e+00
1.00159335e+00
1.00162087e+00
1.00164764e+00
1.00167368e+00
1.00169902e+00
1.00172371e+00
1.00174780e+00
1.00177135e+00
1.00179442e+00
1.00181708e+00
1.00183937e+00
1.00186137e+00
1.00188310e+00
1.00190462e+00
1.00192595e+00
1.00194710e+00
1.00196809e+00
1.00198888e+00
1.00200947e+00
1.00202981e+00
1.00204985e+00
1.00206952e+00
1.00208876e+00
1.00210748e+00
1.00212559e+00
1.00214299e+00
1.00215958e+00
1.00217528e+00
1.00218999e+00
1.00220360e+00
1.00221606e+00
1.00222728e+00
1.00223720e+00
1.00224579e+00
1.00225300e+00
1.00225884e+00
1.00226330e+00
1.00226641e+00
1.00226822e+00
1.00226877e+00
1.00226815e+00
1.00226644e+00
1.00226376e+00
1.00226021e+00
1.00225593e+00
1.00225105e+00
1.00224570e+00
1.00224004e+00
1.00223420e+00
1.00222833e+00
1.00222257e+00
1.00221704e+00
1.00221189e+00
1.00220721e+00
1.00220312e+00
1.00219972e+00
1.00219709e+00
1.00219530e+00
1.00219441e+00
1.00219448e+00
1.00219552e+00
1.00219757e+00
1.00220063e+00
1.00220471e+00
1.00220978e+00
1.00221584e+00
1.00222284e+00
1.00223074e+00
1.00223950e+00
1.00224906e+00
1.00225935e+00
1.00227031e+00
1.00228187e+00
1.00229394e+00
1.00230645e+00
1.00231931e+00
1.00233244e+00
1.00234576e+00
1.00235917e+00
1.00237261e+00
1.00238599e+00
1.00239923e+00
1.00241226e+00
1.00242500e+00
1.00243742e+00
1.00244945e+00
1.00246098e+00
1.00247204e+00
1.00248263e+00
1.00249259e+00
1.00250185e+00
1.00251069e+00
1.00251900e+00
1.00252623e+00
1.00253285e+00
1.00253963e+00
1.00254527e+00
1.00254895e+00
1.00255354e+00
1.00255905e+00
1.00256038e+00
1.00256037e+00
1.00256423e+00
1.00256610e+00
1.00102237e+00
1.00102341e+00
1.00102803e+00
1.00103599e+00
1.00104729e+00
1.00106129e+00
1.00107788e+00
1.00109737e+00
1.00111922e+00
1.00114300e+00
1.00116865e+00
1.00119594e+00
1.00122451e+00
1.00125411e+00
1.00128450e+00
1.00131542e+00
1.00134665e+00
1.00137798e+00
1.00140922e+00
1.00144019e+00
1.00147078e+00
1.00150086e+00
1.00153033e+00
1.00155915e+00
1.00158727e+00
1.00161467e+00
1.00164135e+00
1.00166733e+00
1.00169263e+00
1.00171731e+00
1.00174142e+00
1.00176500e+00
1.00178812e+00
1.00181085e+00
1.00183323e+00
1.00185532e+00
1.00187716e+00
1.00189879e+00
1.00192024e+00
1.00194152e+00
1.00196263e+00
1.00198355e+00
1.00200426e+00
1.00202473e+00
1.00204489e+00
1.00206468e+00
1.00208404e+00
1.00210288e+00
1.00212110e+00
1.00213862e+00
1.00215534e+00
1.00217116e+00
1.00218599e+00
1.00219975e+00
1.00221235e+00
1.00222372e+00
1.00223382e+00
1.00224259e+00
1.00225000e+00
1.00225606e+00
1.00226076e+00
1.00226413e+00
1.00226621e+00
1.00226706e+00
1.00226676e+00
1.00226540e+00
1.00226307e+00
1.00225990e+00
1.00225601e+00
1.00225154e+00
1.00224661e+00
1.00224138e+00
1.00223597e+00
1.00223054e+00
1.00222521e+00
1.00222011e+00
1.00221537e+00
1.00221110e+00
1.00220740e+00
1.00220437e+00
1.00220208e+00
1.00220061e+00
1.00220001e+00
1.00220032e+00
1.00220158e+00
1.00220381e+00
1.00220701e+00
1.00221118e+00
1.00221630e+00
1.00222236e+00
1.00222932e+00
1.00223713e+00
1.00224576e+00
1.00225513e+00
1.00226520e+00
1.00227590e+00
1.00228714e+00
1.00229886e+00
1.00231098e+00
1.00232342e+00
1.00233610e+00
1.00234893e+00
1.00236183e+00
1.00237474e+00
1.00238756e+00
1.00240023e+00
1.00241268e+00
1.00242484e+00
1.00243664e+00
1.00244806e+00
1.00245904e+00
1.00246950e+00
1.00247943e+00
1.00248887e+00
1.00249772e+00
1.00250585e+00
1.00251346e+00
1.00252064e+00
1.00252693e+00
1.00253239e+00
1.00253778e+00
1.00254264e+00
1.00254595e+00
1.00254892e+00
1.00255209e+00
1.00255411e+00
1.00255530e+00
1.00255528e+00
1.00102186e+00
1.00102289e+00
1.00102677e+00
1.00103469e+00
1.00104567e+00
1.00105920e+00
1.00107579e+00
1.00109512e+00
1.00111648e+00
1.00113994e+00
1.00116535e+00
1.00119229e+00
1.00122047e+00
1.00124972e+00
1.00127976e+00
1.00131033e+00
1.00134120e+00
1.00137219e+00
1.00140310e+00
1.00143378e+00
1.00146408e+00
1.00149391e+00
1.00152317e+00
1.00155179e+00
1.00157975e+00
1.00160702e+00
1.00163360e+00
1.00165951e+00
1.00168478e+00
1.00170945e+00
1.00173357e+00
1.00175719e+00
1.00178038e+00
1.00180319e+00
1.00182568e+00
1.00184789e+00
1.00186986e+00
1.00189164e+00
1.00191324e+00
1.00193467e+00
1.00195594e+00
1.00197702e+00
1.00199789e+00
1.00201852e+00
1.00203884e+00
1.00205880e+00
1.00207831e+00
1.00209731e+00
1.00211569e+00
1.00213337e+00
1.00215024e+00
1.00216623e+00
1.00218123e+00
1.00219517e+00
1.00220795e+00
1.00221953e+00
1.00222983e+00
1.00223883e+00
1.00224650e+00
1.00225282e+00
1.00225780e+00
1.00226148e+00
1.00226389e+00
1.00226510e+00
1.00226517e+00
1.00226420e+00
1.00226229e+00
1.00225956e+00
1.00225613e+00
1.00225212e+00
1.00224768e+00
1.00224293e+00
1.00223803e+00
1.00223309e+00
1.00222826e+00
1.00222365e+00
1.00221939e+00
1.00221559e+00
1.00221234e+00
1.00220973e+00
1.00220785e+00
1.00220674e+00
1.00220647e+00
1.00220708e+00
1.00220859e+00
1.00221103e+00
1.00221439e+00
1.00221867e+00
1.00222386e+00
1.00222992e+00
1.00223684e+00
1.00224456e+00
1.00225304e+00
1.00226222e+00
1.00227204e+00
1.00228243e+00
1.00229333e+00
1.00230466e+00
1.00231634e+00
1.00232831e+00
1.00234047e+00
1.00235275e+00
1.00236508e+00
1.00237738e+00
1.00238958e+00
1.00240160e+00
1.00241339e+00
1.00242488e+00
1.00243602e+00
1.00244674e+00
1.00245705e+00
1.00246688e+00
1.00247612e+00
1.00248486e+00
1.00249316e+00
1.00250076e+00
1.00250760e+00
1.00251419e+00
1.00252032e+00
1.00252519e+00
1.00252958e+00
1.00253443e+00
1.00253791e+00
1.00253971e+00
1.00254273e+00
1.00254520e+00
1.00254458e+00
1.00254496e+00
1.00101962e+00
1.00102047e+00
1.00102487e+00
1.00103236e+00
1.00104278e+00
1.00105640e+00
1.00107283e+00
1.00109155e+00
1.00111262e+00
1.00113592e+00
1.00116093e+00
1.00118744e+00
1.00121528e+00
1.00124417e+00
1.00127380e+00
1.00130398e+00
1.00133449e+00
1.00136512e+00
1.00139569e+00
1.00142605e+00
1.00145606e+00
1.00148561e+00
1.00151463e+00
1.00154305e+00
1.00157083e+00
1.00159796e+00
1.00162444e+00
1.00165028e+00
1.00167551e+00
1.00170018e+00
1.00172432e+00
1.00174800e+00
1.00177127e+00
1.00179418e+00
1.00181679e+00
1.00183914e+00
1.00186127e+00
1.00188322e+00
1.00190500e+00
1.00192661e+00
1.00194807e+00
1.00196935e+00
1.00199042e+00
1.00201125e+00
1.00203177e+00
1.00205192e+00
1.00207163e+00
1.00209082e+00
1.00210940e+00
1.00212727e+00
1.00214435e+00
1.00216053e+00
1.00217575e+00
1.00218989e+00
1.00220291e+00
1.00221472e+00
1.00222528e+00
1.00223455e+00
1.00224250e+00
1.00224913e+00
1.00225444e+00
1.00225847e+00
1.00226126e+00
1.00226286e+00
1.00226336e+00
1.00226284e+00
1.00226140e+00
1.00225916e+00
1.00225623e+00
1.00225275e+00
1.00224885e+00
1.00224465e+00
1.00224030e+00
1.00223592e+00
1.00223165e+00
1.00222759e+00
1.00222387e+00
1.00222059e+00
1.00221784e+00
1.00221571e+00
1.00221427e+00
1.00221358e+00
1.00221369e+00
1.00221463e+00
1.00221642e+00
1.00221910e+00
1.00222264e+00
1.00222705e+00
1.00223232e+00
1.00223840e+00
1.00224528e+00
1.00225290e+00
1.00226123e+00
1.00227019e+00
1.00227974e+00
1.00228981e+00
1.00230033e+00
1.00231123e+00
1.00232244e+00
1.00233388e+00
1.00234548e+00
1.00235717e+00
1.00236886e+00
1.00238049e+00
1.00239200e+00
1.00240332e+00
1.00241438e+00
1.00242513e+00
1.00243553e+00
1.00244553e+00
1.00245504e+00
1.00246413e+00
1.00247275e+00
1.00248074e+00
1.00248817e+00
1.00249526e+00
1.00250172e+00
1.00250731e+00
1.00251259e+00
1.00251770e+00
1.00252170e+00
1.00252485e+00
1.00252834e+00
1.00253125e+00
1.00253267e+00
1.00253382e+00
1.00253519e+00
1.00253593e+00
1.00101700e+00
1.00101777e+00
1.00102173e+00
1.00102881e+00
1.00103917e+00
1.00105261e+00
1.00106855e+00
1.00108698e+00
1.00110787e+00
1.00113074e+00
1.00115531e+00
1.00118148e+00
1.00120895e+00
1.00123740e+00
1.00126663e+00
1.00129641e+00
1.00132653e+00
1.00135678e+00
1.00138699e+00
1.00141701e+00
1.00144671e+00
1.00147598e+00
1.00150475e+00
1.00153295e+00
1.00156056e+00
1.00158755e+00
1.00161392e+00
1.00163969e+00
1.00166489e+00
1.00168956e+00
1.00171374e+00
1.00173749e+00
1.00176085e+00
1.00178389e+00
1.00180664e+00
1.00182915e+00
1.00185147e+00
1.00187361e+00
1.00189559e+00
1.00191743e+00
1.00193911e+00
1.00196062e+00
1.00198192e+00
1.00200297e+00
1.00202372e+00
1.00204411e+00
1.00206405e+00
1.00208346e+00
1.00210227e+00
1.00212037e+00
1.00213768e+00
1.00215411e+00
1.00216956e+00
1.00218396e+00
1.00219723e+00
1.00220931e+00
1.00222016e+00
1.00222973e+00
1.00223800e+00
1.00224498e+00
1.00225066e+00
1.00225508e+00
1.00225828e+00
1.00226033e+00
1.00226129e+00
1.00226126e+00
1.00226034e+00
1.00225864e+00
1.00225627e+00
1.00225337e+00
1.00225005e+00
1.00224646e+00
1.00224271e+00
1.00223895e+00
1.00223528e+00
1.00223182e+00
1.00222869e+00
1.00222598e+00
1.00222378e+00
1.00222217e+00
1.00222122e+00
1.00222098e+00
1.00222149e+00
1.00222280e+00
1.00222491e+00
1.00222784e+00
1.00223159e+00
1.00223615e+00
1.00224150e+00
1.00224761e+00
1.00225445e+00
1.00226197e+00
1.00227012e+00
1.00227886e+00
1.00228812e+00
1.00229783e+00
1.00230795e+00
1.00231839e+00
1.00232908e+00
1.00233996e+00
1.00235095e+00
1.00236199e+00
1.00237300e+00
1.00238392e+00
1.00239468e+00
1.00240523e+00
1.00241551e+00
1.00242546e+00
1.00243505e+00
1.00244426e+00
1.00245300e+00
1.00246124e+00
1.00246906e+00
1.00247639e+00
1.00248307e+00
1.00248926e+00
1.00249514e+00
1.00250033e+00
1.00250474e+00
1.00250903e+00
1.00251296e+00
1.00251572e+00
1.00251824e+00
1.00252097e+00
1.00252241e+00
1.00252300e+00
1.00252400e+00
1.00252445e+00
1.00101318e+00
1.00101358e+00
1.00101733e+00
1.00102444e+00
1.00103463e+00
1.00104756e+00
1.00106321e+00
1.00108150e+00
1.00110197e+00
1.00112436e+00
1.00114862e+00
1.00117442e+00
1.00120142e+00
1.00122944e+00
1.00125827e+00
1.00128764e+00
1.00131734e+00
1.00134720e+00
1.00137704e+00
1.00140670e+00
1.00143608e+00
1.00146507e+00
1.00149358e+00
1.00152156e+00
1.00154899e+00
1.00157584e+00
1.00160210e+00
1.00162781e+00
1.00165299e+00
1.00167767e+00
1.00170190e+00
1.00172572e+00
1.00174920e+00
1.00177237e+00
1.00179529e+00
1.00181799e+00
1.00184051e+00
1.00186287e+00
1.00188509e+00
1.00190717e+00
1.00192911e+00
1.00195087e+00
1.00197243e+00
1.00199375e+00
1.00201476e+00
1.00203541e+00
1.00205561e+00
1.00207529e+00
1.00209435e+00
1.00211272e+00
1.00213029e+00
1.00214698e+00
1.00216270e+00
1.00217738e+00
1.00219094e+00
1.00220333e+00
1.00221449e+00
1.00222440e+00
1.00223303e+00
1.00224038e+00
1.00224646e+00
1.00225131e+00
1.00225497e+00
1.00225749e+00
1.00225896e+00
1.00225947e+00
1.00225910e+00
1.00225798e+00
1.00225622e+00
1.00225393e+00
1.00225125e+00
1.00224831e+00
1.00224521e+00
1.00224210e+00
1.00223909e+00
1.00223628e+00
1.00223378e+00
1.00223168e+00
1.00223007e+00
1.00222902e+00
1.00222859e+00
1.00222884e+00
1.00222979e+00
1.00223149e+00
1.00223394e+00
1.00223715e+00
1.00224112e+00
1.00224584e+00
1.00225129e+00
1.00225742e+00
1.00226422e+00
1.00227163e+00
1.00227961e+00
1.00228811e+00
1.00229706e+00
1.00230641e+00
1.00231609e+00
1.00232604e+00
1.00233619e+00
1.00234647e+00
1.00235682e+00
1.00236717e+00
1.00237745e+00
1.00238762e+00
1.00239759e+00
1.00240732e+00
1.00241678e+00
1.00242591e+00
1.00243463e+00
1.00244296e+00
1.00245089e+00
1.00245833e+00
1.00246523e+00
1.00247174e+00
1.00247782e+00
1.00248320e+00
1.00248808e+00
1.00249279e+00
1.00249689e+00
1.00250010e+00
1.00250324e+00
1.00250629e+00
1.00250825e+00
1.00250965e+00
1.00251131e+00
1.00251248e+00
1.00251254e+00
1.00251234e+00
1.00100826e+00
1.00100860e+00
1.00101210e+00
1.00101893e+00
1.00102878e+00
1.00104149e+00
1.00105694e+00
1.00107482e+00
1.00109485e+00
1.00111695e+00
1.00114083e+00
1.00116616e+00
1.00119273e+00
1.00122035e+00
1.00124873e+00
1.00127766e+00
1.00130694e+00
1.00133640e+00
1.00136585e+00
1.00139517e+00
1.00142421e+00
1.00145291e+00
1.00148116e+00
1.00150893e+00
1.00153617e+00
1.00156288e+00
1.00158905e+00
1.00161470e+00
1.00163986e+00
1.00166457e+00
1.00168886e+00
1.00171278e+00
1.00173638e+00
1.00175972e+00
1.00178282e+00
1.00180573e+00
1.00182848e+00
1.00185109e+00
1.00187357e+00
1.00189593e+00
1.00191814e+00
1.00194019e+00
1.00196204e+00
1.00198365e+00
1.00200496e+00
1.00202589e+00
1.00204638e+00
1.00206635e+00
1.00208570e+00
1.00210435e+00
1.00212221e+00
1.00213919e+00
1.00215521e+00
1.00217019e+00
1.00218407e+00
1.00219679e+00
1.00220830e+00
1.00221857e+00
1.00222758e+00
1.00223534e+00
1.00224185e+00
1.00224716e+00
1.00225130e+00
1.00225433e+00
1.00225635e+00
1.00225742e+00
1.00225765e+00
1.00225714e+00
1.00225602e+00
1.00225439e+00
1.00225238e+00
1.00225012e+00
1.00224772e+00
1.00224530e+00
1.00224298e+00
1.00224085e+00
1.00223902e+00
1.00223757e+00
1.00223658e+00
1.00223612e+00
1.00223624e+00
1.00223700e+00
1.00223842e+00
1.00224052e+00
1.00224333e+00
1.00224684e+00
1.00225104e+00
1.00225593e+00
1.00226147e+00
1.00226764e+00
1.00227439e+00
1.00228169e+00
1.00228949e+00
1.00229773e+00
1.00230636e+00
1.00231532e+00
1.00232455e+00
1.00233398e+00
1.00234355e+00
1.00235321e+00
1.00236288e+00
1.00237251e+00
1.00238204e+00
1.00239140e+00
1.00240056e+00
1.00240945e+00
1.00241803e+00
1.00242627e+00
1.00243414e+00
1.00244157e+00
1.00244858e+00
1.00245519e+00
1.00246130e+00
1.00246687e+00
1.00247208e+00
1.00247688e+00
1.00248102e+00
1.00248474e+00
1.00248828e+00
1.00249122e+00
1.00249352e+00
1.00249576e+00
1.00249766e+00
1.00249884e+00
1.00249987e+00
1.00250055e+00
1.00250044e+00
1.00250048e+00
1.00100206e+00
1.00100222e+00
1.00100570e+00
1.00101229e+00
1.00102187e+00
1.00103438e+00
1.00104949e+00
1.00106695e+00
1.00108669e+00
1.00110843e+00
1.00113184e+00
1.00115673e+00
1.00118291e+00
1.00121008e+00
1.00123800e+00
1.00126650e+00
1.00129537e+00
1.00132441e+00
1.00135348e+00
1.00138243e+00
1.00141116e+00
1.00143955e+00
1.00146755e+00
1.00149510e+00
1.00152217e+00
1.00154874e+00
1.00157483e+00
1.00160044e+00
1.00162559e+00
1.00165033e+00
1.00167470e+00
1.00169874e+00
1.00172249e+00
1.00174601e+00
1.00176932e+00
1.00179246e+00
1.00181546e+00
1.00183835e+00
1.00186112e+00
1.00188377e+00
1.00190629e+00
1.00192865e+00
1.00195082e+00
1.00197274e+00
1.00199437e+00
1.00201562e+00
1.00203642e+00
1.00205670e+00
1.00207636e+00
1.00209532e+00
1.00211350e+00
1.00213079e+00
1.00214713e+00
1.00216245e+00
1.00217666e+00
1.00218973e+00
1.00220161e+00
1.00221226e+00
1.00222168e+00
1.00222987e+00
1.00223684e+00
1.00224263e+00
1.00224728e+00
1.00225086e+00
1.00225344e+00
1.00225511e+00
1.00225596e+00
1.00225610e+00
1.00225565e+00
1.00225471e+00
1.00225341e+00
1.00225187e+00
1.00225019e+00
1.00224850e+00
1.00224689e+00
1.00224547e+00
1.00224434e+00
1.00224356e+00
1.00224322e+00
1.00224337e+00
1.00224407e+00
1.00224536e+00
1.00224726e+00
1.00224980e+00
1.00225298e+00
1.00225679e+00
1.00226124e+00
1.00226630e+00
1.00227194e+00
1.00227814e+00
1.00228485e+00
1.00229203e+00
1.00229964e+00
1.00230762e+00
1.00231591e+00
1.00232447e+00
1.00233323e+00
1.00234213e+00
1.00235111e+00
1.00236012e+00
1.00236910e+00
1.00237798e+00
1.00238673e+00
1.00239527e+00
1.00240358e+00
1.00241160e+00
1.00241930e+00
1.00242662e+00
1.00243358e+00
1.00244014e+00
1.00244623e+00
1.00245189e+00
1.00245718e+00
1.00246197e+00
1.00246622e+00
1.00247017e+00
1.00247378e+00
1.00247674e+00
1.00247931e+00
1.00248184e+00
1.00248382e+00
1.00248516e+00
1.00248653e+00
1.00248776e+00
1.00248822e+00
1.00248838e+00
1.00248865e+00
1.00248855e+00
1.00099486e+00
1.00099492e+00
1.00099811e+00
1.00100448e+00
1.00101388e+00
1.00102609e+00
1.00104084e+00
1.00105803e+00
1.00107741e+00
1.00109870e+00
1.00112170e+00
1.00114620e+00
1.00117192e+00
1.00119862e+00
1.00122612e+00
1.00125419e+00
1.00128262e+00
1.00131126e+00
1.00133994e+00
1.00136854e+00
1.00139694e+00
1.00142505e+00
1.00145280e+00
1.00148014e+00
1.00150705e+00
1.00153350e+00
1.00155951e+00
1.00158509e+00
1.00161026e+00
1.00163505e+00
1.00165952e+00
1.00168369e+00
1.00170761e+00
1.00173133e+00
1.00175487e+00
1.00177827e+00
1.00180155e+00
1.00182473e+00
1.00184781e+00
1.00187078e+00
1.00189363e+00
1.00191633e+00
1.00193884e+00
1.00196111e+00
1.00198307e+00
1.00200466e+00
1.00202580e+00
1.00204641e+00
1.00206640e+00
1.00208570e+00
1.00210420e+00
1.00212183e+00
1.00213851e+00
1.00215417e+00
1.00216874e+00
1.00218218e+00
1.00219445e+00
1.00220551e+00
1.00221535e+00
1.00222399e+00
1.00223144e+00
1.00223773e+00
1.00224292e+00
1.00224706e+00
1.00225023e+00
1.00225252e+00
1.00225402e+00
1.00225483e+00
1.00225507e+00
1.00225485e+00
1.00225428e+00
1.00225347e+00
1.00225254e+00
1.00225159e+00
1.00225073e+00
1.00225004e+00
1.00224962e+00
1.00224954e+00
1.00224986e+00
1.00225065e+00
1.00225194e+00
1.00225377e+00
1.00225616e+00
1.00225913e+00
1.00226268e+00
1.00226681e+00
1.00227150e+00
1.00227673e+00
1.00228248e+00
1.00228870e+00
1.00229537e+00
1.00230242e+00
1.00230983e+00
1.00231754e+00
1.00232549e+00
1.00233363e+00
1.00234190e+00
1.00235025e+00
1.00235863e+00
1.00236698e+00
1.00237524e+00
1.00238336e+00
1.00239131e+00
1.00239902e+00
1.00240646e+00
1.00241359e+00
1.00242039e+00
1.00242681e+00
1.00243283e+00
1.00243846e+00
1.00244369e+00
1.00244844e+00
1.00245277e+00
1.00245676e+00
1.00246028e+00
1.00246331e+00
1.00246607e+00
1.00246854e+00
1.00247046e+00
1.00247208e+00
1.00247359e+00
1.00247469e+00
1.00247542e+00
1.00247607e+00
1.00247646e+00
1.00247647e+00
1.00247621e+00
1.00247588e+00
1.00098636e+00
1.00098625e+00
1.00098934e+00
1.00099556e+00
1.00100472e+00
1.00101660e+00
1.00103108e+00
1.00104795e+00
1.00106693e+00
1.00108782e+00
1.00111044e+00
1.00113451e+00
1.00115977e+00
1.00118604e+00
1.00121310e+00
1.00124073e+00
1.00126874e+00
1.00129698e+00
1.00132529e+00
1.00135354e+00
1.00138162e+00
1.00140946e+00
1.00143697e+00
1.00146412e+00
1.00149087e+00
1.00151723e+00
1.00154317e+00
1.00156874e+00
1.00159394e+00
1.00161881e+00
1.00164339e+00
1.00166771e+00
1.00169183e+00
1.00171576e+00
1.00173956e+00
1.00176324e+00
1.00178682e+00
1.00181032e+00
1.00183373e+00
1.00185705e+00
1.00188026e+00
1.00190332e+00
1.00192618e+00
1.00194881e+00
1.00197113e+00
1.00199308e+00
1.00201457e+00
1.00203554e+00
1.00205588e+00
1.00207552e+00
1.00209437e+00
1.00211236e+00
1.00212939e+00
1.00214541e+00
1.00216036e+00
1.00217418e+00
1.00218685e+00
1.00219833e+00
1.00220862e+00
1.00221773e+00
1.00222567e+00
1.00223248e+00
1.00223822e+00
1.00224294e+00
1.00224672e+00
1.00224964e+00
1.00225181e+00
1.00225331e+00
1.00225427e+00
1.00225477e+00
1.00225495e+00
1.00225490e+00
1.00225473e+00
1.00225454e+00
1.00225444e+00
1.00225450e+00
1.00225480e+00
1.00225543e+00
1.00225642e+00
1.00225785e+00
1.00225974e+00
1.00226212e+00
1.00226501e+00
1.00226842e+00
1.00227235e+00
1.00227680e+00
1.00228173e+00
1.00228714e+00
1.00229298e+00
1.00229923e+00
1.00230584e+00
1.00231277e+00
1.00231998e+00
1.00232740e+00
1.00233500e+00
1.00234272e+00
1.00235050e+00
1.00235830e+00
1.00236607e+00
1.00237374e+00
1.00238129e+00
1.00238864e+00
1.00239578e+00
1.00240266e+00
1.00240923e+00
1.00241547e+00
1.00242135e+00
1.00242688e+00
1.00243199e+00
1.00243667e+00
1.00244099e+00
1.00244490e+00
1.00244834e+00
1.00245139e+00
1.00245416e+00
1.00245648e+00
1.00245836e+00
1.00246007e+00
1.00246152e+00
1.00246249e+00
1.00246326e+00
1.00246402e+00
1.00246439e+00
1.00246446e+00
1.00246457e+00
1.00246452e+00
1.00246405e+00
1.00246350e+00
1.00097670e+00
1.00097650e+00
1.00097942e+00
1.00098541e+00
1.00099432e+00
1.00100598e+00
1.00102017e+00
1.00103667e+00
1.00105529e+00
1.00107583e+00
1.00109803e+00
1.00112165e+00
1.00114650e+00
1.00117234e+00
1.00119895e+00
1.00122615e+00
1.00125377e+00
1.00128162e+00
1.00130956e+00
1.00133748e+00
1.00136526e+00
1.00139283e+00
1.00142012e+00
1.00144710e+00
1.00147372e+00
1.00149998e+00
1.00152589e+00
1.00155146e+00
1.00157672e+00
1.00160168e+00
1.00162640e+00
1.00165090e+00
1.00167523e+00
1.00169941e+00
1.00172348e+00
1.00174746e+00
1.00177137e+00
1.00179521e+00
1.00181898e+00
1.00184266e+00
1.00186624e+00
1.00188968e+00
1.00191293e+00
1.00193593e+00
1.00195863e+00
1.00198095e+00
1.00200282e+00
1.00202415e+00
1.00204486e+00
1.00206486e+00
1.00208407e+00
1.00210242e+00
1.00211982e+00
1.00213622e+00
1.00215155e+00
1.00216577e+00
1.00217884e+00
1.00219076e+00
1.00220150e+00
1.00221109e+00
1.00221953e+00
1.00222688e+00
1.00223318e+00
1.00223849e+00
1.00224289e+00
1.00224646e+00
1.00224930e+00
1.00225151e+00
1.00225318e+00
1.00225443e+00
1.00225536e+00
1.00225608e+00
1.00225668e+00
1.00225726e+00
1.00225792e+00
1.00225873e+00
1.00225977e+00
1.00226110e+00
1.00226277e+00
1.00226483e+00
1.00226732e+00
1.00227025e+00
1.00227364e+00
1.00227749e+00
1.00228179e+00
1.00228654e+00
1.00229172e+00
1.00229729e+00
1.00230323e+00
1.00230949e+00
1.00231605e+00
1.00232284e+00
1.00232983e+00
1.00233697e+00
1.00234421e+00
1.00235150e+00
1.00235879e+00
1.00236603e+00
1.00237318e+00
1.00238018e+00
1.00238700e+00
1.00239360e+00
1.00239993e+00
1.00240597e+00
1.00241168e+00
1.00241705e+00
1.00242203e+00
1.00242663e+00
1.00243086e+00
1.00243466e+00
1.00243804e+00
1.00244107e+00
1.00244372e+00
1.00244593e+00
1.00244780e+00
1.00244943e+00
1.00245069e+00
1.00245158e+00
1.00245233e+00
1.00245290e+00
1.00245313e+00
1.00245321e+00
1.00245326e+00
1.00245314e+00
1.00245284e+00
1.00245241e+00
1.00245185e+00
1.00245134e+00
1.00096575e+00
1.00096543e+00
1.00096824e+00
1.00097407e+00
1.00098276e+00
1.00099417e+00
1.00100805e+00
1.00102422e+00
1.00104251e+00
1.00106266e+00
1.00108445e+00
1.00110767e+00
1.00113210e+00
1.00115751e+00
1.00118371e+00
1.00121050e+00
1.00123772e+00
1.00126520e+00
1.00129279e+00
1.00132040e+00
1.00134790e+00
1.00137523e+00
1.00140232e+00
1.00142914e+00
1.00145565e+00
1.00148185e+00
1.00150775e+00
1.00153335e+00
1.00155868e+00
1.00158376e+00
1.00160864e+00
1.00163334e+00
1.00165791e+00
1.00168236e+00
1.00170673e+00
1.00173103e+00
1.00175528e+00
1.00177948e+00
1.00180363e+00
1.00182770e+00
1.00185167e+00
1.00187550e+00
1.00189915e+00
1.00192255e+00
1.00194564e+00
1.00196835e+00
1.00199060e+00
1.00201230e+00
1.00203339e+00
1.00205376e+00
1.00207334e+00
1.00209206e+00
1.00210984e+00
1.00212662e+00
1.00214234e+00
1.00215696e+00
1.00217046e+00
1.00218281e+00
1.00219402e+00
1.00220409e+00
1.00221305e+00
1.00222093e+00
1.00222780e+00
1.00223371e+00
1.00223874e+00