# vtk DataFile Version 2.0
LBM Flow Field - Timestep 1790
ASCII
DATASET STRUCTURED_POINTS
DIMENSIONS 128 128 1
ORIGIN 0.0 0.0 0.0
SPACING 1.0 1.0 1.0
POINT_DATA 16384
SCALARS density double 1
LOOKUP_TABLE default
1.00436345e+00
1.00432736e+00
1.00427864e+00
1.00427224e+00
1.00425086e+00
1.00421199e+00
1.00417463e+00
1.00413849e+00
1.00409237e+00
1.00404119e+00
1.00398754e+00
1.00392996e+00
1.00386735e+00
1.00380205e+00
1.00373447e+00
1.00366494e+00
1.00359422e+00
1.00352372e+00
1.00345413e+00
1.00338633e+00
1.00332134e+00
1.00326016e+00
1.00320343e+00
1.00315183e+00
1.00310598e+00
1.00306625e+00
1.00303274e+00
1.00300550e+00
1.00298435e+00
1.00296885e+00
1.00295838e+00
1.00295217e+00
1.00294923e+00
1.00294846e+00
1.00294862e+00
1.00294841e+00
1.00294648e+00
1.00294152e+00
1.00293227e+00
1.00291760e+00
1.00289654e+00
1.00286832e+00
1.00283241e+00
1.00278852e+00
1.00273663e+00
1.00267695e+00
1.00260991e+00
1.00253611e+00
1.00245631e+00
1.00237132e+00
1.00228203e+00
1.00218929e+00
1.00209390e+00
1.00199656e+00
1.00189789e+00
1.00179834e+00
1.00169824e+00
1.00159779e+00
1.00149706e+00
1.00139602e+00
1.00129454e+00
1.00119245e+00
1.00108952e+00
1.00098552e+00
1.00088021e+00
1.00077342e+00
1.00066498e+00
1.00055481e+00
1.00044293e+00
1.00032941e+00
1.00021447e+00
1.00009841e+00
9.99981655e-01
9.99864748e-01
9.99748341e-01
9.99633192e-01
9.99520147e-01
9.99410121e-01
9.99304077e-01
9.99202993e-01
9.99107830e-01
9.99019496e-01
9.98938808e-01
9.98866464e-01
9.98802998e-01
9.98748760e-01
9.98703901e-01
9.98668355e-01
9.98641835e-01
9.98623849e-01
9.98613720e-01
9.98610606e-01
9.98613528e-01
9.98621433e-01
9.98633209e-01
9.98647738e-01
9.98663922e-01
9.98680728e-01
9.98697182e-01
9.98712435e-01
9.98725697e-01
9.98736252e-01
9.98743495e-01
9.98746941e-01
9.98745980e-01
9.98740091e-01
9.98728956e-01
9.98712171e-01
9.98689001e-01
9.98659269e-01
9.98622989e-01
9.98579687e-01
9.98528899e-01
9.98471675e-01
9.98408419e-01
9.98338867e-01
9.98263997e-01
9.98186968e-01
9.98107530e-01
9.98025909e-01
9.97946107e-01
9.97873475e-01
9.97801354e-01
9.97732185e-01
9.97680671e-01
9.97647734e-01
9.97587972e-01
9.97546358e-01
1.00432477e+00
1.00431416e+00
1.00427183e+00
1.00425593e+00
1.00423317e+00
1.00420148e+00
1.00416313e+00
1.00412548e+00
1.00408097e+00
1.00403191e+00
1.00397820e+00
1.00392151e+00
1.00386033e+00
1.00379629e+00
1.00372961e+00
1.00366141e+00
1.00359200e+00
1.00352270e+00
1.00345424e+00
1.00338765e+00
1.00332371e+00
1.00326346e+00
1.00320756e+00
1.00315669e+00
1.00311137e+00
1.00307200e+00
1.00303872e+00
1.00301155e+00
1.00299027e+00
1.00297450e+00
1.00296363e+00
1.00295688e+00
1.00295331e+00
1.00295184e+00
1.00295126e+00
1.00295030e+00
1.00294766e+00
1.00294204e+00
1.00293222e+00
1.00291710e+00
1.00289572e+00
1.00286732e+00
1.00283138e+00
1.00278760e+00
1.00273593e+00
1.00267657e+00
1.00260992e+00
1.00253654e+00
1.00245717e+00
1.00237259e+00
1.00228365e+00
1.00219120e+00
1.00209600e+00
1.00199878e+00
1.00190012e+00
1.00180049e+00
1.00170023e+00
1.00159955e+00
1.00149853e+00
1.00139714e+00
1.00129529e+00
1.00119281e+00
1.00108948e+00
1.00098510e+00
1.00087944e+00
1.00077232e+00
1.00066360e+00
1.00055323e+00
1.00044120e+00
1.00032762e+00
1.00021271e+00
1.00009677e+00
9.99980230e-01
9.99863638e-01
9.99747640e-01
9.99632981e-01
9.99520492e-01
9.99411071e-01
9.99305653e-01
9.99205189e-01
9.99110609e-01
9.99022789e-01
9.98942515e-01
9.98870455e-01
9.98807118e-01
9.98752837e-01
9.98707751e-01
9.98671789e-01
9.98644671e-01
9.98625923e-01
9.98614886e-01
9.98610748e-01
9.98612567e-01
9.98619327e-01
9.98629955e-01
9.98643371e-01
9.98658505e-01
9.98674365e-01
9.98690000e-01
9.98704566e-01
9.98717270e-01
9.98727450e-01
9.98734473e-01
9.98737803e-01
9.98736855e-01
9.98731212e-01
9.98720395e-01
9.98703968e-01
9.98681379e-01
9.98652513e-01
9.98616990e-01
9.98574589e-01
9.98525143e-01
9.98469431e-01
9.98407296e-01
9.98339468e-01
9.98266784e-01
9.98191511e-01
9.98113188e-01
9.98034545e-01
9.97957203e-01
9.97884922e-01
9.97813530e-01
9.97750767e-01
9.97698632e-01
9.97659781e-01
9.97606067e-01
9.97585802e-01
1.00427050e+00
1.00426665e+00
1.00427176e+00
1.00423961e+00
1.00420454e+00
1.00418268e+00
1.00415022e+00
1.00410758e+00
1.00406422e+00
1.00401848e+00
1.00396594e+00
1.00390942e+00
1.00385034e+00
1.00378806e+00
1.00372279e+00
1.00365607e+00
1.00358858e+00
1.00352088e+00
1.00345394e+00
1.00338892e+00
1.00332654e+00
1.00326755e+00
1.00321283e+00
1.00316304e+00
1.00311860e+00
1.00307987e+00
1.00304709e+00
1.00302022e+00
1.00299904e+00
1.00298318e+00
1.00297208e+00
1.00296495e+00
1.00296089e+00
1.00295883e+00
1.00295761e+00
1.00295598e+00
1.00295269e+00
1.00294646e+00
1.00293610e+00
1.00292052e+00
1.00289879e+00
1.00287015e+00
1.00283408e+00
1.00279027e+00
1.00273866e+00
1.00267941e+00
1.00261292e+00
1.00253971e+00
1.00246049e+00
1.00237604e+00
1.00228718e+00
1.00219473e+00
1.00209947e+00
1.00200211e+00
1.00190324e+00
1.00180333e+00
1.00170274e+00
1.00160166e+00
1.00150021e+00
1.00139837e+00
1.00129606e+00
1.00119311e+00
1.00108933e+00
1.00098452e+00
1.00087846e+00
1.00077099e+00
1.00066199e+00
1.00055138e+00
1.00043920e+00
1.00032556e+00
1.00021067e+00
1.00009485e+00
9.99978525e-01
9.99862239e-01
9.99746629e-01
9.99632430e-01
9.99520455e-01
9.99411576e-01
9.99306705e-01
9.99206759e-01
9.99112635e-01
9.99025176e-01
9.98945137e-01
9.98873149e-01
9.98809702e-01
9.98755110e-01
9.98709496e-01
9.98672789e-01
9.98644720e-01
9.98624831e-01
9.98612485e-01
9.98606907e-01
9.98607205e-01
9.98612400e-01
9.98621465e-01
9.98633374e-01
9.98647112e-01
9.98661713e-01
9.98676277e-01
9.98689970e-01
9.98702043e-01
9.98711857e-01
9.98718768e-01
9.98722174e-01
9.98721636e-01
9.98716704e-01
9.98706712e-01
9.98691254e-01
9.98670172e-01
9.98642917e-01
9.98608837e-01
9.98568263e-01
9.98521401e-01
9.98467637e-01
9.98407282e-01
9.98342297e-01
9.98272866e-01
9.98198706e-01
9.98122594e-01
9.98048267e-01
9.97973339e-01
9.97898579e-01
9.97832899e-01
9.97778443e-01
9.97718601e-01
9.97667412e-01
9.97652898e-01
9.97639108e-01
1.00425930e+00
1.00424693e+00
1.00423471e+00
1.00421022e+00
1.00418746e+00
1.00415987e+00
1.00412549e+00
1.00408745e+00
1.00404621e+00
1.00399973e+00
1.00394912e+00
1.00389501e+00
1.00383745e+00
1.00377677e+00
1.00371387e+00
1.00364930e+00
1.00358386e+00
1.00351838e+00
1.00345375e+00
1.00339079e+00
1.00333041e+00
1.00327337e+00
1.00322040e+00
1.00317210e+00
1.00312896e+00
1.00309131e+00
1.00305932e+00
1.00303296e+00
1.00301206e+00
1.00299622e+00
1.00298489e+00
1.00297734e+00
1.00297267e+00
1.00296986e+00
1.00296779e+00
1.00296525e+00
1.00296102e+00
1.00295388e+00
1.00294267e+00
1.00292634e+00
1.00290395e+00
1.00287479e+00
1.00283832e+00
1.00279424e+00
1.00274247e+00
1.00268316e+00
1.00261666e+00
1.00254349e+00
1.00246431e+00
1.00237989e+00
1.00229102e+00
1.00219850e+00
1.00210311e+00
1.00200553e+00
1.00190637e+00
1.00180611e+00
1.00170508e+00
1.00160354e+00
1.00150157e+00
1.00139921e+00
1.00129635e+00
1.00119288e+00
1.00108860e+00
1.00098332e+00
1.00087686e+00
1.00076905e+00
1.00065978e+00
1.00054901e+00
1.00043677e+00
1.00032317e+00
1.00020843e+00
1.00009287e+00
9.99976927e-01
9.99861116e-01
9.99746068e-01
9.99632498e-01
9.99521194e-01
9.99412997e-01
9.99308782e-01
9.99209429e-01
9.99115793e-01
9.99028674e-01
9.98948785e-01
9.98876727e-01
9.98812955e-01
9.98757762e-01
9.98711262e-01
9.98673384e-01
9.98643870e-01
9.98622284e-01
9.98608034e-01
9.98600389e-01
9.98598510e-01
9.98601482e-01
9.98608349e-01
9.98618146e-01
9.98629925e-01
9.98642772e-01
9.98655844e-01
9.98668357e-01
9.98679594e-01
9.98688891e-01
9.98695670e-01
9.98699367e-01
9.98699448e-01
9.98695398e-01
9.98686755e-01
9.98673024e-01
9.98653764e-01
9.98628559e-01
9.98597147e-01
9.98559290e-01
9.98514933e-01
9.98464170e-01
9.98407467e-01
9.98345303e-01
9.98278590e-01
9.98208381e-01
9.98136005e-01
9.98062961e-01
9.97991497e-01
9.97922214e-01
9.97856941e-01
9.97799795e-01
9.97751234e-01
9.97706543e-01
9.97678832e-01
9.97659491e-01
1.00423341e+00
1.00421886e+00
1.00419479e+00
1.00418274e+00
1.00416481e+00
1.00413024e+00
1.00409724e+00
1.00406465e+00
1.00402376e+00
1.00397730e+00
1.00392940e+00
1.00387785e+00
1.00382192e+00
1.00376347e+00
1.00370333e+00
1.00364138e+00
1.00357847e+00
1.00351572e+00
1.00345387e+00
1.00339351e+00
1.00333559e+00
1.00328095e+00
1.00323015e+00
1.00318372e+00
1.00314221e+00
1.00310591e+00
1.00307491e+00
1.00304922e+00
1.00302867e+00
1.00301288e+00
1.00300128e+00
1.00299320e+00
1.00298778e+00
1.00298404e+00
1.00298090e+00
1.00297721e+00
1.00297179e+00
1.00296349e+00
1.00295118e+00
1.00293385e+00
1.00291060e+00
1.00288072e+00
1.00284369e+00
1.00279919e+00
1.00274715e+00
1.00268767e+00
1.00262108e+00
1.00254788e+00
1.00246869e+00
1.00238423e+00
1.00229529e+00
1.00220264e+00
1.00210704e+00
1.00200918e+00
1.00190965e+00
1.00180894e+00
1.00170740e+00
1.00160529e+00
1.00150273e+00
1.00139974e+00
1.00129627e+00
1.00119220e+00
1.00108736e+00
1.00098157e+00
1.00087467e+00
1.00076651e+00
1.00065699e+00
1.00054607e+00
1.00043380e+00
1.00032031e+00
1.00020581e+00
1.00009062e+00
9.99975164e-01
9.99859962e-01
9.99745619e-01
9.99632826e-01
9.99522339e-01
9.99414962e-01
9.99311526e-01
9.99212861e-01
9.99119774e-01
9.99033014e-01
9.98953246e-01
9.98881028e-01
9.98816779e-01
9.98760767e-01
9.98713095e-01
9.98673695e-01
9.98642322e-01
9.98618573e-01
9.98601906e-01
9.98591647e-01
9.98587022e-01
9.98587199e-01
9.98591307e-01
9.98598454e-01
9.98607773e-01
9.98618431e-01
9.98629635e-01
9.98640664e-01
9.98650843e-01
9.98659517e-01
9.98666127e-01
9.98670163e-01
9.98671016e-01
9.98668120e-01
9.98661134e-01
9.98649519e-01
9.98632557e-01
9.98609994e-01
9.98581802e-01
9.98547282e-01
9.98506114e-01
9.98459147e-01
9.98406710e-01
9.98348151e-01
9.98284829e-01
9.98219315e-01
9.98151434e-01
9.98080625e-01
9.98012062e-01
9.97949315e-01
9.97887176e-01
9.97826666e-01
9.97783224e-01
9.97749888e-01
9.97714699e-01
9.97693931e-01
1.00419092e+00
1.00418350e+00
1.00416896e+00
1.00415068e+00
1.00412583e+00
1.00409990e+00
1.00407149e+00
1.00403551e+00
1.00399548e+00
1.00395362e+00
1.00390746e+00
1.00385696e+00
1.00380396e+00
1.00374867e+00
1.00369099e+00
1.00363191e+00
1.00357229e+00
1.00351266e+00
1.00345377e+00
1.00339652e+00
1.00334158e+00
1.00328962e+00
1.00324130e+00
1.00319715e+00
1.00315755e+00
1.00312277e+00
1.00309298e+00
1.00306812e+00
1.00304800e+00
1.00303227e+00
1.00302041e+00
1.00301176e+00
1.00300549e+00
1.00300069e+00
1.00299633e+00
1.00299133e+00
1.00298455e+00
1.00297490e+00
1.00296130e+00
1.00294278e+00
1.00291849e+00
1.00288773e+00
1.00284999e+00
1.00280495e+00
1.00275250e+00
1.00269275e+00
1.00262599e+00
1.00255268e+00
1.00247341e+00
1.00238886e+00
1.00229979e+00
1.00220696e+00
1.00211110e+00
1.00201290e+00
1.00191294e+00
1.00181172e+00
1.00170961e+00
1.00160687e+00
1.00150364e+00
1.00139997e+00
1.00129583e+00
1.00119110e+00
1.00108565e+00
1.00097933e+00
1.00087197e+00
1.00076345e+00
1.00065369e+00
1.00054266e+00
1.00043042e+00
1.00031709e+00
1.00020291e+00
1.00008818e+00
9.99973323e-01
9.99858837e-01
9.99745309e-01
9.99633400e-01
9.99523829e-01
9.99417356e-01
9.99314763e-01
9.99216827e-01
9.99124297e-01
9.99037868e-01
9.98958155e-01
9.98885664e-01
9.98820780e-01
9.98763747e-01
9.98714653e-01
9.98673431e-01
9.98639864e-01
9.98613586e-01
9.98594100e-01
9.98580803e-01
9.98573006e-01
9.98569962e-01
9.98570885e-01
9.98574981e-01
9.98581475e-01
9.98589617e-01
9.98598686e-01
9.98608005e-01
9.98616960e-01
9.98624967e-01
9.98631423e-01
9.98635785e-01
9.98637563e-01
9.98636195e-01
9.98631067e-01
9.98621715e-01
9.98607711e-01
9.98588468e-01
9.98563511e-01
9.98532768e-01
9.98496119e-01
9.98453295e-01
9.98404627e-01
9.98351072e-01
9.98292931e-01
9.98230725e-01
9.98166674e-01
9.98102424e-01
9.98037474e-01
9.97974573e-01
9.97918285e-01
9.97866621e-01
9.97819736e-01
9.97783349e-01
9.97756148e-01
9.97741438e-01
1.00415071e+00
1.00414228e+00
1.00413351e+00
1.00411323e+00
1.00408965e+00
1.00406808e+00
1.00403850e+00
1.00400274e+00
1.00396662e+00
1.00392696e+00
1.00388177e+00
1.00383393e+00
1.00378421e+00
1.00373165e+00
1.00367688e+00
1.00362122e+00
1.00356507e+00
1.00350883e+00
1.00345337e+00
1.00339954e+00
1.00334787e+00
1.00329895e+00
1.00325343e+00
1.00321180e+00
1.00317434e+00
1.00314133e+00
1.00311289e+00
1.00308896e+00
1.00306934e+00
1.00305371e+00
1.00304157e+00
1.00303227e+00
1.00302507e+00
1.00301909e+00
1.00301336e+00
1.00300687e+00
1.00299855e+00
1.00298736e+00
1.00297230e+00
1.00295244e+00
1.00292695e+00
1.00289517e+00
1.00285660e+00
1.00281092e+00
1.00275801e+00
1.00269794e+00
1.00263097e+00
1.00255752e+00
1.00247815e+00
1.00239350e+00
1.00230430e+00
1.00221127e+00
1.00211513e+00
1.00201656e+00
1.00191614e+00
1.00181438e+00
1.00171165e+00
1.00160822e+00
1.00150428e+00
1.00139988e+00
1.00129500e+00
1.00118958e+00
1.00108349e+00
1.00097660e+00
1.00086876e+00
1.00075989e+00
1.00064990e+00
1.00053878e+00
1.00042660e+00
1.00031350e+00
1.00019970e+00
1.00008551e+00
9.99971339e-01
9.99857667e-01
9.99745056e-01
9.99634133e-01
9.99525575e-01
9.99420094e-01
9.99318417e-01
9.99221262e-01
9.99129317e-01
9.99043218e-01
9.98963519e-01
9.98890681e-01
9.98825047e-01
9.98766834e-01
9.98716120e-01
9.98672843e-01
9.98636811e-01
9.98607701e-01
9.98585074e-01
9.98568405e-01
9.98557094e-01
9.98550485e-01
9.98547895e-01
9.98548640e-01
9.98552031e-01
9.98557405e-01
9.98564138e-01
9.98571614e-01
9.98579240e-01
9.98586494e-01
9.98592816e-01
9.98597611e-01
9.98600379e-01
9.98600623e-01
9.98597644e-01
9.98590864e-01
9.98579945e-01
9.98564283e-01
9.98543147e-01
9.98516517e-01
9.98484448e-01
9.98446350e-01
9.98402268e-01
9.98353598e-01
9.98300778e-01
9.98243370e-01
9.98183346e-01
9.98124043e-01
9.98064711e-01
9.98004766e-01
9.97950588e-01
9.97904644e-01
9.97860703e-01
9.97824442e-01
9.97802766e-01
9.97788404e-01
1.00411410e+00
1.00410437e+00
1.00408986e+00
1.00407386e+00
1.00405545e+00
1.00403027e+00
1.00400074e+00
1.00397057e+00
1.00393595e+00
1.00389596e+00
1.00385395e+00
1.00380985e+00
1.00376226e+00
1.00371239e+00
1.00366145e+00
1.00360937e+00
1.00355657e+00
1.00350406e+00
1.00345246e+00
1.00340219e+00
1.00335396e+00
1.00330840e+00
1.00326594e+00
1.00322695e+00
1.00319182e+00
1.00316075e+00
1.00313377e+00
1.00311084e+00
1.00309178e+00
1.00307627e+00
1.00306382e+00
1.00305385e+00
1.00304564e+00
1.00303838e+00
1.00303117e+00
1.00302306e+00
1.00301307e+00
1.00300021e+00
1.00298355e+00
1.00296221e+00
1.00293541e+00
1.00290251e+00
1.00286302e+00
1.00281663e+00
1.00276319e+00
1.00270277e+00
1.00263557e+00
1.00256198e+00
1.00248251e+00
1.00239778e+00
1.00230844e+00
1.00221523e+00
1.00211883e+00
1.00201989e+00
1.00191901e+00
1.00181669e+00
1.00171332e+00
1.00160920e+00
1.00150452e+00
1.00139935e+00
1.00129373e+00
1.00118759e+00
1.00108084e+00
1.00097337e+00
1.00086506e+00
1.00075584e+00
1.00064565e+00
1.00053448e+00
1.00042242e+00
1.00030961e+00
1.00019626e+00
1.00008270e+00
9.99969302e-01
9.99856537e-01
9.99744936e-01
9.99635087e-01
9.99527624e-01
9.99423206e-01
9.99322501e-01
9.99226165e-01
9.99134822e-01
9.99049042e-01
9.98969323e-01
9.98896075e-01
9.98829602e-01
9.98770090e-01
9.98717612e-01
9.98672117e-01
9.98633435e-01
9.98601289e-01
9.98575312e-01
9.98555057e-01
9.98540009e-01
9.98529621e-01
9.98523318e-01
9.98520517e-01
9.98520636e-01
9.98523099e-01
9.98527362e-01
9.98532897e-01
9.98539154e-01
9.98545597e-01
9.98551744e-01
9.98557058e-01
9.98560899e-01
9.98562716e-01
9.98562027e-01
9.98558141e-01
9.98550323e-01
9.98538207e-01
9.98521434e-01
9.98499282e-01
9.98471426e-01
9.98438329e-01
9.98399975e-01
9.98355973e-01
9.98307494e-01
9.98256311e-01
9.98202101e-01
9.98145466e-01
9.98090404e-01
9.98038043e-01
9.97986655e-01
9.97940239e-01
9.97902447e-01
9.97871270e-01
9.97846684e-01
9.97832378e-01
1.00406999e+00
1.00406149e+00
1.00404811e+00
1.00403396e+00
1.00401528e+00
1.00399052e+00
1.00396455e+00
1.00393565e+00
1.00390116e+00
1.00386414e+00
1.00382544e+00
1.00378323e+00
1.00373829e+00
1.00369212e+00
1.00364466e+00
1.00359597e+00
1.00354699e+00
1.00349842e+00
1.00345062e+00
1.00340412e+00
1.00335958e+00
1.00331747e+00
1.00327816e+00
1.00324201e+00
1.00320933e+00
1.00318025e+00
1.00315480e+00
1.00313294e+00
1.00311447e+00
1.00309906e+00
1.00308629e+00
1.00307559e+00
1.00306631e+00
1.00305768e+00
1.00304890e+00
1.00303907e+00
1.00302729e+00
1.00301266e+00
1.00299429e+00
1.00297137e+00
1.00294318e+00
1.00290909e+00
1.00286864e+00
1.00282151e+00
1.00276755e+00
1.00270677e+00
1.00263937e+00
1.00256567e+00
1.00248615e+00
1.00240136e+00
1.00231195e+00
1.00221860e+00
1.00212196e+00
1.00202270e+00
1.00192138e+00
1.00181852e+00
1.00171453e+00
1.00160971e+00
1.00150427e+00
1.00139834e+00
1.00129196e+00
1.00118509e+00
1.00107768e+00
1.00096963e+00
1.00086087e+00
1.00075132e+00
1.00064095e+00
1.00052978e+00
1.00041789e+00
1.00030542e+00
1.00019261e+00
1.00007975e+00
9.99967215e-01
9.99855445e-01
9.99744943e-01
9.99636256e-01
9.99529970e-01
9.99426688e-01
9.99327017e-01
9.99231548e-01
9.99140837e-01
9.99055392e-01
9.98975649e-01
9.98901967e-01
9.98834609e-01
9.98773740e-01
9.98719421e-01
9.98671614e-01
9.98630179e-01
9.98594892e-01
9.98565452e-01
9.98541494e-01
9.98522602e-01
9.98508335e-01
9.98498223e-01
9.98491786e-01
9.98488555e-01
9.98488056e-01
9.98489800e-01
9.98493327e-01
9.98498182e-01
9.98503843e-01
9.98509783e-01
9.98515529e-01
9.98520495e-01
9.98523993e-01
9.98525476e-01
9.98524381e-01
9.98519912e-01
9.98511450e-01
9.98498693e-01
9.98481087e-01
9.98458038e-01
9.98429714e-01
9.98396454e-01
9.98357973e-01
9.98314636e-01
9.98268187e-01
9.98219508e-01
9.98168327e-01
9.98116976e-01
9.98068660e-01
9.98022496e-01
9.97979182e-01
9.97943730e-01
9.97915553e-01
9.97893027e-01
9.97880699e-01
1.00402439e+00
1.00401797e+00
1.00400731e+00
1.00399166e+00
1.00397239e+00
1.00395160e+00
1.00392719e+00
1.00389745e+00
1.00386565e+00
1.00383218e+00
1.00379478e+00
1.00375465e+00
1.00371352e+00
1.00367072e+00
1.00362621e+00
1.00358124e+00
1.00353635e+00
1.00349159e+00
1.00344757e+00
1.00340501e+00
1.00336423e+00
1.00332557e+00
1.00328947e+00
1.00325625e+00
1.00322606e+00
1.00319899e+00
1.00317513e+00
1.00315436e+00
1.00313647e+00
1.00312117e+00
1.00310805e+00
1.00309660e+00
1.00308619e+00
1.00307616e+00
1.00306574e+00
1.00305412e+00
1.00304049e+00
1.00302401e+00
1.00300387e+00
1.00297933e+00
1.00294969e+00
1.00291439e+00
1.00287296e+00
1.00282508e+00
1.00277060e+00
1.00270950e+00
1.00264193e+00
1.00256818e+00
1.00248867e+00
1.00240390e+00
1.00231449e+00
1.00222106e+00
1.00212427e+00
1.00202473e+00
1.00192303e+00
1.00181967e+00
1.00171508e+00
1.00160959e+00
1.00150342e+00
1.00139674e+00
1.00128960e+00
1.00118202e+00
1.00107397e+00
1.00096537e+00
1.00085618e+00
1.00074634e+00
1.00063585e+00
1.00052472e+00
1.00041307e+00
1.00030103e+00
1.00018882e+00
1.00007675e+00
9.99965168e-01
9.99854484e-01
9.99745169e-01
9.99637728e-01
9.99532697e-01
9.99430621e-01
9.99332044e-01
9.99237489e-01
9.99147448e-01
9.99062361e-01
9.98982608e-01
9.98908493e-01
9.98840245e-01
9.98778007e-01
9.98721834e-01
9.98671697e-01
9.98627495e-01
9.98589057e-01
9.98556146e-01
9.98528484e-01
9.98505757e-01
9.98487621e-01
9.98473716e-01
9.98463672e-01
9.98457110e-01
9.98453656e-01
9.98452913e-01
9.98454455e-01
9.98457873e-01
9.98462734e-01
9.98468499e-01
9.98474608e-01
9.98480570e-01
9.98485760e-01
9.98489382e-01
9.98490830e-01
9.98489611e-01
9.98484895e-01
9.98475899e-01
9.98462487e-01
9.98444436e-01
9.98420962e-01
9.98392119e-01
9.98359008e-01
9.98321626e-01
9.98279596e-01
9.98235089e-01
9.98190189e-01
9.98144011e-01
9.98097847e-01
9.98055961e-01
9.98018490e-01
9.97984543e-01
9.97956961e-01
9.97938218e-01
9.97928416e-01
1.00398012e+00
1.00397333e+00
1.00396324e+00
1.00394881e+00
1.00393145e+00
1.00391138e+00
1.00388697e+00
1.00385964e+00
1.00383055e+00
1.00379803e+00
1.00376265e+00
1.00372603e+00
1.00368774e+00
1.00364760e+00
1.00360670e+00
1.00356559e+00
1.00352430e+00
1.00348331e+00
1.00344329e+00
1.00340455e+00
1.00336740e+00
1.00333224e+00
1.00329938e+00
1.00326902e+00
1.00324127e+00
1.00321626e+00
1.00319397e+00
1.00317425e+00
1.00315693e+00
1.00314173e+00
1.00312824e+00
1.00311600e+00
1.00310445e+00
1.00309297e+00
1.00308087e+00
1.00306743e+00
1.00305192e+00
1.00303356e+00
1.00301163e+00
1.00298544e+00
1.00295435e+00
1.00291783e+00
1.00287544e+00
1.00282686e+00
1.00277191e+00
1.00271055e+00
1.00264289e+00
1.00256917e+00
1.00248975e+00
1.00240511e+00
1.00231578e+00
1.00222238e+00
1.00212551e+00
1.00202578e+00
1.00192376e+00
1.00181997e+00
1.00171484e+00
1.00160872e+00
1.00150186e+00
1.00139446e+00
1.00128661e+00
1.00117835e+00
1.00106968e+00
1.00096057e+00
1.00085098e+00
1.00074091e+00
1.00063034e+00
1.00051934e+00
1.00040799e+00
1.00029645e+00
1.00018495e+00
1.00007376e+00
9.99963216e-01
9.99853712e-01
9.99745677e-01
9.99639574e-01
9.99535883e-01
9.99435092e-01
9.99337681e-01
9.99244108e-01
9.99154795e-01
9.99070119e-01
9.98990402e-01
9.98915903e-01
9.98846811e-01
9.98783250e-01
9.98725273e-01
9.98672869e-01
9.98625970e-01
9.98584456e-01
9.98548165e-01
9.98516903e-01
9.98490447e-01
9.98468553e-01
9.98450968e-01
9.98437432e-01
9.98427649e-01
9.98421319e-01
9.98418146e-01
9.98417777e-01
9.98419790e-01
9.98423785e-01
9.98429322e-01
9.98435801e-01
9.98442607e-01
9.98449202e-01
9.98454882e-01
9.98458814e-01
9.98460375e-01
9.98459002e-01
9.98453894e-01
9.98444441e-01
9.98430494e-01
9.98411790e-01
9.98387937e-01
9.98359297e-01
9.98326670e-01
9.98290229e-01
9.98250521e-01
9.98209454e-01
9.98168192e-01
9.98127022e-01
9.98088218e-01
9.98053600e-01
9.98023203e-01
9.97998533e-01
9.97981437e-01
9.97972210e-01
1.00393635e+00
1.00393004e+00
1.00391926e+00
1.00390628e+00
1.00389032e+00
1.00387004e+00
1.00384711e+00
1.00382235e+00
1.00379414e+00
1.00376297e+00
1.00373071e+00
1.00369673e+00
1.00366057e+00
1.00362360e+00
1.00358639e+00
1.00354860e+00
1.00351076e+00
1.00347365e+00
1.00343745e+00
1.00340232e+00
1.00336873e+00
1.00333701e+00
1.00330726e+00
1.00327965e+00
1.00325432e+00
1.00323131e+00
1.00321050e+00
1.00319181e+00
1.00317505e+00
1.00315991e+00
1.00314603e+00
1.00313299e+00
1.00312029e+00
1.00310736e+00
1.00309358e+00
1.00307833e+00
1.00306093e+00
1.00304070e+00
1.00301699e+00
1.00298916e+00
1.00295666e+00
1.00291896e+00
1.00287564e+00
1.00282641e+00
1.00277106e+00
1.00270952e+00
1.00264186e+00
1.00256827e+00
1.00248907e+00
1.00240466e+00
1.00231554e+00
1.00222227e+00
1.00212544e+00
1.00202562e+00
1.00192339e+00
1.00181924e+00
1.00171364e+00
1.00160696e+00
1.00149947e+00
1.00139140e+00
1.00128288e+00
1.00117399e+00
1.00106475e+00
1.00095518e+00
1.00084527e+00
1.00073503e+00
1.00062447e+00
1.00051366e+00
1.00040271e+00
1.00029178e+00
1.00018108e+00
1.00007087e+00
9.99961482e-01
9.99853266e-01
9.99746617e-01
9.99641950e-01
9.99539696e-01
9.99440282e-01
9.99344122e-01
9.99251609e-01
9.99163102e-01
9.99078914e-01
9.98999311e-01
9.98924509e-01
9.98854664e-01
9.98789881e-01
9.98730215e-01
9.98675674e-01
9.98626224e-01
9.98581798e-01
9.98542307e-01
9.98507633e-01
9.98477646e-01
9.98452202e-01
9.98431139e-01
9.98414287e-01
9.98401457e-01
9.98392421e-01
9.98386919e-01
9.98384683e-01
9.98385357e-01
9.98388499e-01
9.98393670e-01
9.98400384e-01
9.98407959e-01
9.98415702e-01
9.98423045e-01
9.98429236e-01
9.98433340e-01
9.98434758e-01
9.98433060e-01
9.98427401e-01
9.98417117e-01
9.98402432e-01
9.98383332e-01
9.98359162e-01
9.98330516e-01
9.98298954e-01
9.98264450e-01
9.98227086e-01
9.98189579e-01
9.98153482e-01
9.98118234e-01
9.98085681e-01
9.98058824e-01
9.98037115e-01
9.98020390e-01
9.98012351e-01
1.00389177e+00
1.00388624e+00
1.00387679e+00
1.00386420e+00
1.00384842e+00
1.00382957e+00
1.00380836e+00
1.00378417e+00
1.00375723e+00
1.00372874e+00
1.00369850e+00
1.00366621e+00
1.00363298e+00
1.00359927e+00
1.00356484e+00
1.00353021e+00
1.00349605e+00
1.00346248e+00
1.00342968e+00
1.00339809e+00
1.00336796e+00
1.00333941e+00
1.00331259e+00
1.00328765e+00
1.00326462e+00
1.00324344e+00
1.00322406e+00
1.00320635e+00
1.00319008e+00
1.00317497e+00
1.00316069e+00
1.00314686e+00
1.00313301e+00
1.00311863e+00
1.00310321e+00
1.00308617e+00
1.00306691e+00
1.00304485e+00
1.00301941e+00
1.00299001e+00
1.00295613e+00
1.00291732e+00
1.00287317e+00
1.00282337e+00
1.00276771e+00
1.00270609e+00
1.00263855e+00
1.00256522e+00
1.00248635e+00
1.00240230e+00
1.00231352e+00
1.00222051e+00
1.00212384e+00
1.00202406e+00
1.00192171e+00
1.00181732e+00
1.00171135e+00
1.00160418e+00
1.00149614e+00
1.00138748e+00
1.00127836e+00
1.00116890e+00
1.00105917e+00
1.00094921e+00
1.00083905e+00
1.00072872e+00
1.00061826e+00
1.00050775e+00
1.00039730e+00
1.00028709e+00
1.00017730e+00
1.00006821e+00
9.99960091e-01
9.99853284e-01
9.99748139e-01
9.99645027e-01
9.99544322e-01
9.99446393e-01
9.99351593e-01
9.99260246e-01
9.99172650e-01
9.99089059e-01
9.99009687e-01
9.98934707e-01
9.98864247e-01
9.98798400e-01
9.98737220e-01
9.98680736e-01
9.98628952e-01
9.98581854e-01
9.98539415e-01
9.98501597e-01
9.98468353e-01
9.98439632e-01
9.98415362e-01
9.98395445e-01
9.98379778e-01
9.98368223e-01
9.98360556e-01
9.98356526e-01
9.98355860e-01
9.98358157e-01
9.98362896e-01
9.98369591e-01
9.98377687e-01
9.98386417e-01
9.98395017e-01
9.98402874e-01
9.98409216e-01
9.98413128e-01
9.98414010e-01
9.98411459e-01
9.98404821e-01
9.98393602e-01
9.98377979e-01
9.98358124e-01
9.98333899e-01
9.98305893e-01
9.98275346e-01
9.98242825e-01
9.98209112e-01
9.98175867e-01
9.98144397e-01
9.98115516e-01
9.98090687e-01
9.98070567e-01
9.98056263e-01
9.98049755e-01
1.00384881e+00
1.00384388e+00
1.00383510e+00
1.00382266e+00
1.00380751e+00
1.00379003e+00
1.00376960e+00
1.00374621e+00
1.00372122e+00
1.00369454e+00
1.00366568e+00
1.00363569e+00
1.00360526e+00
1.00357397e+00
1.00354223e+00
1.00351086e+00
1.00347993e+00
1.00344948e+00
1.00341996e+00
1.00339169e+00
1.00336469e+00
1.00333906e+00
1.00331500e+00
1.00329253e+00
1.00327158e+00
1.00325212e+00
1.00323407e+00
1.00321723e+00
1.00320139e+00
1.00318628e+00
1.00317160e+00
1.00315697e+00
1.00314199e+00
1.00312623e+00
1.00310921e+00
1.00309042e+00
1.00306938e+00
1.00304557e+00
1.00301846e+00
1.00298756e+00
1.00295241e+00
1.00291257e+00
1.00286767e+00
1.00281740e+00
1.00276154e+00
1.00269997e+00
1.00263267e+00
1.00255972e+00
1.00248132e+00
1.00239778e+00
1.00230948e+00
1.00221688e+00
1.00212051e+00
1.00202089e+00
1.00191856e+00
1.00181404e+00
1.00170780e+00
1.00160026e+00
1.00149176e+00
1.00138259e+00
1.00127296e+00
1.00116302e+00
1.00105289e+00
1.00094264e+00
1.00083233e+00
1.00072202e+00
1.00061177e+00
1.00050168e+00
1.00039187e+00
1.00028250e+00
1.00017377e+00
1.00006592e+00
9.99959221e-01
9.99853963e-01
9.99750463e-01
9.99649041e-01
9.99550019e-01
9.99453706e-01
9.99360393e-01
9.99270344e-01
9.99183792e-01
9.99100937e-01
9.99021947e-01
9.98946953e-01
9.98876061e-01
9.98809351e-01
9.98746885e-01
9.98688709e-01
9.98634865e-01
9.98585390e-01
9.98540317e-01
9.98499682e-01
9.98463516e-01
9.98431840e-01
9.98404670e-01
9.98381992e-01
9.98363748e-01
9.98349856e-01
9.98340185e-01
9.98334495e-01
9.98332485e-01
9.98333832e-01
9.98338069e-01
9.98344587e-01
9.98352818e-01
9.98362148e-01
9.98371728e-01
9.98380745e-01
9.98388602e-01
9.98394525e-01
9.98397580e-01
9.98397313e-01
9.98393490e-01
9.98385432e-01
9.98372799e-01
9.98356192e-01
9.98335830e-01
9.98311429e-01
9.98284131e-01
9.98255472e-01
9.98225566e-01
9.98195164e-01
9.98166751e-01
9.98141137e-01
9.98118340e-01
9.98099745e-01
9.98087354e-01
9.98081882e-01
1.00380733e+00
1.00380242e+00
1.00379389e+00
1.00378232e+00
1.00376809e+00
1.00375094e+00
1.00373120e+00
1.00370944e+00
1.00368577e+00
1.00366006e+00
1.00363315e+00
1.00360551e+00
1.00357694e+00
1.00354788e+00
1.00351903e+00
1.00349044e+00
1.00346217e+00
1.00343470e+00
1.00340828e+00
1.00338287e+00
1.00335864e+00
1.00333575e+00
1.00331418e+00
1.00329388e+00
1.00327482e+00
1.00325693e+00
1.00324004e+00
1.00322395e+00
1.00320847e+00
1.00319333e+00
1.00317822e+00
1.00316281e+00
1.00314674e+00
1.00312964e+00
1.00311108e+00
1.00309065e+00
1.00306792e+00
1.00304243e+00
1.00301376e+00
1.00298147e+00
1.00294515e+00
1.00290439e+00
1.00285886e+00
1.00280824e+00
1.00275231e+00
1.00269092e+00
1.00262399e+00
1.00255156e+00
1.00247379e+00
1.00239089e+00
1.00230322e+00
1.00221119e+00
1.00211526e+00
1.00201595e+00
1.00191378e+00
1.00180926e+00
1.00170288e+00
1.00159508e+00
1.00148624e+00
1.00137668e+00
1.00126664e+00
1.00115634e+00
1.00104591e+00
1.00093548e+00
1.00082514e+00
1.00071497e+00
1.00060507e+00
1.00049554e+00
1.00038651e+00
1.00027814e+00
1.00017063e+00
1.00006419e+00
9.99959063e-01
9.99855516e-01
9.99753819e-01
9.99654247e-01
9.99557064e-01
9.99462523e-01
9.99370852e-01
9.99282257e-01
9.99196913e-01
9.99114968e-01
9.99036543e-01
9.98961739e-01
9.98890638e-01
9.98823311e-01
9.98759828e-01
9.98700259e-01
9.98644676e-01
9.98593165e-01
9.98545818e-01
9.98502734e-01
9.98464016e-01
9.98429751e-01
9.98400019e-01
9.98374882e-01
9.98354341e-01
9.98338339e-01
9.98326789e-01
9.98319519e-01
9.98316216e-01
9.98316517e-01
9.98320027e-01
9.98326180e-01
9.98334273e-01
9.98343679e-01
9.98353729e-01
9.98363532e-01
9.98372256e-01
9.98379329e-01
9.98384054e-01
9.98385592e-01
9.98383539e-01
9.98377810e-01
9.98368021e-01
9.98353931e-01
9.98336136e-01
9.98315184e-01
9.98291237e-01
9.98265104e-01
9.98238241e-01
9.98211440e-01
9.98185520e-01
9.98161723e-01
9.98141452e-01
9.98125081e-01
9.98113466e-01
9.98108388e-01
1.00376711e+00
1.00376257e+00
1.00375423e+00
1.00374310e+00
1.00372940e+00
1.00371281e+00
1.00369404e+00
1.00367333e+00
1.00365054e+00
1.00362624e+00
1.00360111e+00
1.00357504e+00
1.00354828e+00
1.00352155e+00
1.00349503e+00
1.00346869e+00
1.00344299e+00
1.00341822e+00
1.00339435e+00
1.00337147e+00
1.00334978e+00
1.00332926e+00
1.00330982e+00
1.00329144e+00
1.00327407e+00
1.00325751e+00
1.00324160e+00
1.00322616e+00
1.00321096e+00
1.00319572e+00
1.00318016e+00
1.00316399e+00
1.00314689e+00
1.00312850e+00
1.00310849e+00
1.00308651e+00
1.00306219e+00
1.00303515e+00
1.00300504e+00
1.00297148e+00
1.00293410e+00
1.00289255e+00
1.00284651e+00
1.00279568e+00
1.00273980e+00
1.00267871e+00
1.00261230e+00
1.00254054e+00
1.00246353e+00
1.00238145e+00
1.00229457e+00
1.00220325e+00
1.00210792e+00
1.00200907e+00
1.00190721e+00
1.00180284e+00
1.00169647e+00
1.00158855e+00
1.00147950e+00
1.00136967e+00
1.00125937e+00
1.00114882e+00
1.00103824e+00
1.00092776e+00
1.00081753e+00