# vtk DataFile Version 2.0
LBM Flow Field - Timestep 2940
ASCII
DATASET STRUCTURED_POINTS
DIMENSIONS 128 128 1
ORIGIN 0.0 0.0 0.0
SPACING 1.0 1.0 1.0
POINT_DATA 16384
SCALARS density double 1
LOOKUP_TABLE default
1.00243896e+00
1.00244636e+00
1.00245471e+00
1.00244189e+00
1.00242959e+00
1.00242348e+00
1.00241172e+00
1.00239490e+00
1.00237984e+00
1.00236473e+00
1.00234605e+00
1.00232655e+00
1.00230784e+00
1.00228833e+00
1.00226797e+00
1.00224842e+00
1.00222977e+00
1.00221165e+00
1.00219471e+00
1.00217965e+00
1.00216639e+00
1.00215506e+00
1.00214608e+00
1.00213957e+00
1.00213542e+00
1.00213365e+00
1.00213423e+00
1.00213691e+00
1.00214140e+00
1.00214739e+00
1.00215451e+00
1.00216226e+00
1.00217018e+00
1.00217776e+00
1.00218448e+00
1.00218983e+00
1.00219334e+00
1.00219456e+00
1.00219310e+00
1.00218864e+00
1.00218092e+00
1.00216976e+00
1.00215506e+00
1.00213681e+00
1.00211505e+00
1.00208990e+00
1.00206157e+00
1.00203028e+00
1.00199633e+00
1.00196004e+00
1.00192175e+00
1.00188182e+00
1.00184064e+00
1.00179855e+00
1.00175593e+00
1.00171310e+00
1.00167040e+00
1.00162812e+00
1.00158653e+00
1.00154587e+00
1.00150636e+00
1.00146818e+00
1.00143146e+00
1.00139632e+00
1.00136285e+00
1.00133109e+00
1.00130106e+00
1.00127274e+00
1.00124608e+00
1.00122102e+00
1.00119745e+00
1.00117525e+00
1.00115428e+00
1.00113436e+00
1.00111533e+00
1.00109701e+00
1.00107919e+00
1.00106169e+00
1.00104433e+00
1.00102692e+00
1.00100933e+00
1.00099140e+00
1.00097302e+00
1.00095412e+00
1.00093465e+00
1.00091458e+00
1.00089395e+00
1.00087281e+00
1.00085126e+00
1.00082941e+00
1.00080744e+00
1.00078552e+00
1.00076386e+00
1.00074268e+00
1.00072222e+00
1.00070270e+00
1.00068435e+00
1.00066740e+00
1.00065206e+00
1.00063846e+00
1.00062678e+00
1.00061716e+00
1.00060964e+00
1.00060422e+00
1.00060097e+00
1.00059989e+00
1.00060076e+00
1.00060348e+00
1.00060809e+00
1.00061432e+00
1.00062169e+00
1.00063030e+00
1.00064012e+00
1.00065041e+00
1.00066077e+00
1.00067189e+00
1.00068319e+00
1.00069339e+00
1.00070309e+00
1.00071359e+00
1.00072246e+00
1.00072875e+00
1.00073574e+00
1.00074369e+00
1.00074616e+00
1.00074646e+00
1.00075542e+00
1.00076207e+00
1.00245006e+00
1.00244753e+00
1.00245197e+00
1.00244434e+00
1.00243271e+00
1.00242365e+00
1.00241264e+00
1.00239771e+00
1.00238174e+00
1.00236591e+00
1.00234812e+00
1.00232900e+00
1.00230972e+00
1.00229034e+00
1.00227044e+00
1.00225087e+00
1.00223209e+00
1.00221422e+00
1.00219745e+00
1.00218234e+00
1.00216910e+00
1.00215788e+00
1.00214888e+00
1.00214228e+00
1.00213807e+00
1.00213620e+00
1.00213659e+00
1.00213905e+00
1.00214330e+00
1.00214901e+00
1.00215579e+00
1.00216320e+00
1.00217076e+00
1.00217796e+00
1.00218431e+00
1.00218930e+00
1.00219246e+00
1.00219336e+00
1.00219161e+00
1.00218691e+00
1.00217899e+00
1.00216768e+00
1.00215288e+00
1.00213457e+00
1.00211281e+00
1.00208770e+00
1.00205944e+00
1.00202826e+00
1.00199445e+00
1.00195831e+00
1.00192019e+00
1.00188045e+00
1.00183945e+00
1.00179754e+00
1.00175509e+00
1.00171243e+00
1.00166988e+00
1.00162774e+00
1.00158627e+00
1.00154572e+00
1.00150629e+00
1.00146817e+00
1.00143150e+00
1.00139639e+00
1.00136293e+00
1.00133116e+00
1.00130110e+00
1.00127274e+00
1.00124602e+00
1.00122089e+00
1.00119724e+00
1.00117494e+00
1.00115386e+00
1.00113384e+00
1.00111469e+00
1.00109624e+00
1.00107830e+00
1.00106068e+00
1.00104320e+00
1.00102569e+00
1.00100800e+00
1.00098998e+00
1.00097153e+00
1.00095257e+00
1.00093305e+00
1.00091296e+00
1.00089231e+00
1.00087117e+00
1.00084963e+00
1.00082782e+00
1.00080589e+00
1.00078402e+00
1.00076241e+00
1.00074129e+00
1.00072089e+00
1.00070143e+00
1.00068314e+00
1.00066623e+00
1.00065091e+00
1.00063734e+00
1.00062567e+00
1.00061603e+00
1.00060848e+00
1.00060304e+00
1.00059976e+00
1.00059857e+00
1.00059935e+00
1.00060205e+00
1.00060655e+00
1.00061260e+00
1.00061993e+00
1.00062856e+00
1.00063815e+00
1.00064829e+00
1.00065882e+00
1.00066993e+00
1.00068081e+00
1.00069118e+00
1.00070133e+00
1.00071148e+00
1.00071982e+00
1.00072718e+00
1.00073457e+00
1.00074114e+00
1.00074386e+00
1.00074702e+00
1.00075374e+00
1.00075488e+00
1.00246603e+00
1.00245912e+00
1.00244418e+00
1.00244321e+00
1.00243949e+00
1.00242466e+00
1.00241096e+00
1.00240009e+00
1.00238466e+00
1.00236618e+00
1.00234898e+00
1.00233125e+00
1.00231126e+00
1.00229122e+00
1.00227202e+00
1.00225265e+00
1.00223345e+00
1.00221560e+00
1.00219913e+00
1.00218393e+00
1.00217056e+00
1.00215942e+00
1.00215045e+00
1.00214371e+00
1.00213941e+00
1.00213748e+00
1.00213772e+00
1.00213999e+00
1.00214405e+00
1.00214954e+00
1.00215605e+00
1.00216318e+00
1.00217045e+00
1.00217734e+00
1.00218337e+00
1.00218805e+00
1.00219091e+00
1.00219152e+00
1.00218951e+00
1.00218457e+00
1.00217645e+00
1.00216498e+00
1.00215005e+00
1.00213166e+00
1.00210984e+00
1.00208472e+00
1.00205648e+00
1.00202535e+00
1.00199161e+00
1.00195558e+00
1.00191758e+00
1.00187796e+00
1.00183710e+00
1.00179534e+00
1.00175303e+00
1.00171052e+00
1.00166811e+00
1.00162610e+00
1.00158475e+00
1.00154432e+00
1.00150499e+00
1.00146697e+00
1.00143038e+00
1.00139534e+00
1.00136194e+00
1.00133022e+00
1.00130020e+00
1.00127186e+00
1.00124517e+00
1.00122004e+00
1.00119638e+00
1.00117408e+00
1.00115298e+00
1.00113293e+00
1.00111375e+00
1.00109527e+00
1.00107729e+00
1.00105964e+00
1.00104212e+00
1.00102458e+00
1.00100685e+00
1.00098881e+00
1.00097034e+00
1.00095136e+00
1.00093183e+00
1.00091174e+00
1.00089110e+00
1.00086998e+00
1.00084846e+00
1.00082667e+00
1.00080476e+00
1.00078292e+00
1.00076135e+00
1.00074026e+00
1.00071987e+00
1.00070043e+00
1.00068216e+00
1.00066525e+00
1.00064990e+00
1.00063632e+00
1.00062464e+00
1.00061492e+00
1.00060730e+00
1.00060185e+00
1.00059848e+00
1.00059714e+00
1.00059790e+00
1.00060060e+00
1.00060490e+00
1.00061079e+00
1.00061830e+00
1.00062687e+00
1.00063608e+00
1.00064634e+00
1.00065734e+00
1.00066799e+00
1.00067847e+00
1.00068976e+00
1.00070033e+00
1.00070896e+00
1.00071782e+00
1.00072744e+00
1.00073349e+00
1.00073704e+00
1.00074435e+00
1.00075084e+00
1.00074694e+00
1.00074504e+00
1.00246078e+00
1.00245751e+00
1.00245039e+00
1.00244461e+00
1.00243615e+00
1.00242531e+00
1.00241316e+00
1.00239941e+00
1.00238404e+00
1.00236734e+00
1.00234959e+00
1.00233093e+00
1.00231166e+00
1.00229203e+00
1.00227233e+00
1.00225292e+00
1.00223413e+00
1.00221626e+00
1.00219963e+00
1.00218457e+00
1.00217132e+00
1.00216009e+00
1.00215107e+00
1.00214437e+00
1.00214001e+00
1.00213793e+00
1.00213805e+00
1.00214017e+00
1.00214401e+00
1.00214925e+00
1.00215550e+00
1.00216233e+00
1.00216927e+00
1.00217583e+00
1.00218152e+00
1.00218585e+00
1.00218837e+00
1.00218867e+00
1.00218637e+00
1.00218116e+00
1.00217281e+00
1.00216114e+00
1.00214606e+00
1.00212755e+00
1.00210566e+00
1.00208052e+00
1.00205229e+00
1.00202120e+00
1.00198754e+00
1.00195161e+00
1.00191373e+00
1.00187426e+00
1.00183355e+00
1.00179196e+00
1.00174983e+00
1.00170748e+00
1.00166525e+00
1.00162341e+00
1.00158224e+00
1.00154196e+00
1.00150280e+00
1.00146491e+00
1.00142846e+00
1.00139355e+00
1.00136027e+00
1.00132865e+00
1.00129873e+00
1.00127047e+00
1.00124385e+00
1.00121878e+00
1.00119517e+00
1.00117291e+00
1.00115184e+00
1.00113181e+00
1.00111265e+00
1.00109418e+00
1.00107620e+00
1.00105855e+00
1.00104104e+00
1.00102350e+00
1.00100578e+00
1.00098774e+00
1.00096929e+00
1.00095034e+00
1.00093085e+00
1.00091079e+00
1.00089021e+00
1.00086914e+00
1.00084768e+00
1.00082596e+00
1.00080412e+00
1.00078235e+00
1.00076084e+00
1.00073982e+00
1.00071949e+00
1.00070009e+00
1.00068184e+00
1.00066494e+00
1.00064961e+00
1.00063600e+00
1.00062426e+00
1.00061452e+00
1.00060683e+00
1.00060125e+00
1.00059778e+00
1.00059640e+00
1.00059701e+00
1.00059951e+00
1.00060378e+00
1.00060965e+00
1.00061691e+00
1.00062535e+00
1.00063478e+00
1.00064495e+00
1.00065559e+00
1.00066648e+00
1.00067746e+00
1.00068824e+00
1.00069859e+00
1.00070831e+00
1.00071738e+00
1.00072551e+00
1.00073259e+00
1.00073833e+00
1.00074321e+00
1.00074710e+00
1.00074782e+00
1.00074769e+00
1.00245680e+00
1.00245489e+00
1.00245467e+00
1.00244389e+00
1.00243206e+00
1.00242542e+00
1.00241414e+00
1.00239755e+00
1.00238237e+00
1.00236740e+00
1.00234908e+00
1.00232959e+00
1.00231096e+00
1.00229172e+00
1.00227159e+00
1.00225218e+00
1.00223376e+00
1.00221590e+00
1.00219916e+00
1.00218425e+00
1.00217113e+00
1.00215986e+00
1.00215082e+00
1.00214415e+00
1.00213973e+00
1.00213754e+00
1.00213754e+00
1.00213949e+00
1.00214311e+00
1.00214809e+00
1.00215405e+00
1.00216056e+00
1.00216713e+00
1.00217332e+00
1.00217863e+00
1.00218258e+00
1.00218472e+00
1.00218466e+00
1.00218202e+00
1.00217651e+00
1.00216789e+00
1.00215600e+00
1.00214074e+00
1.00212210e+00
1.00210014e+00
1.00207496e+00
1.00204674e+00
1.00201572e+00
1.00198215e+00
1.00194634e+00
1.00190862e+00
1.00186932e+00
1.00182881e+00
1.00178742e+00
1.00174551e+00
1.00170339e+00
1.00166138e+00
1.00161976e+00
1.00157881e+00
1.00153876e+00
1.00149980e+00
1.00146212e+00
1.00142587e+00
1.00139115e+00
1.00135803e+00
1.00132658e+00
1.00129680e+00
1.00126869e+00
1.00124219e+00
1.00121723e+00
1.00119373e+00
1.00117155e+00
1.00115056e+00
1.00113060e+00
1.00111150e+00
1.00109308e+00
1.00107515e+00
1.00105755e+00
1.00104008e+00
1.00102259e+00
1.00100491e+00
1.00098694e+00
1.00096855e+00
1.00094966e+00
1.00093025e+00
1.00091028e+00
1.00088979e+00
1.00086882e+00
1.00084747e+00
1.00082586e+00
1.00080414e+00
1.00078248e+00
1.00076108e+00
1.00074014e+00
1.00071990e+00
1.00070057e+00
1.00068236e+00
1.00066550e+00
1.00065018e+00
1.00063654e+00
1.00062474e+00
1.00061494e+00
1.00060718e+00
1.00060145e+00
1.00059785e+00
1.00059638e+00
1.00059681e+00
1.00059910e+00
1.00060330e+00
1.00060910e+00
1.00061608e+00
1.00062440e+00
1.00063399e+00
1.00064403e+00
1.00065433e+00
1.00066551e+00
1.00067690e+00
1.00068718e+00
1.00069733e+00
1.00070822e+00
1.00071743e+00
1.00072414e+00
1.00073195e+00
1.00074012e+00
1.00074325e+00
1.00074447e+00
1.00074882e+00
1.00074988e+00
1.00245905e+00
1.00245408e+00
1.00244843e+00
1.00244210e+00
1.00243421e+00
1.00242286e+00
1.00240988e+00
1.00239689e+00
1.00238184e+00
1.00236457e+00
1.00234683e+00
1.00232867e+00
1.00230932e+00
1.00228953e+00
1.00227010e+00
1.00225092e+00
1.00223211e+00
1.00221435e+00
1.00219797e+00
1.00218301e+00
1.00216980e+00
1.00215868e+00
1.00214972e+00
1.00214296e+00
1.00213848e+00
1.00213625e+00
1.00213611e+00
1.00213787e+00
1.00214128e+00
1.00214601e+00
1.00215166e+00
1.00215782e+00
1.00216403e+00
1.00216983e+00
1.00217473e+00
1.00217827e+00
1.00218002e+00
1.00217956e+00
1.00217657e+00
1.00217073e+00
1.00216182e+00
1.00214968e+00
1.00213424e+00
1.00211546e+00
1.00209340e+00
1.00206819e+00
1.00203998e+00
1.00200901e+00
1.00197554e+00
1.00193987e+00
1.00190232e+00
1.00186323e+00
1.00182293e+00
1.00178179e+00
1.00174012e+00
1.00169827e+00
1.00165653e+00
1.00161519e+00
1.00157451e+00
1.00153472e+00
1.00149603e+00
1.00145861e+00
1.00142261e+00
1.00138813e+00
1.00135525e+00
1.00132402e+00
1.00129445e+00
1.00126653e+00
1.00124022e+00
1.00121543e+00
1.00119208e+00
1.00117005e+00
1.00114919e+00
1.00112935e+00
1.00111036e+00
1.00109204e+00
1.00107422e+00
1.00105670e+00
1.00103933e+00
1.00102193e+00
1.00100436e+00
1.00098648e+00
1.00096820e+00
1.00094943e+00
1.00093014e+00
1.00091031e+00
1.00088996e+00
1.00086914e+00
1.00084795e+00
1.00082649e+00
1.00080492e+00
1.00078341e+00
1.00076215e+00
1.00074134e+00
1.00072121e+00
1.00070196e+00
1.00068383e+00
1.00066700e+00
1.00065167e+00
1.00063802e+00
1.00062619e+00
1.00061627e+00
1.00060838e+00
1.00060258e+00
1.00059882e+00
1.00059709e+00
1.00059739e+00
1.00059959e+00
1.00060349e+00
1.00060903e+00
1.00061608e+00
1.00062430e+00
1.00063344e+00
1.00064354e+00
1.00065425e+00
1.00066506e+00
1.00067599e+00
1.00068714e+00
1.00069776e+00
1.00070744e+00
1.00071685e+00
1.00072577e+00
1.00073280e+00
1.00073853e+00
1.00074393e+00
1.00074784e+00
1.00074936e+00
1.00074894e+00
1.00245726e+00
1.00245320e+00
1.00244450e+00
1.00243947e+00
1.00243247e+00
1.00241955e+00
1.00240695e+00
1.00239492e+00
1.00237917e+00
1.00236143e+00
1.00234434e+00
1.00232630e+00
1.00230653e+00
1.00228684e+00
1.00226773e+00
1.00224849e+00
1.00222962e+00
1.00221206e+00
1.00219579e+00
1.00218083e+00
1.00216770e+00
1.00215668e+00
1.00214772e+00
1.00214093e+00
1.00213643e+00
1.00213414e+00
1.00213385e+00
1.00213543e+00
1.00213863e+00
1.00214308e+00
1.00214841e+00
1.00215421e+00
1.00216004e+00
1.00216542e+00
1.00216989e+00
1.00217300e+00
1.00217431e+00
1.00217345e+00
1.00217006e+00
1.00216387e+00
1.00215465e+00
1.00214226e+00
1.00212660e+00
1.00210767e+00
1.00208552e+00
1.00206027e+00
1.00203208e+00
1.00200117e+00
1.00196782e+00
1.00193230e+00
1.00189494e+00
1.00185607e+00
1.00181603e+00
1.00177516e+00
1.00173378e+00
1.00169223e+00
1.00165080e+00
1.00160978e+00
1.00156942e+00
1.00152996e+00
1.00149159e+00
1.00145448e+00
1.00141879e+00
1.00138460e+00
1.00135201e+00
1.00132106e+00
1.00129175e+00
1.00126408e+00
1.00123800e+00
1.00121344e+00
1.00119030e+00
1.00116845e+00
1.00114777e+00
1.00112810e+00
1.00110927e+00
1.00109110e+00
1.00107342e+00
1.00105605e+00
1.00103881e+00
1.00102155e+00
1.00100412e+00
1.00098640e+00
1.00096827e+00
1.00094967e+00
1.00093056e+00
1.00091091e+00
1.00089075e+00
1.00087013e+00
1.00084914e+00
1.00082789e+00
1.00080652e+00
1.00078520e+00
1.00076413e+00
1.00074349e+00
1.00072350e+00
1.00070437e+00
1.00068632e+00
1.00066954e+00
1.00065422e+00
1.00064056e+00
1.00062867e+00
1.00061866e+00
1.00061063e+00
1.00060467e+00
1.00060074e+00
1.00059878e+00
1.00059886e+00
1.00060088e+00
1.00060454e+00
1.00060981e+00
1.00061672e+00
1.00062483e+00
1.00063374e+00
1.00064369e+00
1.00065451e+00
1.00066528e+00
1.00067600e+00
1.00068735e+00
1.00069836e+00
1.00070785e+00
1.00071713e+00
1.00072678e+00
1.00073411e+00
1.00073918e+00
1.00074525e+00
1.00075005e+00
1.00075012e+00
1.00075019e+00
1.00245060e+00
1.00244805e+00
1.00244408e+00
1.00243632e+00
1.00242645e+00
1.00241700e+00
1.00240539e+00
1.00239031e+00
1.00237479e+00
1.00235912e+00
1.00234124e+00
1.00232203e+00
1.00230314e+00
1.00228400e+00
1.00226423e+00
1.00224492e+00
1.00222661e+00
1.00220907e+00
1.00219259e+00
1.00217784e+00
1.00216492e+00
1.00215384e+00
1.00214487e+00
1.00213817e+00
1.00213364e+00
1.00213121e+00
1.00213081e+00
1.00213224e+00
1.00213519e+00
1.00213935e+00
1.00214436e+00
1.00214980e+00
1.00215521e+00
1.00216016e+00
1.00216418e+00
1.00216683e+00
1.00216769e+00
1.00216640e+00
1.00216260e+00
1.00215604e+00
1.00214650e+00
1.00213383e+00
1.00211795e+00
1.00209886e+00
1.00207661e+00
1.00205132e+00
1.00202314e+00
1.00199231e+00
1.00195908e+00
1.00192374e+00
1.00188659e+00
1.00184797e+00
1.00180820e+00
1.00176763e+00
1.00172659e+00
1.00168538e+00
1.00164430e+00
1.00160364e+00
1.00156365e+00
1.00152455e+00
1.00148655e+00
1.00144981e+00
1.00141447e+00
1.00138064e+00
1.00134839e+00
1.00131776e+00
1.00128878e+00
1.00126141e+00
1.00123561e+00
1.00121132e+00
1.00118843e+00
1.00116683e+00
1.00114638e+00
1.00112692e+00
1.00110829e+00
1.00109032e+00
1.00107282e+00
1.00105564e+00
1.00103858e+00
1.00102151e+00
1.00100427e+00
1.00098675e+00
1.00096883e+00
1.00095045e+00
1.00093156e+00
1.00091216e+00
1.00089225e+00
1.00087188e+00
1.00085115e+00
1.00083016e+00
1.00080905e+00
1.00078798e+00
1.00076713e+00
1.00074670e+00
1.00072689e+00
1.00070792e+00
1.00068997e+00
1.00067328e+00
1.00065800e+00
1.00064430e+00
1.00063234e+00
1.00062226e+00
1.00061410e+00
1.00060790e+00
1.00060375e+00
1.00060164e+00
1.00060142e+00
1.00060306e+00
1.00060658e+00
1.00061170e+00
1.00061814e+00
1.00062599e+00
1.00063507e+00
1.00064479e+00
1.00065503e+00
1.00066609e+00
1.00067734e+00
1.00068798e+00
1.00069860e+00
1.00070945e+00
1.00071901e+00
1.00072705e+00
1.00073511e+00
1.00074238e+00
1.00074706e+00
1.00075042e+00
1.00075332e+00
1.00075435e+00
1.00244690e+00
1.00244386e+00
1.00244005e+00
1.00243211e+00
1.00242258e+00
1.00241329e+00
1.00240096e+00
1.00238608e+00
1.00237117e+00
1.00235502e+00
1.00233673e+00
1.00231798e+00
1.00229925e+00
1.00227974e+00
1.00226001e+00
1.00224102e+00
1.00222271e+00
1.00220509e+00
1.00218881e+00
1.00217421e+00
1.00216129e+00
1.00215025e+00
1.00214138e+00
1.00213468e+00
1.00213008e+00
1.00212759e+00
1.00212709e+00
1.00212832e+00
1.00213102e+00
1.00213490e+00
1.00213957e+00
1.00214461e+00
1.00214960e+00
1.00215410e+00
1.00215765e+00
1.00215982e+00
1.00216022e+00
1.00215847e+00
1.00215425e+00
1.00214730e+00
1.00213742e+00
1.00212446e+00
1.00210836e+00
1.00208911e+00
1.00206676e+00
1.00204142e+00
1.00201328e+00
1.00198253e+00
1.00194944e+00
1.00191428e+00
1.00187737e+00
1.00183902e+00
1.00179957e+00
1.00175933e+00
1.00171865e+00
1.00167782e+00
1.00163714e+00
1.00159688e+00
1.00155730e+00
1.00151862e+00
1.00148103e+00
1.00144471e+00
1.00140978e+00
1.00137635e+00
1.00134448e+00
1.00131424e+00
1.00128561e+00
1.00125859e+00
1.00123313e+00
1.00120916e+00
1.00118657e+00
1.00116525e+00
1.00114507e+00
1.00112587e+00
1.00110748e+00
1.00108975e+00
1.00107249e+00
1.00105553e+00
1.00103871e+00
1.00102187e+00
1.00100487e+00
1.00098759e+00
1.00096994e+00
1.00095183e+00
1.00093323e+00
1.00091412e+00
1.00089452e+00
1.00087447e+00
1.00085406e+00
1.00083339e+00
1.00081259e+00
1.00079183e+00
1.00077126e+00
1.00075109e+00
1.00073151e+00
1.00071273e+00
1.00069494e+00
1.00067833e+00
1.00066311e+00
1.00064941e+00
1.00063739e+00
1.00062718e+00
1.00061887e+00
1.00061248e+00
1.00060806e+00
1.00060567e+00
1.00060519e+00
1.00060651e+00
1.00060966e+00
1.00061450e+00
1.00062071e+00
1.00062821e+00
1.00063700e+00
1.00064665e+00
1.00065675e+00
1.00066752e+00
1.00067876e+00
1.00068962e+00
1.00070013e+00
1.00071082e+00
1.00072075e+00
1.00072908e+00
1.00073700e+00
1.00074447e+00
1.00074949e+00
1.00075295e+00
1.00075609e+00
1.00075703e+00
1.00244356e+00
1.00243969e+00
1.00243356e+00
1.00242764e+00
1.00241978e+00
1.00240808e+00
1.00239525e+00
1.00238243e+00
1.00236702e+00
1.00234941e+00
1.00233191e+00
1.00231386e+00
1.00229429e+00
1.00227455e+00
1.00225548e+00
1.00223651e+00
1.00221785e+00
1.00220045e+00
1.00218448e+00
1.00216981e+00
1.00215687e+00
1.00214604e+00
1.00213723e+00
1.00213045e+00
1.00212584e+00
1.00212332e+00
1.00212266e+00
1.00212368e+00
1.00212616e+00
1.00212975e+00
1.00213405e+00
1.00213870e+00
1.00214326e+00
1.00214729e+00
1.00215035e+00
1.00215204e+00
1.00215195e+00
1.00214973e+00
1.00214508e+00
1.00213773e+00
1.00212750e+00
1.00211425e+00
1.00209792e+00
1.00207850e+00
1.00205605e+00
1.00203069e+00
1.00200258e+00
1.00197193e+00
1.00193899e+00
1.00190404e+00
1.00186739e+00
1.00182934e+00
1.00179022e+00
1.00175036e+00
1.00171007e+00
1.00166965e+00
1.00162941e+00
1.00158960e+00
1.00155047e+00
1.00151225e+00
1.00147513e+00
1.00143926e+00
1.00140479e+00
1.00137181e+00
1.00134038e+00
1.00131056e+00
1.00128235e+00
1.00125573e+00
1.00123065e+00
1.00120703e+00
1.00118479e+00
1.00116380e+00
1.00114393e+00
1.00112503e+00
1.00110694e+00
1.00108948e+00
1.00107250e+00
1.00105581e+00
1.00103927e+00
1.00102271e+00
1.00100600e+00
1.00098903e+00
1.00097168e+00
1.00095391e+00
1.00093565e+00
1.00091690e+00
1.00089767e+00
1.00087801e+00
1.00085799e+00
1.00083770e+00
1.00081728e+00
1.00079688e+00
1.00077667e+00
1.00075681e+00
1.00073751e+00
1.00071896e+00
1.00070136e+00
1.00068489e+00
1.00066972e+00
1.00065605e+00
1.00064400e+00
1.00063365e+00
1.00062515e+00
1.00061858e+00
1.00061391e+00
1.00061112e+00
1.00061032e+00
1.00061139e+00
1.00061408e+00
1.00061844e+00
1.00062447e+00
1.00063172e+00
1.00063991e+00
1.00064929e+00
1.00065960e+00
1.00066999e+00
1.00068060e+00
1.00069188e+00
1.00070284e+00
1.00071267e+00
1.00072243e+00
1.00073212e+00
1.00073988e+00
1.00074608e+00
1.00075225e+00
1.00075706e+00
1.00075897e+00
1.00075956e+00
1.00243767e+00
1.00243487e+00
1.00242924e+00
1.00242269e+00
1.00241419e+00
1.00240310e+00
1.00239089e+00
1.00237719e+00
1.00236131e+00
1.00234446e+00
1.00232697e+00
1.00230819e+00
1.00228872e+00
1.00226944e+00
1.00225015e+00
1.00223094e+00
1.00221258e+00
1.00219537e+00
1.00217928e+00
1.00216468e+00
1.00215196e+00
1.00214116e+00
1.00213232e+00
1.00212559e+00
1.00212099e+00
1.00211835e+00
1.00211754e+00
1.00211840e+00
1.00212063e+00
1.00212390e+00
1.00212785e+00
1.00213209e+00
1.00213620e+00
1.00213975e+00
1.00214232e+00
1.00214350e+00
1.00214292e+00
1.00214023e+00
1.00213513e+00
1.00212738e+00
1.00211680e+00
1.00210326e+00
1.00208670e+00
1.00206712e+00
1.00204458e+00
1.00201920e+00
1.00199114e+00
1.00196060e+00
1.00192784e+00
1.00189312e+00
1.00185675e+00
1.00181903e+00
1.00178027e+00
1.00174081e+00
1.00170095e+00
1.00166099e+00
1.00162122e+00
1.00158190e+00
1.00154327e+00
1.00150555e+00
1.00146894e+00
1.00143358e+00
1.00139961e+00
1.00136712e+00
1.00133619e+00
1.00130684e+00
1.00127909e+00
1.00125291e+00
1.00122825e+00
1.00120504e+00
1.00118319e+00
1.00116257e+00
1.00114306e+00
1.00112449e+00
1.00110673e+00
1.00108959e+00
1.00107293e+00
1.00105656e+00
1.00104033e+00
1.00102410e+00
1.00100773e+00
1.00099111e+00
1.00097414e+00
1.00095675e+00
1.00093891e+00
1.00092058e+00
1.00090179e+00
1.00088258e+00
1.00086301e+00
1.00084318e+00
1.00082321e+00
1.00080324e+00
1.00078343e+00
1.00076396e+00
1.00074500e+00
1.00072673e+00
1.00070936e+00
1.00069307e+00
1.00067801e+00
1.00066435e+00
1.00065226e+00
1.00064182e+00
1.00063313e+00
1.00062629e+00
1.00062135e+00
1.00061825e+00
1.00061701e+00
1.00061764e+00
1.00062000e+00
1.00062392e+00
1.00062938e+00
1.00063628e+00
1.00064425e+00
1.00065315e+00
1.00066297e+00
1.00067338e+00
1.00068391e+00
1.00069465e+00
1.00070549e+00
1.00071576e+00
1.00072537e+00
1.00073459e+00
1.00074276e+00
1.00074950e+00
1.00075545e+00
1.00076000e+00
1.00076242e+00
1.00076373e+00
1.00243126e+00
1.00242878e+00
1.00242489e+00
1.00241746e+00
1.00240807e+00
1.00239823e+00
1.00238603e+00
1.00237106e+00
1.00235557e+00
1.00233934e+00
1.00232107e+00
1.00230192e+00
1.00228303e+00
1.00226369e+00
1.00224394e+00
1.00222492e+00
1.00220686e+00
1.00218951e+00
1.00217338e+00
1.00215904e+00
1.00214642e+00
1.00213556e+00
1.00212678e+00
1.00212014e+00
1.00211546e+00
1.00211271e+00
1.00211180e+00
1.00211247e+00
1.00211442e+00
1.00211737e+00
1.00212097e+00
1.00212479e+00
1.00212844e+00
1.00213151e+00
1.00213358e+00
1.00213425e+00
1.00213317e+00
1.00213000e+00
1.00212445e+00
1.00211630e+00
1.00210537e+00
1.00209155e+00
1.00207477e+00
1.00205504e+00
1.00203242e+00
1.00200703e+00
1.00197903e+00
1.00194863e+00
1.00191606e+00
1.00188160e+00
1.00184553e+00
1.00180817e+00
1.00176981e+00
1.00173078e+00
1.00169139e+00
1.00165192e+00
1.00161266e+00
1.00157386e+00
1.00153578e+00
1.00149861e+00
1.00146255e+00
1.00142775e+00
1.00139433e+00
1.00136238e+00
1.00133198e+00
1.00130315e+00
1.00127590e+00
1.00125021e+00
1.00122602e+00
1.00120326e+00
1.00118184e+00
1.00116163e+00
1.00114251e+00
1.00112433e+00
1.00110693e+00
1.00109016e+00
1.00107385e+00
1.00105784e+00
1.00104198e+00
1.00102612e+00
1.00101014e+00
1.00099393e+00
1.00097739e+00
1.00096045e+00
1.00094307e+00
1.00092523e+00
1.00090695e+00
1.00088826e+00
1.00086922e+00
1.00084992e+00
1.00083048e+00
1.00081102e+00
1.00079170e+00
1.00077266e+00
1.00075411e+00
1.00073620e+00
1.00071910e+00
1.00070302e+00
1.00068812e+00
1.00067452e+00
1.00066238e+00
1.00065186e+00
1.00064302e+00
1.00063590e+00
1.00063060e+00
1.00062720e+00
1.00062553e+00
1.00062560e+00
1.00062750e+00
1.00063104e+00
1.00063590e+00
1.00064218e+00
1.00064988e+00
1.00065841e+00
1.00066754e+00
1.00067762e+00
1.00068824e+00
1.00069850e+00
1.00070876e+00
1.00071938e+00
1.00072916e+00
1.00073761e+00
1.00074588e+00
1.00075349e+00
1.00075897e+00
1.00076308e+00
1.00076670e+00
1.00076835e+00
1.00242631e+00
1.00242348e+00
1.00241876e+00
1.00241192e+00
1.00240317e+00
1.00239250e+00
1.00237973e+00
1.00236551e+00
1.00235003e+00
1.00233285e+00
1.00231458e+00
1.00229596e+00
1.00227666e+00
1.00225687e+00
1.00223744e+00
1.00221860e+00
1.00220026e+00
1.00218292e+00
1.00216709e+00
1.00215277e+00
1.00214008e+00
1.00212935e+00
1.00212069e+00
1.00211398e+00
1.00210924e+00
1.00210645e+00
1.00210540e+00
1.00210584e+00
1.00210754e+00
1.00211019e+00
1.00211340e+00
1.00211679e+00
1.00211999e+00
1.00212257e+00
1.00212412e+00
1.00212429e+00
1.00212271e+00
1.00211906e+00
1.00211307e+00
1.00210452e+00
1.00209325e+00
1.00207915e+00
1.00206216e+00
1.00204230e+00
1.00201962e+00
1.00199425e+00
1.00196633e+00
1.00193608e+00
1.00190373e+00
1.00186955e+00
1.00183382e+00
1.00179684e+00
1.00175891e+00
1.00172035e+00
1.00168146e+00
1.00164251e+00
1.00160381e+00
1.00156558e+00
1.00152808e+00
1.00149151e+00
1.00145604e+00
1.00142184e+00
1.00138901e+00
1.00135766e+00
1.00132784e+00
1.00129958e+00
1.00127288e+00
1.00124772e+00
1.00122404e+00
1.00120177e+00
1.00118082e+00
1.00116106e+00
1.00114238e+00
1.00112461e+00
1.00110762e+00
1.00109125e+00
1.00107533e+00
1.00105972e+00
1.00104427e+00
1.00102884e+00
1.00101329e+00
1.00099754e+00
1.00098148e+00
1.00096504e+00
1.00094820e+00
1.00093092e+00
1.00091322e+00
1.00089512e+00
1.00087669e+00
1.00085800e+00
1.00083915e+00
1.00082028e+00
1.00080151e+00
1.00078300e+00
1.00076491e+00
1.00074741e+00
1.00073067e+00
1.00071484e+00
1.00070011e+00
1.00068663e+00
1.00067450e+00
1.00066386e+00
1.00065485e+00
1.00064751e+00
1.00064186e+00
1.00063798e+00
1.00063590e+00
1.00063552e+00
1.00063676e+00
1.00063968e+00
1.00064412e+00
1.00064982e+00
1.00065673e+00
1.00066482e+00
1.00067370e+00
1.00068309e+00
1.00069306e+00
1.00070336e+00
1.00071346e+00
1.00072332e+00
1.00073295e+00
1.00074186e+00
1.00074982e+00
1.00075690e+00
1.00076283e+00
1.00076743e+00
1.00077065e+00
1.00077218e+00
1.00242067e+00
1.00241787e+00
1.00241270e+00
1.00240632e+00
1.00239782e+00
1.00238640e+00
1.00237358e+00
1.00235972e+00
1.00234366e+00
1.00232605e+00
1.00230811e+00
1.00228931e+00
1.00226950e+00
1.00224980e+00
1.00223055e+00
1.00221145e+00
1.00219301e+00
1.00217592e+00
1.00216014e+00
1.00214573e+00
1.00213315e+00
1.00212257e+00
1.00211387e+00
1.00210711e+00
1.00210239e+00
1.00209952e+00
1.00209828e+00
1.00209852e+00
1.00209998e+00
1.00210229e+00
1.00210511e+00
1.00210809e+00
1.00211082e+00
1.00211290e+00
1.00211395e+00
1.00211361e+00
1.00211154e+00
1.00210742e+00
1.00210100e+00
1.00209207e+00
1.00208047e+00
1.00206610e+00
1.00204892e+00
1.00202894e+00
1.00200622e+00
1.00198088e+00
1.00195308e+00
1.00192301e+00
1.00189091e+00
1.00185703e+00
1.00182167e+00
1.00178510e+00
1.00174764e+00
1.00170958e+00
1.00167122e+00
1.00163284e+00
1.00159472e+00
1.00155711e+00
1.00152024e+00
1.00148430e+00
1.00144948e+00
1.00141592e+00
1.00138374e+00
1.00135302e+00
1.00132382e+00
1.00129618e+00
1.00127007e+00
1.00124549e+00
1.00122237e+00
1.00120063e+00
1.00118019e+00
1.00116093e+00
1.00114271e+00
1.00112540e+00
1.00110886e+00
1.00109292e+00
1.00107744e+00
1.00106227e+00
1.00104727e+00
1.00103230e+00
1.00101724e+00
1.00100199e+00
1.00098647e+00
1.00097060e+00
1.00095435e+00
1.00093770e+00
1.00092064e+00
1.00090321e+00
1.00088546e+00
1.00086746e+00
1.00084930e+00
1.00083109e+00
1.00081296e+00
1.00079505e+00
1.00077750e+00
1.00076048e+00
1.00074416e+00
1.00072867e+00
1.00071416e+00
1.00070080e+00
1.00068874e+00
1.00067804e+00
1.00066883e+00
1.00066124e+00
1.00065528e+00
1.00065094e+00
1.00064832e+00
1.00064744e+00
1.00064810e+00
1.00065027e+00
1.00065406e+00
1.00065920e+00
1.00066537e+00
1.00067269e+00
1.00068110e+00
1.00068999e+00
1.00069920e+00
1.00070904e+00
1.00071898e+00
1.00072830e+00
1.00073744e+00
1.00074646e+00
1.00075427e+00
1.00076085e+00
1.00076698e+00
1.00077190e+00
1.00077487e+00
1.00077653e+00
1.00241429e+00
1.00241203e+00
1.00240751e+00
1.00240048e+00
1.00239138e+00
1.00238050e+00
1.00236778e+00
1.00235298e+00
1.00233670e+00
1.00231952e+00
1.00230113e+00
1.00228168e+00
1.00226207e+00
1.00224249e+00
1.00222279e+00
1.00220357e+00
1.00218541e+00
1.00216828e+00
1.00215233e+00
1.00213807e+00
1.00212565e+00
1.00211500e+00
1.00210628e+00
1.00209960e+00
1.00209483e+00
1.00209180e+00
1.00209043e+00
1.00209049e+00
1.00209165e+00
1.00209362e+00
1.00209607e+00
1.00209863e+00
1.00210089e+00
1.00210248e+00
1.00210304e+00
1.00210220e+00
1.00209963e+00
1.00209505e+00
1.00208822e+00
1.00207892e+00
1.00206701e+00
1.00205240e+00
1.00203506e+00
1.00201498e+00
1.00199225e+00
1.00196697e+00
1.00193930e+00
1.00190944e+00
1.00187761e+00
1.00184408e+00
1.00180910e+00
1.00177299e+00
1.00173602e+00
1.00169850e+00
1.00166071e+00
1.00162294e+00
1.00158545e+00
1.00154849e+00
1.00151229e+00
1.00147703e+00
1.00144290e+00
1.00141003e+00
1.00137854e+00
1.00134851e+00
1.00131998e+00
1.00129299e+00
1.00126753e+00
1.00124357e+00
1.00122105e+00
1.00119989e+00
1.00118000e+00
1.00116127e+00
1.00114356e+00
1.00112675e+00
1.00111068e+00
1.00109522e+00
1.00108021e+00
1.00106552e+00
1.00105101e+00
1.00103654e+00
1.00102201e+00
1.00100732e+00
1.00099238e+00
1.00097714e+00
1.00096154e+00
1.00094558e+00
1.00092924e+00
1.00091255e+00
1.00089556e+00
1.00087832e+00
1.00086092e+00
1.00084346e+00
1.00082604e+00
1.00080881e+00
1.00079190e+00
1.00077543e+00
1.00075957e+00
1.00074448e+00
1.00073028e+00
1.00071709e+00
1.00070509e+00
1.00069439e+00
1.00068505e+00
1.00067715e+00
1.00067084e+00
1.00066612e+00
1.00066293e+00
1.00066136e+00
1.00066143e+00
1.00066296e+00
1.00066586e+00
1.00067019e+00
1.00067580e+00
1.00068232e+00
1.00068974e+00
1.00069807e+00
1.00070687e+00
1.00071580e+00
1.00072501e+00
1.00073428e+00
1.00074303e+00
1.00075120e+00
1.00075891e+00
1.00076578e+00
1.00077146e+00
1.00077594e+00
1.00077944e+00
1.00078150e+00
1.00240828e+00
1.00240591e+00
1.00240169e+00
1.00239453e+00
1.00238523e+00
1.00237434e+00
1.00236123e+00
1.00234606e+00
1.00232980e+00
1.00231232e+00
1.00229339e+00
1.00227389e+00
1.00225427e+00
1.00223428e+00
1.00221440e+00
1.00219532e+00
1.00217709e+00
1.00215977e+00
1.00214392e+00
1.00212979e+00
1.00211731e+00
1.00210664e+00
1.00209801e+00
1.00209132e+00
1.00208642e+00
1.00208330e+00
1.00208180e+00
1.00208162e+00
1.00208249e+00
1.00208415e+00
1.00208622e+00
1.00208834e+00
1.00209014e+00
1.00209126e+00
1.00209132e+00
1.00208999e+00
1.00208695e+00
1.00208193e+00
1.00207469e+00
1.00206505e+00
1.00205286e+00
1.00203804e+00
1.00202055e+00
1.00200041e+00
1.00197769e+00
1.00195250e+00
1.00192500e+00
1.00189537e+00
1.00186386e+00
1.00183069e+00
1.00179615e+00
1.00176052e+00
1.00172408e+00
1.00168713e+00
1.00164995e+00
1.00161283e+00
1.00157601e+00
1.00153975e+00
1.00150425e+00
1.00146973e+00
1.00143633e+00
1.00140420e+00
1.00137345e+00
1.00134414e+00
1.00131634e+00