# vtk DataFile Version 2.0
LBM Flow Field - Timestep 600
ASCII
DATASET STRUCTURED_POINTS
DIMENSIONS 200 100 1
ORIGIN 0.0 0.0 0.0
SPACING 1.0 1.0 1.0
POINT_DATA 20000
SCALARS density double 1
LOOKUP_TABLE default
9.99281025e-01
9.99285722e-01
9.99291518e-01
9.99297696e-01
9.99305730e-01
9.99315893e-01
9.99328496e-01
9.99343618e-01
9.99361392e-01
9.99381969e-01
9.99405540e-01
9.99432261e-01
9.99462295e-01
9.99495797e-01
9.99532905e-01
9.99573725e-01
9.99618349e-01
9.99666835e-01
9.99719209e-01
9.99775457e-01
9.99835527e-01
9.99899322e-01
9.99966699e-01
1.00003747e+00
1.00011141e+00
1.00018823e+00
1.00026764e+00
1.00034928e+00
1.00043277e+00
1.00051772e+00
1.00060372e+00
1.00069035e+00
1.00077718e+00
1.00086379e+00
1.00094979e+00
1.00103479e+00
1.00111844e+00
1.00120039e+00
1.00128036e+00
1.00135808e+00
1.00143333e+00
1.00150592e+00
1.00157570e+00
1.00164253e+00
1.00170633e+00
1.00176700e+00
1.00182449e+00
1.00187872e+00
1.00192959e+00
1.00197699e+00
1.00202073e+00
1.00206059e+00
1.00209624e+00
1.00212726e+00
1.00215311e+00
1.00217316e+00
1.00218665e+00
1.00219274e+00
1.00219050e+00
1.00217902e+00
1.00215738e+00
1.00212480e+00
1.00208065e+00
1.00202456e+00
1.00195648e+00
1.00187676e+00
1.00178616e+00
1.00168588e+00
1.00157752e+00
1.00146306e+00
1.00134475e+00
1.00122502e+00
1.00110633e+00
1.00099106e+00
1.00088136e+00
1.00077905e+00
1.00068554e+00
1.00060178e+00
1.00052820e+00
1.00046481e+00
1.00041118e+00
1.00036657e+00
1.00033001e+00
1.00030038e+00
1.00027652e+00
1.00025727e+00
1.00024159e+00
1.00022853e+00
1.00021730e+00
1.00020722e+00
1.00019775e+00
1.00018848e+00
1.00017905e+00
1.00016922e+00
1.00015877e+00
1.00014753e+00
1.00013537e+00
1.00012219e+00
1.00010789e+00
1.00009238e+00
1.00007559e+00
1.00005747e+00
1.00003793e+00
1.00001692e+00
9.99994356e-01
9.99970162e-01
9.99944241e-01
9.99916474e-01
9.99886711e-01
9.99854762e-01
9.99820376e-01
9.99783236e-01
9.99742940e-01
9.99698994e-01
9.99650819e-01
9.99597768e-01
9.99539155e-01
9.99474314e-01
9.99402666e-01
9.99323804e-01
9.99237572e-01
9.99144149e-01
9.99044104e-01
9.98938427e-01
9.98828516e-01
9.98716131e-01
9.98603309e-01
9.98492243e-01
9.98385156e-01
9.98284161e-01
9.98191137e-01
9.98107637e-01
9.98034814e-01
9.97973394e-01
9.97923686e-01
9.97885610e-01
9.97858765e-01
9.97842493e-01
9.97835968e-01
9.97838264e-01
9.97848428e-01
9.97865532e-01
9.97888717e-01
9.97917223e-01
9.97950396e-01
9.97987702e-01
9.98028712e-01
9.98073099e-01
9.98120621e-01
9.98171106e-01
9.98224433e-01
9.98280521e-01
9.98339311e-01
9.98400757e-01
9.98464815e-01
9.98531432e-01
9.98600542e-01
9.98672063e-01
9.98745886e-01
9.98821878e-01
9.98899877e-01
9.98979694e-01
9.99061108e-01
9.99143872e-01
9.99227710e-01
9.99312320e-01
9.99397382e-01
9.99482553e-01
9.99567482e-01
9.99651808e-01
9.99735168e-01
9.99817206e-01
9.99897576e-01
9.99975948e-01
1.00005201e+00
1.00012549e+00
1.00019613e+00
1.00026371e+00
1.00032804e+00
1.00038897e+00
1.00044639e+00
1.00050021e+00
1.00055038e+00
1.00059689e+00
1.00063976e+00
1.00067902e+00
1.00071474e+00
1.00074702e+00
1.00077596e+00
1.00080170e+00
1.00082437e+00
1.00084412e+00
1.00086113e+00
1.00087553e+00
1.00088743e+00
1.00089689e+00
1.00090433e+00
1.00091001e+00
1.00091493e+00
1.00091897e+00
9.99286317e-01
9.99290727e-01
9.99296705e-01
9.99303452e-01
9.99312399e-01
9.99323270e-01
9.99336536e-01
9.99352286e-01
9.99370750e-01
9.99392022e-01
9.99416290e-01
9.99443698e-01
9.99474406e-01
9.99508540e-01
9.99546227e-01
9.99587560e-01
9.99632613e-01
9.99681428e-01
9.99734015e-01
9.99790347e-01
9.99850358e-01
9.99913941e-01
9.99980947e-01
1.00005119e+00
1.00012443e+00
1.00020040e+00
1.00027880e+00
1.00035930e+00
1.00044153e+00
1.00052511e+00
1.00060966e+00
1.00069477e+00
1.00078006e+00
1.00086512e+00
1.00094959e+00
1.00103310e+00
1.00111531e+00
1.00119592e+00
1.00127465e+00
1.00135126e+00
1.00142552e+00
1.00149726e+00
1.00156633e+00
1.00163260e+00
1.00169596e+00
1.00175634e+00
1.00181363e+00
1.00186776e+00
1.00191861e+00
1.00196603e+00
1.00200982e+00
1.00204972e+00
1.00208538e+00
1.00211636e+00
1.00214209e+00
1.00216192e+00
1.00217508e+00
1.00218074e+00
1.00217800e+00
1.00216595e+00
1.00214373e+00
1.00211061e+00
1.00206601e+00
1.00200964e+00
1.00194151e+00
1.00186202e+00
1.00177198e+00
1.00167260e+00
1.00156548e+00
1.00145258e+00
1.00133609e+00
1.00121835e+00
1.00110173e+00
1.00098851e+00
1.00088074e+00
1.00078016e+00
1.00068808e+00
1.00060541e+00
1.00053256e+00
1.00046955e+00
1.00041598e+00
1.00037117e+00
1.00033420e+00
1.00030401e+00
1.00027952e+00
1.00025963e+00
1.00024333e+00
1.00022970e+00
1.00021798e+00
1.00020749e+00
1.00019769e+00
1.00018815e+00
1.00017854e+00
1.00016856e+00
1.00015802e+00
1.00014672e+00
1.00013454e+00
1.00012135e+00
1.00010705e+00
1.00009156e+00
1.00007481e+00
1.00005671e+00
1.00003721e+00
1.00001622e+00
9.99993683e-01
9.99969499e-01
9.99943572e-01
9.99915779e-01
9.99885966e-01
9.99853935e-01
9.99819435e-01
9.99782146e-01
9.99741671e-01
9.99697533e-01
9.99649176e-01
9.99595985e-01
9.99537321e-01
9.99472568e-01
9.99401199e-01
9.99322850e-01
9.99237397e-01
9.99145031e-01
9.99046303e-01
9.98942159e-01
9.98833930e-01
9.98723290e-01
9.98612178e-01
9.98502695e-01
9.98396976e-01
9.98297072e-01
9.98204826e-01
9.98121778e-01
9.98049097e-01
9.97987548e-01
9.97937493e-01
9.97898916e-01
9.97871476e-01
9.97854579e-01
9.97847448e-01
9.97849196e-01
9.97858898e-01
9.97875640e-01
9.97898567e-01
9.97926912e-01
9.97960009e-01
9.97997303e-01
9.98038347e-01
9.98082790e-01
9.98130368e-01
9.98180886e-01
9.98234204e-01
9.98290222e-01
9.98348868e-01
9.98410082e-01
9.98473808e-01
9.98539989e-01
9.98608554e-01
9.98679417e-01
9.98752471e-01
9.98827585e-01
9.98904606e-01
9.98983350e-01
9.99063609e-01
9.99145147e-01
9.99227703e-01
9.99310992e-01
9.99394710e-01
9.99478536e-01
9.99562134e-01
9.99645165e-01
9.99727284e-01
9.99808152e-01
9.99887441e-01
9.99964833e-01
1.00004003e+00
1.00011277e+00
1.00018280e+00
1.00024990e+00
1.00031389e+00
1.00037461e+00
1.00043195e+00
1.00048582e+00
1.00053615e+00
1.00058293e+00
1.00062615e+00
1.00066584e+00
1.00070207e+00
1.00073491e+00
1.00076446e+00
1.00079083e+00
1.00081416e+00
1.00083458e+00
1.00085226e+00
1.00086728e+00
1.00087985e+00
1.00089008e+00
1.00089843e+00
1.00090468e+00
1.00090997e+00
1.00091403e+00
9.99295242e-01
9.99299826e-01
9.99305694e-01
9.99313580e-01
9.99323409e-01
9.99335217e-01
9.99349442e-01
9.99366237e-01
9.99385785e-01
9.99408194e-01
9.99433602e-01
9.99462144e-01
9.99493951e-01
9.99529126e-01
9.99567761e-01
9.99609927e-01
9.99655667e-01
9.99704995e-01
9.99757895e-01
9.99814317e-01
9.99874174e-01
9.99937344e-01
1.00000367e+00
1.00007295e+00
1.00014496e+00
1.00021943e+00
1.00029608e+00
1.00037459e+00
1.00045463e+00
1.00053586e+00
1.00061791e+00
1.00070044e+00
1.00078307e+00
1.00086548e+00
1.00094732e+00
1.00102828e+00
1.00110806e+00
1.00118638e+00
1.00126301e+00
1.00133772e+00
1.00141031e+00
1.00148063e+00
1.00154851e+00
1.00161385e+00
1.00167653e+00
1.00173644e+00
1.00179349e+00
1.00184756e+00
1.00189851e+00
1.00194615e+00
1.00199027e+00
1.00203055e+00
1.00206660e+00
1.00209796e+00
1.00212402e+00
1.00214412e+00
1.00215746e+00
1.00216320e+00
1.00216045e+00
1.00214831e+00
1.00212597e+00
1.00209272e+00
1.00204806e+00
1.00199174e+00
1.00192384e+00
1.00184481e+00
1.00175549e+00
1.00165713e+00
1.00155134e+00
1.00144004e+00
1.00132538e+00
1.00120964e+00
1.00109511e+00
1.00098397e+00
1.00087818e+00
1.00077938e+00
1.00068883e+00
1.00060737e+00
1.00053540e+00
1.00047292e+00
1.00041957e+00
1.00037470e+00
1.00033745e+00
1.00030683e+00
1.00028180e+00
1.00026134e+00
1.00024447e+00
1.00023032e+00
1.00021813e+00
1.00020725e+00
1.00019714e+00
1.00018737e+00
1.00017759e+00
1.00016752e+00
1.00015692e+00
1.00014563e+00
1.00013348e+00
1.00012036e+00
1.00010615e+00
1.00009076e+00
1.00007412e+00
1.00005614e+00
1.00003675e+00
1.00001586e+00
9.99993414e-01
9.99969306e-01
9.99943437e-01
9.99915680e-01
9.99885878e-01
9.99853833e-01
9.99819293e-01
9.99781943e-01
9.99741396e-01
9.99697190e-01
9.99648795e-01
9.99595630e-01
9.99537095e-01
9.99472616e-01
9.99401706e-01
9.99324036e-01
9.99239500e-01
9.99148285e-01
9.99050923e-01
9.98948315e-01
9.98841728e-01
9.98732759e-01
9.98623267e-01
9.98515273e-01
9.98410852e-01
9.98312005e-01
9.98220553e-01
9.98138035e-01
9.98065643e-01
9.98004181e-01
9.97954058e-01
9.97915315e-01
9.97887666e-01
9.97870565e-01
9.97863275e-01
9.97864939e-01
9.97874647e-01
9.97891491e-01
9.97914611e-01
9.97943226e-01
9.97976650e-01
9.98014304e-01
9.98055713e-01
9.98100498e-01
9.98148365e-01
9.98199092e-01
9.98252514e-01
9.98308508e-01
9.98366979e-01
9.98427851e-01
9.98491057e-01
9.98556526e-01
9.98624182e-01
9.98693939e-01
9.98765691e-01
9.98839315e-01
9.98914666e-01
9.98991578e-01
9.99069860e-01
9.99149299e-01
9.99229658e-01
9.99310683e-01
9.99392099e-01
9.99473614e-01
9.99554929e-01
9.99635733e-01
9.99715716e-01
9.99794567e-01
9.99871984e-01
9.99947677e-01
1.00002137e+00
1.00009281e+00
1.00016175e+00
1.00022800e+00
1.00029137e+00
1.00035170e+00
1.00040886e+00
1.00046277e+00
1.00051333e+00
1.00056052e+00
1.00060432e+00
1.00064473e+00
1.00068179e+00
1.00071556e+00
1.00074610e+00
1.00077352e+00
1.00079791e+00
1.00081941e+00
1.00083813e+00
1.00085416e+00
1.00086770e+00
1.00087891e+00
1.00088811e+00
1.00089540e+00
1.00090098e+00
1.00090536e+00
9.99307909e-01
9.99313061e-01
9.99319648e-01
9.99328372e-01
9.99339072e-01
9.99352118e-01
9.99367690e-01
9.99385912e-01
9.99406927e-01
9.99430861e-01
9.99457816e-01
9.99487889e-01
9.99521165e-01
9.99557718e-01
9.99597600e-01
9.99640839e-01
9.99687438e-01
9.99737376e-01
9.99790600e-01
9.99847030e-01
9.99906554e-01
9.99969030e-01
1.00003429e+00
1.00010212e+00
1.00017231e+00
1.00024461e+00
1.00031874e+00
1.00039443e+00
1.00047138e+00
1.00054929e+00
1.00062785e+00
1.00070676e+00
1.00078572e+00
1.00086445e+00
1.00094266e+00
1.00102011e+00
1.00109654e+00
1.00117173e+00
1.00124547e+00
1.00131758e+00
1.00138789e+00
1.00145625e+00
1.00152253e+00
1.00158659e+00
1.00164833e+00
1.00170763e+00
1.00176435e+00
1.00181836e+00
1.00186947e+00
1.00191748e+00
1.00196209e+00
1.00200298e+00
1.00203969e+00
1.00207172e+00
1.00209843e+00
1.00211912e+00
1.00213298e+00
1.00213916e+00
1.00213678e+00
1.00212495e+00
1.00210290e+00
1.00206997e+00
1.00202570e+00
1.00196991e+00
1.00190274e+00
1.00182467e+00
1.00173660e+00
1.00163977e+00
1.00153578e+00
1.00142653e+00
1.00131411e+00
1.00120071e+00
1.00108853e+00
1.00097965e+00
1.00087594e+00
1.00077895e+00
1.00068988e+00
1.00060953e+00
1.00053830e+00
1.00047618e+00
1.00042287e+00
1.00037777e+00
1.00034009e+00
1.00030890e+00
1.00028324e+00
1.00026213e+00
1.00024464e+00
1.00022995e+00
1.00021729e+00
1.00020604e+00
1.00019566e+00
1.00018571e+00
1.00017583e+00
1.00016574e+00
1.00015519e+00
1.00014399e+00
1.00013198e+00
1.00011904e+00
1.00010504e+00
1.00008988e+00
1.00007347e+00
1.00005572e+00
1.00003655e+00
1.00001589e+00
9.99993635e-01
9.99969704e-01
9.99943987e-01
9.99916352e-01
9.99886641e-01
9.99854651e-01
9.99820132e-01
9.99782769e-01
9.99742184e-01
9.99697928e-01
9.99649493e-01
9.99596329e-01
9.99537873e-01
9.99473597e-01
9.99403059e-01
9.99325968e-01
9.99242249e-01
9.99152104e-01
9.99056055e-01
9.98954972e-01
9.98850074e-01
9.98742888e-01
9.98635197e-01
9.98528942e-01
9.98426127e-01
9.98328697e-01
9.98238435e-01
9.98156869e-01
9.98085198e-01
9.98024253e-01
9.97974487e-01
9.97935988e-01
9.97908524e-01
9.97891597e-01
9.97884510e-01
9.97886436e-01
9.97896483e-01
9.97913751e-01
9.97937373e-01
9.97966553e-01
9.98000583e-01
9.98038855e-01
9.98080862e-01
9.98126189e-01
9.98174510e-01
9.98225568e-01
9.98279164e-01
9.98335147e-01
9.98393397e-01
9.98453814e-01
9.98516313e-01
9.98580811e-01
9.98647226e-01
9.98715465e-01
9.98785429e-01
9.98857002e-01
9.98930054e-01
9.99004438e-01
9.99079989e-01
9.99156524e-01
9.99233842e-01
9.99311725e-01
9.99389939e-01
9.99468237e-01
9.99546363e-01
9.99624050e-01
9.99701032e-01
9.99777039e-01
9.99851807e-01
9.99925079e-01
9.99996608e-01
1.00006616e+00
1.00013353e+00
1.00019850e+00
1.00026091e+00
1.00032060e+00
1.00037743e+00
1.00043129e+00
1.00048210e+00
1.00052978e+00
1.00057429e+00
1.00061563e+00
1.00065378e+00
1.00068877e+00
1.00072064e+00
1.00074945e+00
1.00077528e+00
1.00079821e+00
1.00081833e+00
1.00083574e+00
1.00085058e+00
1.00086299e+00
1.00087314e+00
1.00088133e+00
1.00088751e+00
1.00089237e+00
9.99325493e-01
9.99331048e-01
9.99338307e-01
9.99347925e-01
9.99359903e-01
9.99374421e-01
9.99391557e-01
9.99411492e-01
9.99434319e-01
9.99460111e-01
9.99488935e-01
9.99520845e-01
9.99555877e-01
9.99594058e-01
9.99635388e-01
9.99679846e-01
9.99727389e-01
9.99777950e-01
9.99831436e-01
9.99887731e-01
9.99946695e-01
1.00000817e+00
1.00007196e+00
1.00013788e+00
1.00020570e+00
1.00027519e+00
1.00034612e+00
1.00041825e+00
1.00049131e+00
1.00056508e+00
1.00063929e+00
1.00071373e+00
1.00078815e+00
1.00086234e+00
1.00093609e+00
1.00100921e+00
1.00108151e+00
1.00115283e+00
1.00122301e+00
1.00129190e+00
1.00135937e+00
1.00142528e+00
1.00148952e+00
1.00155196e+00
1.00161248e+00
1.00167093e+00
1.00172718e+00
1.00178103e+00
1.00183228e+00
1.00188066e+00
1.00192585e+00
1.00196744e+00
1.00200496e+00
1.00203784e+00
1.00206540e+00
1.00208691e+00
1.00210154e+00
1.00210842e+00
1.00210667e+00
1.00209545e+00
1.00207399e+00
1.00204170e+00
1.00199817e+00
1.00194329e+00
1.00187725e+00
1.00180059e+00
1.00171422e+00
1.00161941e+00
1.00151774e+00
1.00141105e+00
1.00130136e+00
1.00119078e+00
1.00108139e+00
1.00097516e+00
1.00087385e+00
1.00077893e+00
1.00069151e+00
1.00061237e+00
1.00054188e+00
1.00048008e+00
1.00042670e+00
1.00038122e+00
1.00034293e+00
1.00031100e+00
1.00028452e+00
1.00026259e+00
1.00024435e+00
1.00022899e+00
1.00021578e+00
1.00020410e+00
1.00019342e+00
1.00018329e+00
1.00017333e+00
1.00016326e+00
1.00015280e+00
1.00014178e+00
1.00013000e+00
1.00011733e+00
1.00010363e+00
1.00008880e+00
1.00007272e+00
1.00005531e+00
1.00003647e+00
1.00001612e+00
9.99994158e-01
9.99970486e-01
9.99944991e-01
9.99917538e-01
9.99887961e-01
9.99856056e-01
9.99821568e-01
9.99784185e-01
9.99743534e-01
9.99699182e-01
9.99650648e-01
9.99597417e-01
9.99538974e-01
9.99474845e-01
9.99404644e-01
9.99328133e-01
9.99245277e-01
9.99156297e-01
9.99061714e-01
9.98962370e-01
9.98859426e-01
9.98754337e-01
9.98648796e-01
9.98544656e-01
9.98443836e-01
9.98348216e-01
9.98259533e-01
9.98179293e-01
9.98108701e-01
9.98048613e-01
9.97999524e-01
9.97961573e-01
9.97934583e-01
9.97918106e-01
9.97911487e-01
9.97913932e-01
9.97924566e-01
9.97942495e-01
9.97966845e-01
9.97996801e-01
9.98031631e-01
9.98070693e-01
9.98113442e-01
9.98159426e-01
9.98208277e-01
9.98259700e-01
9.98313462e-01
9.98369376e-01
9.98427292e-01
9.98487088e-01
9.98548656e-01
9.98611901e-01
9.98676729e-01
9.98743049e-01
9.98810763e-01
9.98879768e-01
9.98949950e-01
9.99021187e-01
9.99093344e-01
9.99166274e-01
9.99239817e-01
9.99313800e-01
9.99388039e-01
9.99462339e-01
9.99536495e-01
9.99610297e-01
9.99683527e-01
9.99755967e-01
9.99827399e-01
9.99897607e-01
9.99966382e-01
1.00003352e+00
1.00009883e+00
1.00016213e+00
1.00022325e+00
1.00028203e+00
1.00033833e+00
1.00039203e+00
1.00044302e+00
1.00049121e+00
1.00053652e+00
1.00057890e+00
1.00061831e+00
1.00065474e+00
1.00068819e+00
1.00071867e+00
1.00074622e+00
1.00077087e+00
1.00079269e+00
1.00081174e+00
1.00082809e+00
1.00084190e+00
1.00085331e+00
1.00086247e+00
1.00086925e+00
1.00087446e+00
9.99348104e-01
9.99354088e-01
9.99362118e-01
9.99372840e-01
9.99386229e-01
9.99402350e-01
9.99421291e-01
9.99443185e-01
9.99468063e-01
9.99495950e-01
9.99526863e-01
9.99560805e-01
9.99597761e-01
9.99637694e-01
9.99680548e-01
9.99726250e-01
9.99774704e-01
9.99825792e-01
9.99879380e-01
9.99935316e-01
9.99993432e-01
1.00005355e+00
1.00011547e+00
1.00017901e+00
1.00024395e+00
1.00031010e+00
1.00037725e+00
1.00044519e+00
1.00051374e+00
1.00058272e+00
1.00065194e+00
1.00072124e+00
1.00079046e+00
1.00085948e+00
1.00092814e+00
1.00099632e+00
1.00106391e+00
1.00113081e+00
1.00119689e+00
1.00126206e+00
1.00132622e+00
1.00138925e+00
1.00145106e+00
1.00151152e+00
1.00157049e+00
1.00162783e+00
1.00168337e+00
1.00173688e+00
1.00178811e+00
1.00183676e+00
1.00188244e+00
1.00192472e+00
1.00196304e+00
1.00199679e+00
1.00202527e+00
1.00204769e+00
1.00206321e+00
1.00207094e+00
1.00207001e+00
1.00205960e+00
1.00203899e+00
1.00200763e+00
1.00196517e+00
1.00191155e+00
1.00184703e+00
1.00177219e+00
1.00168797e+00
1.00159565e+00
1.00149676e+00
1.00139310e+00
1.00128660e+00
1.00117927e+00
1.00107307e+00
1.00096984e+00
1.00087123e+00
1.00077861e+00
1.00069304e+00
1.00061523e+00
1.00054557e+00
1.00048412e+00
1.00043067e+00
1.00038478e+00
1.00034582e+00
1.00031306e+00
1.00028568e+00
1.00026285e+00
1.00024376e+00
1.00022765e+00
1.00021383e+00
1.00020167e+00
1.00019065e+00
1.00018031e+00
1.00017027e+00
1.00016022e+00
1.00014990e+00
1.00013908e+00
1.00012758e+00
1.00011524e+00
1.00010192e+00
1.00008749e+00
1.00007183e+00
1.00005484e+00
1.00003642e+00
1.00001645e+00
9.99994855e-01
9.99971511e-01
9.99946301e-01
9.99919084e-01
9.99889687e-01
9.99857902e-01
9.99823473e-01
9.99786089e-01
9.99745387e-01
9.99700952e-01
9.99652331e-01
9.99599049e-01
9.99540644e-01
9.99476697e-01
9.99406886e-01
9.99331028e-01
9.99249134e-01
9.99161449e-01
9.99068497e-01
9.98971090e-01
9.98870338e-01
9.98767617e-01
9.98664532e-01
9.98562840e-01
9.98464369e-01
9.98370922e-01
9.98284185e-01
9.98205635e-01
9.98136473e-01
9.98077576e-01
9.98029475e-01
9.97992361e-01
9.97966107e-01
9.97950316e-01
9.97944379e-01
9.97947533e-01
9.97958922e-01
9.97977658e-01
9.98002859e-01
9.98033693e-01
9.98069398e-01
9.98109300e-01
9.98152814e-01
9.98199448e-01
9.98248791e-01
9.98300508e-01
9.98354328e-01
9.98410029e-01
9.98467430e-01
9.98526384e-01
9.98586763e-01
9.98648457e-01
9.98711365e-01
9.98775393e-01
9.98840450e-01
9.98906444e-01
9.98973283e-01
9.99040869e-01
9.99109102e-01
9.99177873e-01
9.99247066e-01
9.99316560e-01
9.99386224e-01
9.99455918e-01
9.99525496e-01
9.99594806e-01
9.99663689e-01
9.99731981e-01
9.99799515e-01
9.99866125e-01
9.99931640e-01
9.99995894e-01
1.00005872e+00
1.00011996e+00
1.00017945e+00
1.00023703e+00
1.00029257e+00
1.00034593e+00
1.00039698e+00
1.00044559e+00
1.00049167e+00
1.00053512e+00
1.00057587e+00
1.00061385e+00
1.00064901e+00
1.00068132e+00
1.00071077e+00
1.00073735e+00
1.00076107e+00
1.00078194e+00
1.00080001e+00
1.00081537e+00
1.00082811e+00
1.00083830e+00
1.00084590e+00
1.00085157e+00
9.99376059e-01
9.99382674e-01
9.99391594e-01
9.99403527e-01
9.99418407e-01
9.99436284e-01
9.99457196e-01
9.99481184e-01
9.99508239e-01
9.99538343e-01
9.99571444e-01
9.99607486e-01
9.99646391e-01
9.99688061e-01
9.99732380e-01
9.99779216e-01
9.99828418e-01
9.99879822e-01
9.99933253e-01
9.99988527e-01
1.00004545e+00
1.00010383e+00
1.00016348e+00
1.00022420e+00
1.00028582e+00
1.00034816e+00
1.00041105e+00
1.00047435e+00
1.00053792e+00
1.00060165e+00
1.00066543e+00
1.00072916e+00
1.00079277e+00
1.00085618e+00
1.00091935e+00
1.00098220e+00
1.00104470e+00
1.00110678e+00
1.00116839e+00
1.00122948e+00
1.00128996e+00
1.00134976e+00
1.00140879e+00
1.00146693e+00
1.00152404e+00
1.00157995e+00
1.00163448e+00
1.00168737e+00
1.00173833e+00
1.00178702e+00
1.00183300e+00
1.00187577e+00
1.00191475e+00
1.00194928e+00
1.00197859e+00
1.00200188e+00
1.00201828e+00
1.00202689e+00
1.00202685e+00
1.00201737e+00
1.00199776e+00
1.00196751e+00
1.00192636e+00
1.00187430e+00
1.00181164e+00
1.00173900e+00
1.00165734e+00
1.00156793e+00
1.00147228e+00
1.00137211e+00
1.00126926e+00
1.00116562e+00
1.00106301e+00
1.00096316e+00
1.00086759e+00
1.00077755e+00
1.00069404e+00
1.00061774e+00
1.00054902e+00
1.00048799e+00
1.00043450e+00
1.00038818e+00
1.00034853e+00
1.00031489e+00
1.00028654e+00
1.00026275e+00
1.00024276e+00
1.00022586e+00
1.00021137e+00
1.00019870e+00
1.00018732e+00
1.00017677e+00
1.00016665e+00
1.00015665e+00
1.00014648e+00
1.00013591e+00
1.00012473e+00
1.00011279e+00
1.00009991e+00
1.00008595e+00
1.00007079e+00
1.00005430e+00
1.00003638e+00
1.00001689e+00
9.99995746e-01
9.99972815e-01
9.99947971e-01
9.99921065e-01
9.99891918e-01
9.99860316e-01
9.99825999e-01
9.99788661e-01
9.99747948e-01
9.99703463e-01
9.99654785e-01
9.99601484e-01
9.99543151e-01
9.99479435e-01
9.99410078e-01
9.99334961e-01
9.99254146e-01
9.99167909e-01
9.99076775e-01
9.98981533e-01
9.98883235e-01
9.98783180e-01
9.98682875e-01
9.98583974e-01
9.98488207e-01
9.98397294e-01
9.98312854e-01
9.98236330e-01
9.98168913e-01
9.98111495e-01
9.98064642e-01
9.98028590e-01
9.98003267e-01
9.97988326e-01
9.97983202e-01
9.97987165e-01
9.97999382e-01
9.98018967e-01
9.98045035e-01
9.98076736e-01
9.98113279e-01
9.98153955e-01
9.98198142e-01
9.98245306e-01
9.98294995e-01
9.98346836e-01
9.98400517e-01
9.98455784e-01
9.98512429e-01
9.98570278e-01
9.98629185e-01
9.98689028e-01
9.98749699e-01
9.98811105e-01
9.98873161e-01
9.98935790e-01
9.98998919e-01
9.99062478e-01
9.99126401e-01
9.99190618e-01
9.99255061e-01
9.99319657e-01
9.99384329e-01
9.99448997e-01
9.99513573e-01
9.99577963e-01
9.99642070e-01
9.99705786e-01
9.99768999e-01
9.99831592e-01
9.99893440e-01
9.99954414e-01
1.00001438e+00
1.00007320e+00
1.00013072e+00
1.00018681e+00
1.00024132e+00
1.00029409e+00
1.00034498e+00
1.00039386e+00
1.00044058e+00
1.00048501e+00
1.00052703e+00
1.00056653e+00
1.00060342e+00
1.00063760e+00
1.00066901e+00
1.00069760e+00
1.00072331e+00
1.00074610e+00
1.00076598e+00
1.00078301e+00
1.00079716e+00
1.00080849e+00
1.00081695e+00
1.00082325e+00
9.99409916e-01
9.99417280e-01
9.99427197e-01
9.99440431e-01
9.99456888e-01
9.99476580e-01
9.99499498e-01
9.99525623e-01
9.99554881e-01
9.99587189e-01
9.99622437e-01
9.99660501e-01
9.99701234e-01
9.99744478e-01
9.99790056e-01
9.99837777e-01
9.99887441e-01
9.99938840e-01
9.99991763e-01
1.00004600e+00
1.00010134e+00
1.00015759e+00
1.00021456e+00
1.00027208e+00
1.00032999e+00
1.00038816e+00
1.00044646e+00
1.00050480e+00
1.00056311e+00
1.00062133e+00
1.00067943e+00
1.00073737e+00
1.00079516e+00
1.00085280e+00
1.00091028e+00
1.00096762e+00
1.00102483e+00
1.00108190e+00
1.00113882e+00
1.00119558e+00
1.00125214e+00
1.00130844e+00
1.00136439e+00
1.00141989e+00
1.00147481e+00
1.00152896e+00
1.00158213e+00
1.00163405e+00
1.00168440e+00
1.00173278e+00
1.00177873e+00
1.00182170e+00
1.00186106e+00
1.00189610e+00
1.00192603e+00
1.00195000e+00
1.00196713e+00
1.00197653e+00
1.00197734e+00
1.00196878e+00
1.00195023e+00
1.00192123e+00
1.00188156e+00
1.00183129e+00
1.00177076e+00
1.00170065e+00
1.00162193e+00
1.00153584e+00
1.00144385e+00
1.00134761e+00
1.00124885e+00
1.00114932e+00
1.00105072e+00
1.00095461e+00
1.00086240e+00
1.00077523e+00
1.00069402e+00
1.00061941e+00
1.00055178e+00
1.00049127e+00
1.00043780e+00
1.00039111e+00
1.00035077e+00
1.00031625e+00
1.00028693e+00
1.00026215e+00
1.00024123e+00
1.00022351e+00
1.00020834e+00
1.00019514e+00
1.00018339e+00
1.00017262e+00
1.00016244e+00
1.00015250e+00
1.00014252e+00
1.00013224e+00
1.00012145e+00
1.00010995e+00
1.00009759e+00
1.00008419e+00
1.00006961e+00
1.00005372e+00
1.00003638e+00
1.00001748e+00
9.99996880e-01
9.99974462e-01
9.99950082e-01
9.99923581e-01
9.99894772e-01
9.99863434e-01
9.99829305e-01
9.99792081e-01
9.99751417e-01
9.99706941e-01
9.99658263e-01
9.99605000e-01
9.99546805e-01
9.99483394e-01
9.99414582e-01
9.99340317e-01
9.99260716e-01
9.99176090e-01
9.99086970e-01
9.98994119e-01
9.98898535e-01
9.98801435e-01
9.98704223e-01
9.98608445e-01
9.98515724e-01
9.98427683e-01
9.98345873e-01
9.98271688e-01
9.98206304e-01
9.98150619e-01
9.98105230e-01
9.98070417e-01
9.98046157e-01
9.98032157e-01
9.98027895e-01
9.98032677e-01
9.98045691e-01
9.98066062e-01
9.98092900e-01
9.98125337e-01
9.98162560e-01
9.98203826e-01
9.98248476e-01
9.98295939e-01
9.98345725e-01
9.98397422e-01
9.98450685e-01
9.98505230e-01
9.98560823e-01
9.98617268e-01
9.98674406e-01
9.98732102e-01
9.98790247e-01
9.98848749e-01
9.98907532e-01
9.98966532e-01
9.99025698e-01
9.99084986e-01
9.99144362e-01
9.99203796e-01
9.99263262e-01
9.99322735e-01
9.99382190e-01
9.99441601e-01
9.99500938e-01
9.99560165e-01
9.99619240e-01
9.99678114e-01
9.99736728e-01
9.99795014e-01
9.99852893e-01
9.99910276e-01
9.99967062e-01
1.00002314e+00
1.00007838e+00
1.00013265e+00
1.00018581e+00
1.00023770e+00
1.00028816e+00
1.00033704e+00
1.00038416e+00
1.00042935e+00
1.00047247e+00
1.00051334e+00
1.00055183e+00
1.00058779e+00
1.00062110e+00
1.00065164e+00
1.00067932e+00
1.00070405e+00
1.00072575e+00
1.00074440e+00
1.00076002e+00
1.00077257e+00
1.00078197e+00
1.00078898e+00
9.99450276e-01
9.99458464e-01
9.99469452e-01
9.99484018e-01
9.99502061e-01
9.99523545e-01
9.99548416e-01
9.99576597e-01
9.99607944e-01
9.99642307e-01
9.99679510e-01
9.99719363e-01
9.99761653e-01
9.99806161e-01
9.99852649e-01
9.99900877e-01
9.99950600e-01
1.00000157e+00
1.00005356e+00
1.00010633e+00
1.00015968e+00
1.00021340e+00
1.00026733e+00
1.00032131e+00
1.00037522e+00
1.00042897e+00
1.00048248e+00
1.00053571e+00
1.00058864e+00
1.00064129e+00
1.00069366e+00
1.00074581e+00
1.00079779e+00
1.00084965e+00
1.00090147e+00
1.00095331e+00
1.00100521e+00
1.00105724e+00
1.00110941e+00
1.00116174e+00
1.00121422e+00
1.00126682e+00
1.00131947e+00
1.00137206e+00
1.00142447e+00
1.00147651e+00
1.00152795e+00
1.00157850e+00
1.00162782e+00
1.00167548e+00
1.00172097e+00
1.00176372e+00
1.00180306e+00
1.00183824e+00
1.00186843e+00
1.00189278e+00
1.00191037e+00
1.00192033e+00
1.00192181e+00
1.00191407e+00
1.00189653e+00
1.00186878e+00
1.00183067e+00
1.00178232e+00
1.00172413e+00
1.00165681e+00
1.00158133e+00
1.00149891e+00
1.00141098e+00
1.00131906e+00
1.00122480e+00
1.00112979e+00
1.00103558e+00
1.00094360e+00
1.00085509e+00
1.00077110e+00
1.00069246e+00
1.00061978e+00
1.00055343e+00
1.00049360e+00
1.00044028e+00
1.00039329e+00
1.00035233e+00
1.00031697e+00
1.00028669e+00
1.00026093e+00
1.00023908e+00
1.00022053e+00
1.00020467e+00
1.00019094e+00
1.00017883e+00
1.00016786e+00
1.00015763e+00
1.00014778e+00
1.00013802e+00
1.00012807e+00
1.00011772e+00
1.00010674e+00
1.00009495e+00
1.00008219e+00
1.00006828e+00
1.00005308e+00
1.00003645e+00
1.00001823e+00
9.99998298e-01
9.99976507e-01
9.99952705e-01
9.99926720e-01
9.99898356e-01
9.99867384e-01
9.99833537e-01
9.99796515e-01
9.99755985e-01
9.99711596e-01
9.99662998e-01
9.99609858e-01
9.99551892e-01
9.99488890e-01
9.99420743e-01
9.99347473e-01
9.99269251e-01
9.99186428e-01
9.99099540e-01
9.99009326e-01
9.98916726e-01
9.98822871e-01
9.98729058e-01
9.98636716e-01
9.98547354e-01
9.98462492e-01
9.98383600e-01
9.98312018e-01
9.98248894e-01
9.98195133e-01
9.98151353e-01
9.98117876e-01
9.98094729e-01
9.98081669e-01
9.98078223e-01
9.98083733e-01
9.98097413e-01
9.98118398e-01
9.98145798e-01
9.98178734e-01
9.98216369e-01
9.98257934e-01
9.98302738e-01
9.98350174e-01
9.98399719e-01
9.98450929e-01
9.98503430e-01
9.98556913e-01
9.98611122e-01
9.98665846e-01
9.98720914e-01
9.98776186e-01
9.98831552e-01
9.98886923e-01
9.98942234e-01
9.98997435e-01
9.99052495e-01
9.99107396e-01
9.99162132e-01
9.99216709e-01
9.99271138e-01
9.99325438e-01
9.99379631e-01
9.99433738e-01
9.99487782e-01
9.99541778e-01
9.99595736e-01
9.99649661e-01
9.99703542e-01
9.99757360e-01
9.99811080e-01
9.99864652e-01
9.99918009e-01
9.99971068e-01
1.00002373e+00
1.00007586e+00
1.00012734e+00
1.00017801e+00
1.00022770e+00
1.00027623e+00
1.00032341e+00
1.00036905e+00
1.00041295e+00
1.00045491e+00
1.00049474e+00
1.00053224e+00
1.00056724e+00
1.00059957e+00
1.00062906e+00
1.00065559e+00
1.00067902e+00
1.00069927e+00
1.00071629e+00
1.00073005e+00
1.00074045e+00
1.00074824e+00
9.99497743e-01
9.99506792e-01
9.99518879e-01
9.99534727e-01
9.99554267e-01
9.99577427e-01
9.99604088e-01
9.99634109e-01
9.99667291e-01
9.99703414e-01
9.99742231e-01
9.99783490e-01
9.99826919e-01
9.99872238e-01
9.99919160e-01
9.99967403e-01
1.00001669e+00
1.00006674e+00
1.00011731e+00
1.00016817e+00
1.00021909e+00
1.00026992e+00
1.00032048e+00
1.00037066e+00
1.00042038e+00
1.00046957e+00
1.00051822e+00
1.00056633e+00
1.00061394e+00
1.00066111e+00
1.00070790e+00
1.00075443e+00
1.00080078e+00
1.00084708e+00
1.00089342e+00
1.00093992e+00
1.00098668e+00
1.00103376e+00
1.00108124e+00
1.00112916e+00
1.00117752e+00
1.00122632e+00
1.00127549e+00
1.00132496e+00
1.00137458e+00
1.00142418e+00
1.00147351e+00
1.00152228e+00
1.00157012e+00
1.00161658e+00
1.00166113e+00
1.00170317e+00
1.00174200e+00
1.00177683e+00
1.00180683e+00
1.00183112e+00
1.00184878e+00
1.00185896e+00
1.00186082e+00
1.00185367e+00
1.00183697e+00
1.00181037e+00
1.00177380e+00
1.00172742e+00
1.00167168e+00
1.00160732e+00
1.00153532e+00
1.00145685e+00
1.00137327e+00
1.00128604e+00
1.00119662e+00
1.00110650e+00
1.00101706e+00
1.00092954e+00
1.00084507e+00
1.00076458e+00
1.00068880e+00
1.00061829e+00
1.00055345e+00
1.00049449e+00
1.00044148e+00
1.00039433e+00
1.00035286e+00
1.00031674e+00
1.00028558e+00
1.00025889e+00
1.00023615e+00
1.00021680e+00
1.00020028e+00
1.00018604e+00
1.00017358e+00
1.00016243e+00
1.00015219e+00
1.00014247e+00
1.00013297e+00
1.00012341e+00
1.00011354e+00
1.00010314e+00
1.00009202e+00
1.00007997e+00
1.00006683e+00
1.00005243e+00
1.00003660e+00
1.00001919e+00
1.00000005e+00
9.99979020e-01
9.99955928e-01
9.99930592e-01
9.99902802e-01
9.99872322e-01
9.99838879e-01
9.99802176e-01
9.99761894e-01
9.99717706e-01
9.99669300e-01
9.99616399e-01
9.99558787e-01
9.99496328e-01
9.99428995e-01
9.99356881e-01
9.99280220e-01
9.99199399e-01
9.99114963e-01
9.99027624e-01
9.98938261e-01
9.98847917e-01
9.98757778e-01
9.98669150e-01
9.98583417e-01
9.98501992e-01
9.98426251e-01
9.98357474e-01
9.98296776e-01
9.98245056e-01
9.98202954e-01
9.98170830e-01
9.98148759e-01
9.98136551e-01
9.98133780e-01
9.98139828e-01
9.98153939e-01
9.98175266e-01
9.98202921e-01
9.98236017e-01
9.98273703e-01
9.98315187e-01
9.98359751e-01
9.98406760e-01
9.98455662e-01
9.98505988e-01
9.98557341e-01
9.98609392e-01
9.98661871e-01
9.98714555e-01
9.98767268e-01
9.98819868e-01
9.98872247e-01
9.98924323e-01
9.98976040e-01
9.99027364e-01
9.99078283e-01
9.99128799e-01
9.99178934e-01
9.99228721e-01
9.99278205e-01
9.99327440e-01
9.99376487e-01
9.99425408e-01
9.99474268e-01
9.99523127e-01
9.99572040e-01
9.99621056e-01
9.99670209e-01
9.99719523e-01
9.99769003e-01
9.99818637e-01
9.99868393e-01
9.99918214e-01
9.99968024e-01
1.00001772e+00
1.00006718e+00
1.00011625e+00
1.00016477e+00
1.00021254e+00
1.00025937e+00