# vtk DataFile Version 2.0
LBM Flow Field - Timestep 500
ASCII
DATASET STRUCTURED_POINTS
DIMENSIONS 200 100 1
ORIGIN 0.0 0.0 0.0
SPACING 1.0 1.0 1.0
POINT_DATA 20000
SCALARS density double 1
LOOKUP_TABLE default
1.00252554e+00
1.00252486e+00
1.00252414e+00
1.00252216e+00
1.00251982e+00
1.00251750e+00
1.00251497e+00
1.00251229e+00
1.00250966e+00
1.00250708e+00
1.00250452e+00
1.00250200e+00
1.00249952e+00
1.00249705e+00
1.00249459e+00
1.00249214e+00
1.00248969e+00
1.00248723e+00
1.00248478e+00
1.00248233e+00
1.00247988e+00
1.00247742e+00
1.00247494e+00
1.00247242e+00
1.00246982e+00
1.00246712e+00
1.00246428e+00
1.00246125e+00
1.00245797e+00
1.00245439e+00
1.00245046e+00
1.00244612e+00
1.00244132e+00
1.00243601e+00
1.00243012e+00
1.00242360e+00
1.00241639e+00
1.00240843e+00
1.00239963e+00
1.00238991e+00
1.00237919e+00
1.00236735e+00
1.00235428e+00
1.00233982e+00
1.00232384e+00
1.00230615e+00
1.00228657e+00
1.00226489e+00
1.00224087e+00
1.00221424e+00
1.00218468e+00
1.00215179e+00
1.00211509e+00
1.00207396e+00
1.00202762e+00
1.00197516e+00
1.00191554e+00
1.00184764e+00
1.00177036e+00
1.00168278e+00
1.00158423e+00
1.00147453e+00
1.00135404e+00
1.00122380e+00
1.00108552e+00
1.00094154e+00
1.00079470e+00
1.00064813e+00
1.00050508e+00
1.00036865e+00
1.00024158e+00
1.00012609e+00
1.00002378e+00
9.99935550e-01
9.99861663e-01
9.99801788e-01
9.99755119e-01
9.99720500e-01
9.99696554e-01
9.99681807e-01
9.99674785e-01
9.99674094e-01
9.99678474e-01
9.99686828e-01
9.99698232e-01
9.99711932e-01
9.99727329e-01
9.99743961e-01
9.99761480e-01
9.99779627e-01
9.99798219e-01
9.99817126e-01
9.99836257e-01
9.99855552e-01
9.99874970e-01
9.99894484e-01
9.99914076e-01
9.99933735e-01
9.99953452e-01
9.99973222e-01
9.99993038e-01
1.00001290e+00
1.00003279e+00
1.00005270e+00
1.00007262e+00
1.00009251e+00
1.00011236e+00
1.00013210e+00
1.00015165e+00
1.00017090e+00
1.00018969e+00
1.00020778e+00
1.00022489e+00
1.00024059e+00
1.00025436e+00
1.00026552e+00
1.00027325e+00
1.00027655e+00
1.00027425e+00
1.00026505e+00
1.00024755e+00
1.00022029e+00
1.00018184e+00
1.00013094e+00
1.00006653e+00
9.99987962e-01
9.99895045e-01
9.99788161e-01
9.99668315e-01
9.99537149e-01
9.99396899e-01
9.99250298e-01
9.99100440e-01
9.98950590e-01
9.98803985e-01
9.98663631e-01
9.98532112e-01
9.98411449e-01
9.98303004e-01
9.98207451e-01
9.98124806e-01
9.98054517e-01
9.97995587e-01
9.97946723e-01
9.97906490e-01
9.97873443e-01
9.97846234e-01
9.97823686e-01
9.97804823e-01
9.97788878e-01
9.97775269e-01
9.97763569e-01
9.97753467e-01
9.97744733e-01
9.97737192e-01
9.97730701e-01
9.97725137e-01
9.97720396e-01
9.97716383e-01
9.97713018e-01
9.97710230e-01
9.97707959e-01
9.97706153e-01
9.97704766e-01
9.97703757e-01
9.97703084e-01
9.97702708e-01
9.97702585e-01
9.97702674e-01
9.97702928e-01
9.97703303e-01
9.97703753e-01
9.97704234e-01
9.97704707e-01
9.97705136e-01
9.97705491e-01
9.97705749e-01
9.97705893e-01
9.97705912e-01
9.97705801e-01
9.97705557e-01
9.97705181e-01
9.97704673e-01
9.97704036e-01
9.97703269e-01
9.97702365e-01
9.97701320e-01
9.97700131e-01
9.97698781e-01
9.97697249e-01
9.97695541e-01
9.97693682e-01
9.97691631e-01
9.97689414e-01
9.97687213e-01
9.97685102e-01
9.97682853e-01
9.97680817e-01
9.97679986e-01
9.97679228e-01
1.00252384e+00
1.00252242e+00
1.00252127e+00
1.00251932e+00
1.00251707e+00
1.00251472e+00
1.00251222e+00
1.00250964e+00
1.00250704e+00
1.00250446e+00
1.00250190e+00
1.00249936e+00
1.00249685e+00
1.00249435e+00
1.00249186e+00
1.00248938e+00
1.00248690e+00
1.00248443e+00
1.00248197e+00
1.00247951e+00
1.00247705e+00
1.00247458e+00
1.00247210e+00
1.00246957e+00
1.00246696e+00
1.00246426e+00
1.00246141e+00
1.00245836e+00
1.00245507e+00
1.00245148e+00
1.00244754e+00
1.00244319e+00
1.00243838e+00
1.00243306e+00
1.00242717e+00
1.00242065e+00
1.00241344e+00
1.00240547e+00
1.00239666e+00
1.00238693e+00
1.00237619e+00
1.00236433e+00
1.00235121e+00
1.00233672e+00
1.00232068e+00
1.00230294e+00
1.00228329e+00
1.00226153e+00
1.00223741e+00
1.00221066e+00
1.00218093e+00
1.00214783e+00
1.00211084e+00
1.00206935e+00
1.00202261e+00
1.00196974e+00
1.00190975e+00
1.00184161e+00
1.00176433e+00
1.00167706e+00
1.00157925e+00
1.00147074e+00
1.00135190e+00
1.00122373e+00
1.00108783e+00
1.00094638e+00
1.00080206e+00
1.00065782e+00
1.00051675e+00
1.00038183e+00
1.00025572e+00
1.00014063e+00
1.00003817e+00
9.99949329e-01
9.99874456e-01
9.99813335e-01
9.99765271e-01
9.99729208e-01
9.99703854e-01
9.99687795e-01
9.99679600e-01
9.99677897e-01
9.99681430e-01
9.99689095e-01
9.99699954e-01
9.99713233e-01
9.99728312e-01
9.99744709e-01
9.99762057e-01
9.99780082e-01
9.99798588e-01
9.99817434e-01
9.99836523e-01
9.99855787e-01
9.99875183e-01
9.99894680e-01
9.99914258e-01
9.99933905e-01
9.99953612e-01
9.99973371e-01
9.99993177e-01
1.00001302e+00
1.00003290e+00
1.00005279e+00
1.00007269e+00
1.00009256e+00
1.00011237e+00
1.00013205e+00
1.00015152e+00
1.00017066e+00
1.00018928e+00
1.00020716e+00
1.00022397e+00
1.00023927e+00
1.00025253e+00
1.00026304e+00
1.00026996e+00
1.00027228e+00
1.00026884e+00
1.00025835e+00
1.00023943e+00
1.00021068e+00
1.00017075e+00
1.00011844e+00
1.00005283e+00
9.99973345e-01
9.99879916e-01
9.99773008e-01
9.99653686e-01
9.99523615e-01
9.99385008e-01
9.99240535e-01
9.99093177e-01
9.98946056e-01
9.98802244e-01
9.98664577e-01
9.98535481e-01
9.98416850e-01
9.98309957e-01
9.98215439e-01
9.98133322e-01
9.98063109e-01
9.98003889e-01
9.97954476e-01
9.97913543e-01
9.97879744e-01
9.97851810e-01
9.97828616e-01
9.97809215e-01
9.97792844e-01
9.97778914e-01
9.97766977e-01
9.97756702e-01
9.97747840e-01
9.97740200e-01
9.97733630e-01
9.97728001e-01
9.97723206e-01
9.97719150e-01
9.97715751e-01
9.97712938e-01
9.97710649e-01
9.97708830e-01
9.97707433e-01
9.97706416e-01
9.97705735e-01
9.97705349e-01
9.97705216e-01
9.97705293e-01
9.97705536e-01
9.97705898e-01
9.97706336e-01
9.97706806e-01
9.97707269e-01
9.97707690e-01
9.97708038e-01
9.97708289e-01
9.97708426e-01
9.97708436e-01
9.97708314e-01
9.97708054e-01
9.97707659e-01
9.97707126e-01
9.97706459e-01
9.97705655e-01
9.97704714e-01
9.97703629e-01
9.97702398e-01
9.97701009e-01
9.97699461e-01
9.97697747e-01
9.97695888e-01
9.97693873e-01
9.97691755e-01
9.97689587e-01
9.97687461e-01
9.97685316e-01
9.97683381e-01
9.97682171e-01
9.97680705e-01
1.00252011e+00
1.00251778e+00
1.00251556e+00
1.00251354e+00
1.00251136e+00
1.00250875e+00
1.00250614e+00
1.00250357e+00
1.00250094e+00
1.00249828e+00
1.00249566e+00
1.00249306e+00
1.00249048e+00
1.00248792e+00
1.00248538e+00
1.00248285e+00
1.00248034e+00
1.00247784e+00
1.00247536e+00
1.00247289e+00
1.00247043e+00
1.00246797e+00
1.00246550e+00
1.00246299e+00
1.00246041e+00
1.00245773e+00
1.00245490e+00
1.00245189e+00
1.00244863e+00
1.00244508e+00
1.00244118e+00
1.00243688e+00
1.00243212e+00
1.00242686e+00
1.00242102e+00
1.00241456e+00
1.00240741e+00
1.00239950e+00
1.00239075e+00
1.00238108e+00
1.00237039e+00
1.00235858e+00
1.00234551e+00
1.00233105e+00
1.00231505e+00
1.00229733e+00
1.00227770e+00
1.00225595e+00
1.00223182e+00
1.00220503e+00
1.00217523e+00
1.00214200e+00
1.00210484e+00
1.00206313e+00
1.00201614e+00
1.00196303e+00
1.00190288e+00
1.00183474e+00
1.00175768e+00
1.00167097e+00
1.00157408e+00
1.00146691e+00
1.00134982e+00
1.00122374e+00
1.00109016e+00
1.00095114e+00
1.00080918e+00
1.00066708e+00
1.00052780e+00
1.00039421e+00
1.00026892e+00
1.00015411e+00
1.00005145e+00
9.99961981e-01
9.99886152e-01
9.99823849e-01
9.99774479e-01
9.99737078e-01
9.99710426e-01
9.99693167e-01
9.99683904e-01
9.99681282e-01
9.99684051e-01
9.99691097e-01
9.99701468e-01
9.99714373e-01
9.99729171e-01
9.99745362e-01
9.99762562e-01
9.99780483e-01
9.99798917e-01
9.99817714e-01
9.99836769e-01
9.99856011e-01
9.99875391e-01
9.99894876e-01
9.99914446e-01
9.99934087e-01
9.99953788e-01
9.99973542e-01
9.99993342e-01
1.00001318e+00
1.00003305e+00
1.00005293e+00
1.00007282e+00
1.00009267e+00
1.00011244e+00
1.00013207e+00
1.00015147e+00
1.00017050e+00
1.00018898e+00
1.00020666e+00
1.00022318e+00
1.00023811e+00
1.00025088e+00
1.00026077e+00
1.00026691e+00
1.00026829e+00
1.00026376e+00
1.00025202e+00
1.00023173e+00
1.00020154e+00
1.00016016e+00
1.00010648e+00
1.00003967e+00
9.99959276e-01
9.99865313e-01
9.99758339e-01
9.99639483e-01
9.99510436e-01
9.99373401e-01
9.99230988e-01
9.99086080e-01
9.98941667e-01
9.98800665e-01
9.98665744e-01
9.98539178e-01
9.98422727e-01
9.98317574e-01
9.98224307e-01
9.98142950e-01
9.98073047e-01
9.98013762e-01
9.97964005e-01
9.97922549e-01
9.97888144e-01
9.97859600e-01
9.97835848e-01
9.97815976e-01
9.97799234e-01
9.97785027e-01
9.97772897e-01
9.97762495e-01
9.97753553e-01
9.97745867e-01
9.97739273e-01
9.97733638e-01
9.97728850e-01
9.97724812e-01
9.97721441e-01
9.97718663e-01
9.97716416e-01
9.97714645e-01
9.97713299e-01
9.97712333e-01
9.97711703e-01
9.97711367e-01
9.97711282e-01
9.97711404e-01
9.97711689e-01
9.97712092e-01
9.97712567e-01
9.97713072e-01
9.97713567e-01
9.97714016e-01
9.97714387e-01
9.97714657e-01
9.97714807e-01
9.97714823e-01
9.97714697e-01
9.97714426e-01
9.97714008e-01
9.97713445e-01
9.97712736e-01
9.97711879e-01
9.97710878e-01
9.97709727e-01
9.97708417e-01
9.97706950e-01
9.97705334e-01
9.97703553e-01
9.97701598e-01
9.97699542e-01
9.97697425e-01
9.97695152e-01
9.97692770e-01
9.97690691e-01
9.97688700e-01
9.97686459e-01
9.97684076e-01
1.00251287e+00
1.00250993e+00
1.00250731e+00
1.00250470e+00
1.00250202e+00
1.00249928e+00
1.00249655e+00
1.00249377e+00
1.00249098e+00
1.00248823e+00
1.00248550e+00
1.00248279e+00
1.00248011e+00
1.00247747e+00
1.00247485e+00
1.00247227e+00
1.00246971e+00
1.00246718e+00
1.00246469e+00
1.00246222e+00
1.00245977e+00
1.00245733e+00
1.00245489e+00
1.00245242e+00
1.00244990e+00
1.00244728e+00
1.00244452e+00
1.00244159e+00
1.00243842e+00
1.00243496e+00
1.00243117e+00
1.00242698e+00
1.00242234e+00
1.00241720e+00
1.00241150e+00
1.00240518e+00
1.00239818e+00
1.00239041e+00
1.00238182e+00
1.00237230e+00
1.00236176e+00
1.00235009e+00
1.00233717e+00
1.00232285e+00
1.00230699e+00
1.00228940e+00
1.00226990e+00
1.00224826e+00
1.00222422e+00
1.00219749e+00
1.00216770e+00
1.00213442e+00
1.00209714e+00
1.00205523e+00
1.00200799e+00
1.00195460e+00
1.00189420e+00
1.00182592e+00
1.00174893e+00
1.00166256e+00
1.00156641e+00
1.00146041e+00
1.00134493e+00
1.00122087e+00
1.00108965e+00
1.00095318e+00
1.00081381e+00
1.00067418e+00
1.00053707e+00
1.00040522e+00
1.00028116e+00
1.00016704e+00
1.00006453e+00
9.99974720e-01
9.99898153e-01
9.99834815e-01
9.99784219e-01
9.99745502e-01
9.99717535e-01
9.99699027e-01
9.99688629e-01
9.99685016e-01
9.99686946e-01
9.99693306e-01
9.99703132e-01
9.99715613e-01
9.99730094e-01
9.99746051e-01
9.99763083e-01
9.99780888e-01
9.99799243e-01
9.99817988e-01
9.99837009e-01
9.99856230e-01
9.99875597e-01
9.99895076e-01
9.99914643e-01
9.99934282e-01
9.99953982e-01
9.99973736e-01
9.99993536e-01
1.00001337e+00
1.00003324e+00
1.00005312e+00
1.00007299e+00
1.00009282e+00
1.00011256e+00
1.00013214e+00
1.00015145e+00
1.00017037e+00
1.00018868e+00
1.00020611e+00
1.00022231e+00
1.00023680e+00
1.00024900e+00
1.00025818e+00
1.00026344e+00
1.00026378e+00
1.00025803e+00
1.00024494e+00
1.00022320e+00
1.00019151e+00
1.00014868e+00
1.00009368e+00
1.00002580e+00
9.99944702e-01
9.99850494e-01
9.99743819e-01
9.99625854e-01
9.99498301e-01
9.99363322e-01
9.99223442e-01
9.99081416e-01
9.98940074e-01
9.98802154e-01
9.98670152e-01
9.98546182e-01
9.98431882e-01
9.98328355e-01
9.98236163e-01
9.98155356e-01
9.98085544e-01
9.98025987e-01
9.97975709e-01
9.97933597e-01
9.97898499e-01
9.97869304e-01
9.97844996e-01
9.97824687e-01
9.97807633e-01
9.97793230e-01
9.97780998e-01
9.97770566e-01
9.97761647e-01
9.97754020e-01
9.97747508e-01
9.97741971e-01
9.97737292e-01
9.97733372e-01
9.97730125e-01
9.97727478e-01
9.97725365e-01
9.97723730e-01
9.97722519e-01
9.97721688e-01
9.97721189e-01
9.97720980e-01
9.97721015e-01
9.97721252e-01
9.97721645e-01
9.97722148e-01
9.97722716e-01
9.97723306e-01
9.97723878e-01
9.97724394e-01
9.97724824e-01
9.97725142e-01
9.97725328e-01
9.97725368e-01
9.97725253e-01
9.97724979e-01
9.97724543e-01
9.97723946e-01
9.97723188e-01
9.97722269e-01
9.97721188e-01
9.97719944e-01
9.97718534e-01
9.97716955e-01
9.97715205e-01
9.97713298e-01
9.97711230e-01
9.97709010e-01
9.97706665e-01
9.97704258e-01
9.97701725e-01
9.97699155e-01
9.97696572e-01
9.97693902e-01
9.97690845e-01
1.00250219e+00
1.00249841e+00
1.00249530e+00
1.00249203e+00
1.00248885e+00
1.00248586e+00
1.00248283e+00
1.00247977e+00
1.00247679e+00
1.00247387e+00
1.00247096e+00
1.00246810e+00
1.00246530e+00
1.00246255e+00
1.00245984e+00
1.00245718e+00
1.00245457e+00
1.00245201e+00
1.00244950e+00
1.00244703e+00
1.00244461e+00
1.00244221e+00
1.00243983e+00
1.00243743e+00
1.00243499e+00
1.00243247e+00
1.00242983e+00
1.00242702e+00
1.00242399e+00
1.00242069e+00
1.00241706e+00
1.00241304e+00
1.00240860e+00
1.00240366e+00
1.00239817e+00
1.00239206e+00
1.00238528e+00
1.00237775e+00
1.00236939e+00
1.00236010e+00
1.00234980e+00
1.00233837e+00
1.00232568e+00
1.00231159e+00
1.00229594e+00
1.00227857e+00
1.00225927e+00
1.00223781e+00
1.00221391e+00
1.00218728e+00
1.00215752e+00
1.00212418e+00
1.00208673e+00
1.00204455e+00
1.00199694e+00
1.00194314e+00
1.00188233e+00
1.00181375e+00
1.00173669e+00
1.00165060e+00
1.00155516e+00
1.00145038e+00
1.00133668e+00
1.00121490e+00
1.00108638e+00
1.00095287e+00
1.00081654e+00
1.00067984e+00
1.00054536e+00
1.00041569e+00
1.00029324e+00
1.00018011e+00
1.00007797e+00
9.99987978e-01
9.99910757e-01
9.99846407e-01
9.99794564e-01
9.99754478e-01
9.99725121e-01
9.99705280e-01
9.99693663e-01
9.99688979e-01
9.99690001e-01
9.99695617e-01
9.99704850e-01
9.99716875e-01
9.99731012e-01
9.99746720e-01
9.99763577e-01
9.99781262e-01
9.99799538e-01
9.99818233e-01
9.99837227e-01
9.99856433e-01
9.99875795e-01
9.99895274e-01
9.99914845e-01
9.99934490e-01
9.99954198e-01
9.99973960e-01
9.99993767e-01
1.00001361e+00
1.00003348e+00
1.00005336e+00
1.00007322e+00
1.00009304e+00
1.00011275e+00
1.00013227e+00
1.00015151e+00
1.00017029e+00
1.00018842e+00
1.00020559e+00
1.00022143e+00
1.00023544e+00
1.00024701e+00
1.00025539e+00
1.00025969e+00
1.00025887e+00
1.00025179e+00
1.00023722e+00
1.00021390e+00
1.00018061e+00
1.00013624e+00
1.00007989e+00
1.00001096e+00
9.99929238e-01
9.99834949e-01
9.99728822e-01
9.99612085e-01
9.99486439e-01
9.99353997e-01
9.99217178e-01
9.99078583e-01
9.98940853e-01
9.98806521e-01
9.98677879e-01
9.98556860e-01
9.98444965e-01
9.98343213e-01
9.98252141e-01
9.98171835e-01
9.98101988e-01
9.98041984e-01
9.97990980e-01
9.97948001e-01
9.97912016e-01
9.97882005e-01
9.97857014e-01
9.97836187e-01
9.97818782e-01
9.97804178e-01
9.97791873e-01
9.97781464e-01
9.97772638e-01
9.97765149e-01
9.97758807e-01
9.97753459e-01
9.97748982e-01
9.97745274e-01
9.97742246e-01
9.97739822e-01
9.97737935e-01
9.97736526e-01
9.97735540e-01
9.97734928e-01
9.97734643e-01
9.97734639e-01
9.97734871e-01
9.97735293e-01
9.97735860e-01
9.97736526e-01
9.97737245e-01
9.97737973e-01
9.97738669e-01
9.97739297e-01
9.97739823e-01
9.97740221e-01
9.97740471e-01
9.97740557e-01
9.97740469e-01
9.97740202e-01
9.97739754e-01
9.97739122e-01
9.97738309e-01
9.97737315e-01
9.97736136e-01
9.97734773e-01
9.97733227e-01
9.97731498e-01
9.97729569e-01
9.97727460e-01
9.97725198e-01
9.97722758e-01
9.97720110e-01
9.97717379e-01
9.97714573e-01
9.97711490e-01
9.97708226e-01
9.97705024e-01
9.97701084e-01
1.00248739e+00
1.00248258e+00
1.00247862e+00
1.00247488e+00
1.00247128e+00
1.00246775e+00
1.00246431e+00
1.00246099e+00
1.00245775e+00
1.00245454e+00
1.00245143e+00
1.00244839e+00
1.00244542e+00
1.00244252e+00
1.00243970e+00
1.00243696e+00
1.00243429e+00
1.00243169e+00
1.00242916e+00
1.00242671e+00
1.00242432e+00
1.00242198e+00
1.00241967e+00
1.00241737e+00
1.00241505e+00
1.00241266e+00
1.00241017e+00
1.00240753e+00
1.00240468e+00
1.00240158e+00
1.00239817e+00
1.00239439e+00
1.00239019e+00
1.00238552e+00
1.00238030e+00
1.00237448e+00
1.00236800e+00
1.00236077e+00
1.00235272e+00
1.00234375e+00
1.00233376e+00
1.00232264e+00
1.00231025e+00
1.00229647e+00
1.00228112e+00
1.00226403e+00
1.00224499e+00
1.00222376e+00
1.00220006e+00
1.00217356e+00
1.00214384e+00
1.00211045e+00
1.00207283e+00
1.00203036e+00
1.00198236e+00
1.00192811e+00
1.00186688e+00
1.00179800e+00
1.00172087e+00
1.00163507e+00
1.00154041e+00
1.00143698e+00
1.00132521e+00
1.00120592e+00
1.00108035e+00
1.00095012e+00
1.00081719e+00
1.00068381e+00
1.00055235e+00
1.00042523e+00
1.00030475e+00
1.00019292e+00
1.00009142e+00
1.00000144e+00
9.99923701e-01
9.99858420e-01
9.99805359e-01
9.99763894e-01
9.99733105e-01
9.99711873e-01
9.99698969e-01
9.99693145e-01
9.99693194e-01
9.99698009e-01
9.99706603e-01
9.99718135e-01
9.99731905e-01
9.99747347e-01
9.99764019e-01
9.99781582e-01
9.99799781e-01
9.99818433e-01
9.99837406e-01
9.99856607e-01
9.99875975e-01
9.99895465e-01
9.99915051e-01
9.99934713e-01
9.99954438e-01
9.99974218e-01
9.99994043e-01
1.00001390e+00
1.00003379e+00
1.00005368e+00
1.00007354e+00
1.00009335e+00
1.00011303e+00
1.00013251e+00
1.00015166e+00
1.00017031e+00
1.00018823e+00
1.00020512e+00
1.00022056e+00
1.00023404e+00
1.00024492e+00
1.00025243e+00
1.00025567e+00
1.00025360e+00
1.00024508e+00
1.00022894e+00
1.00020395e+00
1.00016900e+00
1.00012306e+00
1.00006537e+00
9.99995461e-01
9.99913248e-01
9.99819081e-01
9.99713773e-01
9.99598597e-01
9.99475247e-01
9.99345769e-01
9.99212459e-01
9.99077747e-01
9.98944064e-01
9.98813721e-01
9.98688790e-01
9.98571016e-01
9.98461754e-01
9.98361940e-01
9.98272091e-01
9.98192334e-01
9.98122460e-01
9.98061980e-01
9.98010201e-01
9.97966294e-01
9.97929354e-01
9.97898466e-01
9.97872741e-01
9.97851357e-01
9.97833579e-01
9.97818774e-01
9.97806412e-01
9.97796060e-01
9.97787375e-01
9.97780086e-01
9.97773984e-01
9.97768902e-01
9.97764709e-01
9.97761296e-01
9.97758570e-01
9.97756454e-01
9.97754876e-01
9.97753774e-01
9.97753093e-01
9.97752779e-01
9.97752782e-01
9.97753056e-01
9.97753554e-01
9.97754228e-01
9.97755033e-01
9.97755920e-01
9.97756843e-01
9.97757759e-01
9.97758625e-01
9.97759403e-01
9.97760060e-01
9.97760569e-01
9.97760907e-01
9.97761058e-01
9.97761011e-01
9.97760761e-01
9.97760303e-01
9.97759636e-01
9.97758760e-01
9.97757675e-01
9.97756382e-01
9.97754878e-01
9.97753159e-01
9.97751231e-01
9.97749096e-01
9.97746741e-01
9.97744170e-01
9.97741422e-01
9.97738483e-01
9.97735305e-01
9.97731935e-01
9.97728388e-01
9.97724606e-01
9.97720549e-01
9.97715550e-01
1.00246717e+00
1.00246144e+00
1.00245673e+00
1.00245242e+00
1.00244826e+00
1.00244420e+00
1.00244035e+00
1.00243666e+00
1.00243305e+00
1.00242956e+00
1.00242619e+00
1.00242292e+00
1.00241975e+00
1.00241669e+00
1.00241374e+00
1.00241089e+00
1.00240814e+00
1.00240550e+00
1.00240296e+00
1.00240052e+00
1.00239817e+00
1.00239590e+00
1.00239368e+00
1.00239150e+00
1.00238932e+00
1.00238709e+00
1.00238479e+00
1.00238235e+00
1.00237973e+00
1.00237688e+00
1.00237373e+00
1.00237024e+00
1.00236635e+00
1.00236200e+00
1.00235712e+00
1.00235166e+00
1.00234554e+00
1.00233868e+00
1.00233101e+00
1.00232243e+00
1.00231283e+00
1.00230210e+00
1.00229011e+00
1.00227671e+00
1.00226174e+00
1.00224502e+00
1.00222633e+00
1.00220541e+00
1.00218197e+00
1.00215566e+00
1.00212604e+00
1.00209263e+00
1.00205486e+00
1.00201211e+00
1.00196371e+00
1.00190900e+00
1.00184733e+00
1.00177813e+00
1.00170095e+00
1.00161551e+00
1.00152171e+00
1.00141975e+00
1.00131010e+00
1.00119355e+00
1.00107124e+00
1.00094463e+00
1.00081548e+00
1.00068580e+00
1.00055777e+00
1.00043359e+00
1.00031542e+00
1.00020521e+00
1.00010460e+00
1.00001483e+00
9.99936719e-01
9.99870594e-01
9.99816355e-01
9.99773513e-01
9.99741270e-01
9.99718605e-01
9.99704365e-01
9.99697349e-01
9.99696380e-01
9.99700353e-01
9.99708278e-01
9.99719296e-01
9.99732684e-01
9.99747856e-01
9.99764346e-01
9.99781792e-01
9.99799926e-01
9.99818548e-01
9.99837516e-01
9.99856728e-01
9.99876116e-01
9.99895634e-01
9.99915251e-01
9.99934946e-01
9.99954705e-01
9.99974519e-01
9.99994377e-01
1.00001427e+00
1.00003418e+00
1.00005409e+00
1.00007398e+00
1.00009379e+00
1.00011346e+00
1.00013289e+00
1.00015196e+00
1.00017048e+00
1.00018819e+00
1.00020477e+00
1.00021979e+00
1.00023271e+00
1.00024285e+00
1.00024944e+00
1.00025154e+00
1.00024813e+00
1.00023811e+00
1.00022030e+00
1.00019359e+00
1.00015691e+00
1.00010940e+00
1.00005040e+00
9.99979587e-01
9.99897025e-01
9.99803183e-01
9.99698961e-01
9.99585674e-01
9.99465001e-01
9.99338906e-01
9.99209549e-01
9.99079169e-01
9.98949972e-01
9.98824027e-01
9.98703175e-01
9.98588960e-01
9.98482585e-01
9.98384899e-01
9.98296403e-01
9.98217274e-01
9.98147404e-01
9.98086446e-01
9.98033866e-01
9.97988991e-01
9.97951057e-01
9.97919256e-01
9.97892773e-01
9.97870825e-01
9.97852686e-01
9.97837709e-01
9.97825336e-01
9.97815103e-01
9.97806632e-01
9.97799625e-01
9.97793850e-01
9.97789124e-01
9.97785305e-01
9.97782277e-01
9.97779943e-01
9.97778220e-01
9.97777035e-01
9.97776324e-01
9.97776025e-01
9.97776085e-01
9.97776450e-01
9.97777072e-01
9.97777901e-01
9.97778889e-01
9.97779988e-01
9.97781150e-01
9.97782328e-01
9.97783476e-01
9.97784551e-01
9.97785516e-01
9.97786334e-01
9.97786979e-01
9.97787426e-01
9.97787658e-01
9.97787664e-01
9.97787436e-01
9.97786970e-01
9.97786264e-01
9.97785318e-01
9.97784129e-01
9.97782700e-01
9.97781030e-01
9.97779114e-01
9.97776948e-01
9.97774543e-01
9.97771899e-01
9.97768992e-01
9.97765841e-01
9.97762481e-01
9.97758849e-01
9.97754904e-01
9.97750751e-01
9.97746346e-01
9.97741490e-01
9.97735533e-01
1.00244066e+00
1.00243410e+00
1.00242875e+00
1.00242373e+00
1.00241894e+00
1.00241441e+00
1.00241009e+00
1.00240592e+00
1.00240193e+00
1.00239812e+00
1.00239445e+00
1.00239091e+00
1.00238753e+00
1.00238428e+00
1.00238117e+00
1.00237821e+00
1.00237538e+00
1.00237269e+00
1.00237013e+00
1.00236771e+00
1.00236541e+00
1.00236322e+00
1.00236111e+00
1.00235906e+00
1.00235704e+00
1.00235501e+00
1.00235292e+00
1.00235072e+00
1.00234837e+00
1.00234581e+00
1.00234298e+00
1.00233982e+00
1.00233629e+00
1.00233231e+00
1.00232784e+00
1.00232279e+00
1.00231710e+00
1.00231070e+00
1.00230349e+00
1.00229537e+00
1.00228625e+00
1.00227600e+00
1.00226448e+00
1.00225156e+00
1.00223706e+00
1.00222079e+00
1.00220253e+00
1.00218200e+00
1.00215890e+00
1.00213284e+00
1.00210337e+00
1.00206998e+00
1.00203208e+00
1.00198905e+00
1.00194027e+00
1.00188511e+00
1.00182302e+00
1.00175355e+00
1.00167638e+00
1.00159137e+00
1.00149856e+00
1.00139823e+00
1.00129090e+00
1.00117733e+00
1.00105856e+00
1.00093589e+00
1.00081088e+00
1.00068529e+00
1.00056107e+00
1.00044023e+00
1.00032474e+00
1.00021648e+00
1.00011704e+00
1.00002773e+00
9.99949422e-01
9.99882581e-01
9.99827245e-01
9.99783067e-01
9.99749379e-01
9.99725268e-01
9.99709666e-01
9.99701428e-01
9.99699409e-01
9.99702515e-01
9.99709752e-01
9.99720245e-01
9.99733250e-01
9.99748157e-01
9.99764474e-01
9.99781822e-01
9.99799910e-01
9.99818524e-01
9.99837509e-01
9.99856757e-01
9.99876191e-01
9.99895761e-01
9.99915432e-01
9.99935184e-01
9.99955000e-01
9.99974870e-01
9.99994783e-01
1.00001473e+00
1.00003469e+00
1.00005465e+00
1.00007457e+00
1.00009440e+00
1.00011408e+00
1.00013349e+00
1.00015249e+00
1.00017088e+00
1.00018838e+00
1.00020465e+00
1.00021923e+00
1.00023155e+00
1.00024092e+00
1.00024652e+00
1.00024744e+00
1.00024264e+00
1.00023104e+00
1.00021152e+00
1.00018304e+00
1.00014464e+00
1.00009557e+00
1.00003533e+00
9.99963745e-01
9.99881017e-01
9.99787740e-01
9.99684903e-01
9.99573854e-01
9.99456245e-01
9.99333951e-01
9.99208978e-01
9.99083358e-01
9.98959059e-01
9.98837897e-01
9.98721468e-01
9.98611109e-01
9.98507870e-01
9.98412513e-01
9.98325525e-01
9.98247134e-01
9.98177343e-01
9.98115954e-01
9.98062596e-01
9.98016761e-01
9.97977832e-01
9.97945114e-01
9.97917874e-01
9.97895371e-01
9.97876893e-01
9.97861780e-01
9.97849448e-01
9.97839398e-01
9.97831219e-01
9.97824582e-01
9.97819227e-01
9.97814954e-01
9.97811607e-01
9.97809060e-01
9.97807211e-01
9.97805973e-01
9.97805269e-01
9.97805031e-01
9.97805195e-01
9.97805704e-01
9.97806503e-01
9.97807539e-01
9.97808763e-01
9.97810123e-01
9.97811571e-01
9.97813058e-01
9.97814535e-01
9.97815956e-01
9.97817277e-01
9.97818459e-01
9.97819466e-01
9.97820269e-01
9.97820844e-01
9.97821171e-01
9.97821240e-01
9.97821040e-01
9.97820568e-01
9.97819819e-01
9.97818795e-01
9.97817494e-01
9.97815913e-01
9.97814052e-01
9.97811914e-01
9.97809492e-01
9.97806776e-01
9.97803779e-01
9.97800508e-01
9.97796931e-01
9.97793044e-01
9.97788882e-01
9.97784402e-01
9.97779565e-01
9.97774407e-01
9.97768849e-01
9.97761993e-01
1.00240711e+00
1.00239969e+00
1.00239363e+00
1.00238795e+00
1.00238257e+00
1.00237749e+00
1.00237264e+00
1.00236802e+00
1.00236364e+00
1.00235946e+00
1.00235545e+00
1.00235165e+00
1.00234803e+00
1.00234458e+00
1.00234131e+00
1.00233822e+00
1.00233531e+00
1.00233257e+00
1.00233000e+00
1.00232760e+00
1.00232536e+00
1.00232325e+00
1.00232127e+00
1.00231937e+00
1.00231753e+00
1.00231571e+00
1.00231387e+00
1.00231194e+00
1.00230989e+00
1.00230765e+00
1.00230518e+00
1.00230241e+00
1.00229928e+00
1.00229574e+00
1.00229171e+00
1.00228714e+00
1.00228195e+00
1.00227606e+00
1.00226937e+00
1.00226180e+00
1.00225322e+00
1.00224353e+00
1.00223257e+00
1.00222021e+00
1.00220626e+00
1.00219053e+00
1.00217277e+00
1.00215272e+00
1.00213001e+00
1.00210426e+00
1.00207498e+00
1.00204163e+00
1.00200362e+00
1.00196034e+00
1.00191119e+00
1.00185561e+00
1.00179315e+00
1.00172347e+00
1.00164640e+00
1.00156195e+00
1.00147029e+00
1.00137179e+00
1.00126701e+00
1.00115670e+00
1.00104178e+00
1.00092339e+00
1.00080288e+00
1.00068176e+00
1.00056174e+00
1.00044461e+00
1.00033217e+00
1.00022619e+00
1.00012824e+00
1.00003963e+00
9.99961327e-01
9.99893927e-01
9.99837605e-01
9.99792164e-01
9.99757071e-01
9.99731534e-01
9.99714574e-01
9.99705112e-01
9.99702038e-01
9.99704275e-01
9.99710827e-01
9.99720804e-01
9.99733442e-01
9.99748105e-01
9.99764278e-01
9.99781557e-01
9.99799633e-01
9.99818275e-01
9.99837315e-01
9.99856635e-01
9.99876151e-01
9.99895809e-01
9.99915571e-01
9.99935413e-01
9.99955319e-01
9.99975278e-01
9.99995279e-01
1.00001531e+00
1.00003536e+00
1.00005539e+00
1.00007538e+00
1.00009527e+00
1.00011497e+00
1.00013438e+00
1.00015334e+00
1.00017161e+00
1.00018893e+00
1.00020489e+00
1.00021903e+00
1.00023074e+00
1.00023931e+00
1.00024391e+00
1.00024360e+00
1.00023737e+00
1.00022416e+00
1.00020292e+00
1.00017267e+00
1.00013257e+00
1.00008200e+00
1.00002062e+00
9.99948417e-01
9.99865728e-01
9.99773277e-01
9.99672132e-01
9.99563672e-01
9.99449513e-01
9.99331429e-01
9.99211259e-01
9.99090820e-01
9.98971825e-01
9.98855829e-01
9.98744177e-01
9.98637993e-01
9.98538170e-01
9.98445383e-01
9.98360102e-01
9.98282612e-01
9.98213026e-01
9.98151296e-01
9.98097224e-01
9.98050469e-01
9.98010565e-01
9.97976942e-01
9.97948951e-01
9.97925903e-01
9.97907103e-01
9.97891884e-01
9.97879639e-01
9.97869833e-01
9.97862018e-01
9.97855832e-01
9.97850987e-01
9.97847260e-01
9.97844478e-01
9.97842506e-01
9.97841232e-01
9.97840565e-01
9.97840424e-01
9.97840736e-01
9.97841436e-01
9.97842463e-01
9.97843759e-01
9.97845271e-01
9.97846945e-01
9.97848729e-01
9.97850573e-01
9.97852428e-01
9.97854242e-01
9.97855971e-01
9.97857569e-01
9.97858995e-01
9.97860214e-01
9.97861195e-01
9.97861913e-01
9.97862349e-01
9.97862489e-01
9.97862324e-01
9.97861848e-01
9.97861058e-01
9.97859952e-01
9.97858531e-01
9.97856792e-01
9.97854732e-01
9.97852348e-01
9.97849645e-01
9.97846611e-01
9.97843238e-01
9.97839540e-01
9.97835510e-01
9.97831113e-01
9.97826364e-01
9.97821269e-01
9.97815772e-01
9.97809889e-01
9.97803557e-01
9.97795757e-01
1.00236569e+00
1.00235741e+00
1.00235059e+00
1.00234431e+00
1.00233834e+00
1.00233268e+00
1.00232733e+00
1.00232227e+00
1.00231747e+00
1.00231290e+00
1.00230859e+00
1.00230450e+00
1.00230064e+00
1.00229699e+00
1.00229356e+00
1.00229035e+00
1.00228736e+00
1.00228458e+00
1.00228200e+00
1.00227963e+00
1.00227745e+00
1.00227545e+00
1.00227360e+00
1.00227187e+00
1.00227023e+00
1.00226865e+00
1.00226706e+00
1.00226543e+00
1.00226371e+00
1.00226183e+00
1.00225974e+00
1.00225738e+00
1.00225470e+00
1.00225162e+00
1.00224810e+00
1.00224405e+00
1.00223940e+00
1.00223407e+00
1.00222797e+00
1.00222099e+00
1.00221302e+00
1.00220394e+00
1.00219362e+00
1.00218188e+00
1.00216855e+00
1.00215343e+00
1.00213625e+00
1.00211672e+00
1.00209446e+00
1.00206906e+00
1.00203999e+00
1.00200671e+00
1.00196862e+00
1.00192511e+00
1.00187562e+00
1.00181966e+00
1.00175689e+00
1.00168710e+00
1.00161026e+00
1.00152652e+00
1.00143620e+00
1.00133976e+00
1.00123780e+00
1.00113101e+00
1.00102025e+00
1.00090647e+00
1.00079081e+00
1.00067453e+00
1.00055909e+00
1.00044604e+00
1.00033703e+00
1.00023368e+00
1.00013752e+00
1.00004990e+00
9.99971849e-01
9.99904083e-01
9.99846927e-01
9.99800335e-01
9.99763919e-01
9.99737010e-01
9.99718731e-01
9.99708071e-01
9.99703965e-01
9.99705357e-01
9.99711249e-01
9.99720741e-01
9.99733049e-01
9.99747510e-01
9.99763585e-01
9.99780845e-01
9.99798961e-01
9.99817684e-01
9.99836833e-01
9.99856277e-01
9.99875928e-01
9.99895725e-01
9.99915627e-01
9.99935609e-01
9.99955654e-01
9.99975749e-01
9.99995885e-01
1.00001605e+00
1.00003622e+00
1.00005638e+00
1.00007648e+00
1.00009647e+00
1.00011625e+00
1.00013570e+00
1.00015464e+00
1.00017285e+00
1.00018999e+00
1.00020567e+00
1.00021938e+00
1.00023049e+00
1.00023826e+00
1.00024185e+00
1.00024031e+00
1.00023265e+00
1.00021783e+00
1.00019486e+00
1.00016288e+00
1.00012115e+00
1.00006919e+00
1.00000682e+00
9.99934190e-01
9.99851786e-01
9.99760450e-01
9.99661332e-01
9.99555829e-01
9.99445513e-01
9.99332046e-01
9.99217089e-01
9.99102233e-01
9.98988932e-01
9.98878469e-01
9.98771938e-01
9.98670244e-01
9.98574123e-01
9.98484162e-01
9.98400816e-01
9.98324423e-01
9.98255209e-01
9.98193275e-01
9.98138593e-01
9.98090994e-01
9.98050169e-01
9.98015674e-01
9.97986954e-01
9.97963377e-01
9.97944273e-01
9.97928974e-01
9.97916849e-01
9.97907332e-01
9.97899940e-01
9.97894272e-01
9.97890010e-01
9.97886907e-01
9.97884770e-01
9.97883449e-01
9.97882826e-01
9.97882801e-01
9.97883289e-01
9.97884215e-01
9.97885509e-01
9.97887107e-01
9.97888951e-01
9.97890984e-01
9.97893150e-01
9.97895396e-01
9.97897671e-01
9.97899924e-01
9.97902105e-01
9.97904166e-01
9.97906063e-01
9.97907753e-01
9.97909200e-01
9.97910374e-01
9.97911248e-01
9.97911802e-01
9.97912023e-01
9.97911899e-01
9.97911426e-01
9.97910600e-01
9.97909417e-01
9.97907876e-01