# vtk DataFile Version 2.0
LBM Flow Field - Timestep 200
ASCII
DATASET STRUCTURED_POINTS
DIMENSIONS 200 100 1
ORIGIN 0.0 0.0 0.0
SPACING 1.0 1.0 1.0
POINT_DATA 20000
SCALARS density double 1
LOOKUP_TABLE default
9.94377109e-01
9.94388485e-01
9.94402756e-01
9.94414549e-01
9.94429959e-01
9.94441562e-01
9.94454563e-01
9.94469103e-01
9.94481409e-01
9.94492527e-01
9.94504945e-01
9.94517989e-01
9.94531327e-01
9.94545715e-01
9.94561422e-01
9.94578318e-01
9.94596372e-01
9.94615612e-01
9.94635983e-01
9.94657433e-01
9.94679937e-01
9.94703501e-01
9.94728145e-01
9.94753915e-01
9.94780876e-01
9.94809117e-01
9.94838747e-01
9.94869897e-01
9.94902729e-01
9.94937433e-01
9.94974242e-01
9.95013430e-01
9.95055328e-01
9.95100327e-01
9.95148885e-01
9.95201538e-01
9.95258896e-01
9.95321648e-01
9.95390558e-01
9.95466449e-01
9.95550187e-01
9.95642655e-01
9.95744716e-01
9.95857174e-01
9.95980718e-01
9.96115874e-01
9.96262942e-01
9.96421948e-01
9.96592590e-01
9.96774205e-01
9.96965742e-01
9.97165762e-01
9.97372453e-01
9.97583674e-01
9.97797015e-01
9.98009883e-01
9.98219601e-01
9.98423515e-01
9.98619111e-01
9.98804115e-01
9.98976596e-01
9.99135033e-01
9.99278367e-01
9.99406025e-01
9.99517913e-01
9.99614378e-01
9.99696156e-01
9.99764298e-01
9.99820081e-01
9.99864930e-01
9.99900325e-01
9.99927736e-01
9.99948556e-01
9.99964058e-01
9.99975370e-01
9.99983454e-01
9.99989110e-01
9.99992982e-01
9.99995574e-01
9.99997270e-01
9.99998355e-01
9.99999031e-01
9.99999443e-01
9.99999688e-01
9.99999830e-01
9.99999909e-01
9.99999953e-01
9.99999976e-01
9.99999988e-01
9.99999995e-01
9.99999997e-01
9.99999999e-01
1.00000000e+00
1.00000000e+00
1.00000000e+00
1.00000000e+00
1.00000000e+00
1.00000000e+00
1.00000000e+00
1.00000000e+00
1.00000000e+00
1.00000000e+00
1.00000000e+00
1.00000000e+00
1.00000000e+00
1.00000000e+00
1.00000000e+00
1.00000000e+00
1.00000000e+00
1.00000000e+00
1.00000001e+00
1.00000001e+00
1.00000002e+00
1.00000005e+00
1.00000009e+00
1.00000017e+00
1.00000031e+00
1.00000055e+00
1.00000097e+00
1.00000165e+00
1.00000274e+00
1.00000446e+00
1.00000710e+00
1.00001106e+00
1.00001686e+00
1.00002518e+00
1.00003686e+00
1.00005294e+00
1.00007461e+00
1.00010325e+00
1.00014036e+00
1.00018756e+00
1.00024646e+00
1.00031864e+00
1.00040550e+00
1.00050822e+00
1.00062760e+00
1.00076400e+00
1.00091727e+00
1.00108670e+00
1.00127101e+00
1.00146840e+00
1.00167654e+00
1.00189277e+00
1.00211413e+00
1.00233755e+00
1.00255997e+00
1.00277850e+00
1.00299049e+00
1.00319370e+00
1.00338631e+00
1.00356699e+00
1.00373487e+00
1.00388955e+00
1.00403104e+00
1.00415971e+00
1.00427618e+00
1.00438131e+00
1.00447604e+00
1.00456143e+00
1.00463851e+00
1.00470831e+00
1.00477175e+00
1.00482972e+00
1.00488296e+00
1.00493215e+00
1.00497785e+00
1.00502053e+00
1.00506060e+00
1.00509839e+00
1.00513414e+00
1.00516809e+00
1.00520041e+00
1.00523124e+00
1.00526070e+00
1.00528888e+00
1.00531587e+00
1.00534172e+00
1.00536648e+00
1.00539017e+00
1.00541278e+00
1.00543431e+00
1.00545469e+00
1.00547387e+00
1.00549175e+00
1.00550837e+00
1.00552366e+00
1.00553748e+00
1.00555014e+00
1.00556244e+00
1.00557408e+00
1.00558439e+00
1.00559593e+00
1.00560961e+00
1.00562199e+00
1.00563321e+00
1.00564656e+00
1.00565625e+00
1.00566915e+00
1.00567748e+00
9.94385615e-01
9.94399300e-01
9.94417029e-01
9.94425562e-01
9.94442898e-01
9.94456183e-01
9.94468898e-01
9.94482284e-01
9.94495529e-01
9.94507733e-01
9.94520238e-01
9.94533350e-01
9.94547135e-01
9.94561903e-01
9.94577768e-01
9.94594849e-01
9.94613137e-01
9.94632623e-01
9.94653252e-01
9.94675009e-01
9.94697872e-01
9.94721855e-01
9.94746985e-01
9.94773323e-01
9.94800949e-01
9.94829968e-01
9.94860508e-01
9.94892722e-01
9.94926793e-01
9.94962934e-01
9.95001396e-01
9.95042468e-01
9.95086488e-01
9.95133840e-01
9.95184964e-01
9.95240355e-01
9.95300565e-01
9.95366197e-01
9.95437901e-01
9.95516366e-01
9.95602298e-01
9.95696405e-01
9.95799367e-01
9.95911803e-01
9.96034235e-01
9.96167049e-01
9.96310450e-01
9.96464421e-01
9.96628685e-01
9.96802676e-01
9.96985515e-01
9.97176007e-01
9.97372645e-01
9.97573638e-01
9.97776955e-01
9.97980383e-01
9.98181604e-01
9.98378279e-01
9.98568140e-01
9.98749079e-01
9.98919232e-01
9.99077057e-01
9.99221380e-01
9.99351440e-01
9.99466890e-01
9.99567794e-01
9.99654586e-01
9.99728026e-01
9.99789127e-01
9.99839091e-01
9.99879226e-01
9.99910884e-01
9.99935391e-01
9.99954002e-01
9.99967860e-01
9.99977973e-01
9.99985201e-01
9.99990259e-01
9.99993722e-01
9.99996041e-01
9.99997558e-01
9.99998529e-01
9.99999134e-01
9.99999503e-01
9.99999721e-01
9.99999848e-01
9.99999919e-01
9.99999958e-01
9.99999979e-01
9.99999990e-01
9.99999995e-01
9.99999998e-01
9.99999999e-01
1.00000000e+00
1.00000000e+00
1.00000000e+00
1.00000000e+00
1.00000000e+00
1.00000000e+00
1.00000000e+00
1.00000000e+00
1.00000000e+00
1.00000000e+00
1.00000000e+00
1.00000000e+00
1.00000000e+00
1.00000000e+00
1.00000000e+00
1.00000000e+00
1.00000000e+00
1.00000001e+00
1.00000002e+00
1.00000004e+00
1.00000008e+00
1.00000015e+00
1.00000028e+00
1.00000049e+00
1.00000086e+00
1.00000147e+00
1.00000245e+00
1.00000399e+00
1.00000634e+00
1.00000988e+00
1.00001506e+00
1.00002249e+00
1.00003292e+00
1.00004728e+00
1.00006664e+00
1.00009222e+00
1.00012538e+00
1.00016758e+00
1.00022028e+00
1.00028491e+00
1.00036281e+00
1.00045508e+00
1.00056253e+00
1.00068563e+00
1.00082438e+00
1.00097833e+00
1.00114656e+00
1.00132763e+00
1.00151972e+00
1.00172065e+00
1.00192794e+00
1.00213902e+00
1.00235122e+00
1.00256197e+00
1.00276887e+00
1.00296976e+00
1.00316283e+00
1.00334660e+00
1.00351997e+00
1.00368222e+00
1.00383300e+00
1.00397225e+00
1.00410019e+00
1.00421726e+00
1.00432406e+00
1.00442131e+00
1.00450980e+00
1.00459034e+00
1.00466375e+00
1.00473080e+00
1.00479223e+00
1.00484870e+00
1.00490084e+00
1.00494917e+00
1.00499416e+00
1.00503622e+00
1.00507569e+00
1.00511288e+00
1.00514803e+00
1.00518135e+00
1.00521302e+00
1.00524319e+00
1.00527197e+00
1.00529946e+00
1.00532575e+00
1.00535089e+00
1.00537491e+00
1.00539783e+00
1.00541962e+00
1.00544025e+00
1.00545968e+00
1.00547783e+00
1.00549467e+00
1.00551019e+00
1.00552451e+00
1.00553777e+00
1.00555030e+00
1.00556221e+00
1.00557381e+00
1.00558664e+00
1.00559951e+00
1.00561181e+00
1.00562461e+00
1.00564039e+00
1.00564805e+00
1.00566502e+00
1.00567539e+00
9.94403053e-01
9.94423394e-01
9.94445229e-01
9.94456005e-01
9.94467591e-01
9.94483304e-01
9.94498666e-01
9.94510420e-01
9.94523296e-01
9.94536978e-01
9.94549917e-01
9.94563026e-01
9.94577331e-01
9.94592606e-01
9.94608851e-01
9.94626347e-01
9.94645124e-01
9.94665120e-01
9.94686318e-01
9.94708723e-01
9.94732328e-01
9.94757161e-01
9.94783274e-01
9.94810748e-01
9.94839691e-01
9.94870234e-01
9.94902536e-01
9.94936780e-01
9.94973179e-01
9.95011973e-01
9.95053433e-01
9.95097859e-01
9.95145584e-01
9.95196971e-01
9.95252412e-01
9.95312324e-01
9.95377148e-01
9.95447341e-01
9.95523368e-01
9.95605696e-01
9.95694780e-01
9.95791053e-01
9.95894912e-01
9.96006699e-01
9.96126685e-01
9.96255049e-01
9.96391858e-01
9.96537043e-01
9.96690379e-01
9.96851461e-01
9.97019692e-01
9.97194262e-01
9.97374151e-01
9.97558123e-01
9.97744748e-01
9.97932418e-01
9.98119390e-01
9.98303832e-01
9.98483878e-01
9.98657699e-01
9.98823563e-01
9.98979909e-01
9.99125406e-01
9.99259005e-01
9.99379977e-01
9.99487935e-01
9.99582836e-01
9.99664962e-01
9.99734889e-01
9.99793439e-01
9.99841622e-01
9.99880571e-01
9.99911481e-01
9.99935551e-01
9.99953934e-01
9.99967694e-01
9.99977785e-01
9.99985030e-01
9.99990121e-01
9.99993619e-01
9.99995969e-01
9.99997511e-01
9.99998499e-01
9.99999116e-01
9.99999492e-01
9.99999716e-01
9.99999845e-01
9.99999918e-01
9.99999958e-01
9.99999979e-01
9.99999990e-01
9.99999995e-01
9.99999998e-01
9.99999999e-01
1.00000000e+00
1.00000000e+00
1.00000000e+00
1.00000000e+00
1.00000000e+00
1.00000000e+00
1.00000000e+00
1.00000000e+00
1.00000000e+00
1.00000000e+00
1.00000000e+00
1.00000000e+00
1.00000000e+00
1.00000000e+00
1.00000000e+00
1.00000001e+00
1.00000002e+00
1.00000004e+00
1.00000008e+00
1.00000015e+00
1.00000028e+00
1.00000050e+00
1.00000088e+00
1.00000150e+00
1.00000249e+00
1.00000405e+00
1.00000644e+00
1.00001000e+00
1.00001521e+00
1.00002265e+00
1.00003305e+00
1.00004730e+00
1.00006641e+00
1.00009152e+00
1.00012390e+00
1.00016483e+00
1.00021563e+00
1.00027754e+00
1.00035166e+00
1.00043886e+00
1.00053976e+00
1.00065462e+00
1.00078331e+00
1.00092532e+00
1.00107974e+00
1.00124530e+00
1.00142041e+00
1.00160325e+00
1.00179186e+00
1.00198416e+00
1.00217813e+00
1.00237179e+00
1.00256334e+00
1.00275113e+00
1.00293377e+00
1.00311007e+00
1.00327910e+00
1.00344015e+00
1.00359272e+00
1.00373651e+00
1.00387140e+00
1.00399742e+00
1.00411472e+00
1.00422355e+00
1.00432428e+00
1.00441730e+00
1.00450309e+00
1.00458213e+00
1.00465495e+00
1.00472205e+00
1.00478394e+00
1.00484112e+00
1.00489405e+00
1.00494317e+00
1.00498888e+00
1.00503155e+00
1.00507149e+00
1.00510901e+00
1.00514435e+00
1.00517774e+00
1.00520937e+00
1.00523940e+00
1.00526797e+00
1.00529519e+00
1.00532113e+00
1.00534587e+00
1.00536942e+00
1.00539180e+00
1.00541298e+00
1.00543294e+00
1.00545163e+00
1.00546899e+00
1.00548503e+00
1.00550005e+00
1.00551406e+00
1.00552685e+00
1.00553953e+00
1.00555302e+00
1.00556585e+00
1.00557775e+00
1.00559308e+00
1.00560843e+00
1.00562021e+00
1.00563158e+00
1.00565170e+00
1.00566948e+00
9.94449653e-01
9.94470761e-01
9.94487355e-01
9.94502387e-01
9.94514924e-01
9.94528474e-01
9.94542906e-01
9.94556161e-01
9.94569431e-01
9.94582463e-01
9.94595709e-01
9.94609626e-01
9.94624337e-01
9.94639925e-01
9.94656757e-01
9.94674893e-01
9.94694305e-01
9.94715024e-01
9.94737076e-01
9.94760455e-01
9.94785184e-01
9.94811317e-01
9.94838936e-01
9.94868149e-01
9.94899091e-01
9.94931923e-01
9.94966834e-01
9.95004035e-01
9.95043760e-01
9.95086267e-01
9.95131833e-01
9.95180749e-01
9.95233324e-01
9.95289870e-01
9.95350702e-01
9.95416130e-01
9.95486446e-01
9.95561923e-01
9.95642804e-01
9.95729295e-01
9.95821560e-01
9.95919719e-01
9.96023846e-01
9.96133970e-01
9.96250075e-01
9.96372107e-01
9.96499969e-01
9.96633528e-01
9.96772607e-01
9.96916979e-01
9.97066357e-01
9.97220379e-01
9.97378583e-01
9.97540396e-01
9.97705107e-01
9.97871857e-01
9.98039628e-01
9.98207250e-01
9.98373410e-01
9.98536690e-01
9.98695600e-01
9.98848639e-01
9.98994353e-01
9.99131405e-01
9.99258637e-01
9.99375128e-01
9.99480238e-01
9.99573635e-01
9.99655307e-01
9.99725543e-01
9.99784907e-01
9.99834189e-01
9.99874351e-01
9.99906460e-01
9.99931632e-01
9.99950970e-01
9.99965520e-01
9.99976238e-01
9.99983961e-01
9.99989404e-01
9.99993153e-01
9.99995675e-01
9.99997331e-01
9.99998392e-01
9.99999055e-01
9.99999458e-01
9.99999698e-01
9.99999836e-01
9.99999913e-01
9.99999955e-01
9.99999978e-01
9.99999989e-01
9.99999995e-01
9.99999998e-01
9.99999999e-01
1.00000000e+00
1.00000000e+00
1.00000000e+00
1.00000000e+00
1.00000000e+00
1.00000000e+00
1.00000000e+00
1.00000000e+00
1.00000000e+00
1.00000000e+00
1.00000000e+00
1.00000000e+00
1.00000000e+00
1.00000001e+00
1.00000002e+00
1.00000004e+00
1.00000008e+00
1.00000016e+00
1.00000030e+00
1.00000054e+00
1.00000094e+00
1.00000160e+00
1.00000267e+00
1.00000434e+00
1.00000689e+00
1.00001070e+00
1.00001626e+00
1.00002418e+00
1.00003522e+00
1.00005028e+00
1.00007036e+00
1.00009662e+00
1.00013024e+00
1.00017244e+00
1.00022438e+00
1.00028713e+00
1.00036154e+00
1.00044819e+00
1.00054737e+00
1.00065898e+00
1.00078257e+00
1.00091731e+00
1.00106206e+00
1.00121542e+00
1.00137581e+00
1.00154154e+00
1.00171094e+00
1.00188240e+00
1.00205444e+00
1.00222576e+00
1.00239528e+00
1.00256210e+00
1.00272550e+00
1.00288491e+00
1.00303991e+00
1.00319014e+00
1.00333529e+00
1.00347512e+00
1.00360940e+00
1.00373791e+00
1.00386046e+00
1.00397691e+00
1.00408713e+00
1.00419109e+00
1.00428877e+00
1.00438026e+00
1.00446567e+00
1.00454522e+00
1.00461914e+00
1.00468775e+00
1.00475137e+00
1.00481034e+00
1.00486504e+00
1.00491583e+00
1.00496306e+00
1.00500706e+00
1.00504815e+00
1.00508663e+00
1.00512274e+00
1.00515672e+00
1.00518879e+00
1.00521912e+00
1.00524785e+00
1.00527510e+00
1.00530098e+00
1.00532554e+00
1.00534881e+00
1.00537081e+00
1.00539150e+00
1.00541089e+00
1.00542901e+00
1.00544581e+00
1.00546136e+00
1.00547605e+00
1.00548999e+00
1.00550340e+00
1.00551673e+00
1.00553032e+00
1.00554420e+00
1.00555954e+00
1.00557380e+00
1.00558696e+00
1.00560289e+00
1.00562020e+00
1.00564179e+00
9.94526115e-01
9.94544249e-01
9.94554844e-01
9.94570328e-01
9.94585071e-01
9.94596398e-01
9.94608893e-01
9.94623051e-01
9.94636024e-01
9.94648321e-01
9.94661893e-01
9.94676203e-01
9.94691032e-01
9.94707051e-01
9.94724514e-01
9.94743289e-01
9.94763466e-01
9.94785139e-01
9.94808308e-01
9.94832988e-01
9.94859243e-01
9.94887154e-01
9.94916822e-01
9.94948382e-01
9.94981993e-01
9.95017836e-01
9.95056115e-01
9.95097051e-01
9.95140881e-01
9.95187851e-01
9.95238214e-01
9.95292224e-01
9.95350127e-01
9.95412153e-01
9.95478509e-01
9.95549365e-01
9.95624850e-01
9.95705039e-01
9.95789949e-01
9.95879533e-01
9.95973682e-01
9.96072231e-01
9.96174963e-01
9.96281628e-01
9.96391959e-01
9.96505694e-01
9.96622594e-01
9.96742467e-01
9.96865179e-01
9.96990664e-01
9.97118921e-01
9.97249999e-01
9.97383973e-01
9.97520907e-01
9.97660810e-01
9.97803587e-01
9.97948988e-01
9.98096573e-01
9.98245675e-01
9.98395394e-01
9.98544605e-01
9.98691985e-01
9.98836069e-01
9.98975320e-01
9.99108207e-01
9.99233298e-01
9.99349340e-01
9.99455331e-01
9.99550577e-01
9.99634725e-01
9.99707763e-01
9.99770007e-01
9.99822058e-01
9.99864746e-01
9.99899061e-01
9.99926083e-01
9.99946920e-01
9.99962643e-01
9.99974249e-01
9.99982625e-01
9.99988531e-01
9.99992599e-01
9.99995333e-01
9.99997127e-01
9.99998274e-01
9.99998989e-01
9.99999423e-01
9.99999679e-01
9.99999826e-01
9.99999909e-01
9.99999953e-01
9.99999977e-01
9.99999989e-01
9.99999995e-01
9.99999998e-01
9.99999999e-01
1.00000000e+00
1.00000000e+00
1.00000000e+00
1.00000000e+00
1.00000000e+00
1.00000000e+00
1.00000000e+00
1.00000000e+00
1.00000000e+00
1.00000000e+00
1.00000000e+00
1.00000001e+00
1.00000002e+00
1.00000005e+00
1.00000009e+00
1.00000017e+00
1.00000031e+00
1.00000057e+00
1.00000100e+00
1.00000171e+00
1.00000286e+00
1.00000467e+00
1.00000743e+00
1.00001156e+00
1.00001758e+00
1.00002615e+00
1.00003809e+00
1.00005434e+00
1.00007596e+00
1.00010412e+00
1.00014002e+00
1.00018484e+00
1.00023968e+00
1.00030543e+00
1.00038275e+00
1.00047194e+00
1.00057295e+00
1.00068528e+00
1.00080807e+00
1.00094007e+00
1.00107976e+00
1.00122542e+00
1.00137525e+00
1.00152751e+00
1.00168058e+00
1.00183310e+00
1.00198398e+00
1.00213246e+00
1.00227807e+00
1.00242064e+00
1.00256017e+00
1.00269683e+00
1.00283085e+00
1.00296244e+00
1.00309178e+00
1.00321893e+00
1.00334384e+00
1.00346634e+00
1.00358615e+00
1.00370294e+00
1.00381630e+00
1.00392581e+00
1.00403109e+00
1.00413180e+00
1.00422764e+00
1.00431844e+00
1.00440408e+00
1.00448455e+00
1.00455991e+00
1.00463029e+00
1.00469589e+00
1.00475696e+00
1.00481375e+00
1.00486657e+00
1.00491572e+00
1.00496149e+00
1.00500417e+00
1.00504404e+00
1.00508135e+00
1.00511634e+00
1.00514922e+00
1.00518017e+00
1.00520936e+00
1.00523690e+00
1.00526289e+00
1.00528740e+00
1.00531049e+00
1.00533215e+00
1.00535236e+00
1.00537123e+00
1.00538882e+00
1.00540502e+00
1.00542010e+00
1.00543478e+00
1.00544883e+00
1.00546185e+00
1.00547580e+00
1.00549102e+00
1.00550486e+00
1.00551799e+00
1.00553434e+00
1.00555085e+00
1.00556423e+00
1.00558535e+00
9.94629125e-01
9.94646557e-01
9.94657761e-01
9.94667533e-01
9.94678934e-01
9.94691077e-01
9.94702810e-01
9.94714274e-01
9.94726025e-01
9.94738731e-01
9.94751931e-01
9.94765647e-01
9.94780675e-01
9.94797205e-01
9.94815076e-01
9.94834468e-01
9.94855565e-01
9.94878351e-01
9.94902839e-01
9.94929110e-01
9.94957244e-01
9.94987327e-01
9.95019485e-01
9.95053863e-01
9.95090629e-01
9.95129964e-01
9.95172064e-01
9.95217132e-01
9.95265374e-01
9.95316993e-01
9.95372184e-01
9.95431121e-01
9.95493959e-01
9.95560813e-01
9.95631757e-01
9.95706814e-01
9.95785944e-01
9.95869041e-01
9.95955926e-01
9.96046352e-01
9.96140001e-01
9.96236500e-01
9.96335431e-01
9.96436358e-01
9.96538847e-01
9.96642504e-01
9.96747000e-01
9.96852111e-01
9.96957737e-01
9.97063931e-01
9.97170899e-01
9.97279000e-01
9.97388718e-01
9.97500625e-01
9.97615321e-01
9.97733369e-01
9.97855218e-01
9.97981127e-01
9.98111095e-01
9.98244814e-01
9.98381634e-01
9.98520562e-01
9.98660293e-01
9.98799263e-01
9.98935733e-01
9.99067893e-01
9.99193967e-01
9.99312330e-01
9.99421602e-01
9.99520728e-01
9.99609028e-01
9.99686221e-01
9.99752411e-01
9.99808048e-01
9.99853872e-01
9.99890833e-01
9.99920017e-01
9.99942563e-01
9.99959597e-01
9.99972176e-01
9.99981253e-01
9.99987649e-01
9.99992049e-01
9.99995001e-01
9.99996932e-01
9.99998164e-01
9.99998929e-01
9.99999391e-01
9.99999663e-01
9.99999819e-01
9.99999905e-01
9.99999952e-01
9.99999976e-01
9.99999989e-01
9.99999995e-01
9.99999998e-01
9.99999999e-01
1.00000000e+00
1.00000000e+00
1.00000000e+00
1.00000000e+00
1.00000000e+00
1.00000000e+00
1.00000000e+00
1.00000000e+00
1.00000001e+00
1.00000001e+00
1.00000002e+00
1.00000005e+00
1.00000009e+00
1.00000018e+00
1.00000033e+00
1.00000060e+00
1.00000106e+00
1.00000182e+00
1.00000305e+00
1.00000498e+00
1.00000796e+00
1.00001241e+00
1.00001892e+00
1.00002820e+00
1.00004111e+00
1.00005869e+00
1.00008205e+00
1.00011242e+00
1.00015105e+00
1.00019912e+00
1.00025767e+00
1.00032752e+00
1.00040915e+00
1.00050262e+00
1.00060757e+00
1.00072314e+00
1.00084805e+00
1.00098061e+00
1.00111889e+00
1.00126079e+00
1.00140422e+00
1.00154723e+00
1.00168814e+00
1.00182565e+00
1.00195888e+00
1.00208739e+00
1.00221119e+00
1.00233060e+00
1.00244626e+00
1.00255893e+00
1.00266947e+00
1.00277868e+00
1.00288724e+00
1.00299569e+00
1.00310433e+00
1.00321325e+00
1.00332235e+00
1.00343133e+00
1.00353977e+00
1.00364714e+00
1.00375286e+00
1.00385634e+00
1.00395703e+00
1.00405441e+00
1.00414805e+00
1.00423762e+00
1.00432285e+00
1.00440360e+00
1.00447979e+00
1.00455145e+00
1.00461864e+00
1.00468150e+00
1.00474022e+00
1.00479500e+00
1.00484607e+00
1.00489369e+00
1.00493809e+00
1.00497952e+00
1.00501821e+00
1.00505439e+00
1.00508825e+00
1.00511997e+00
1.00514972e+00
1.00517761e+00
1.00520373e+00
1.00522816e+00
1.00525098e+00
1.00527219e+00
1.00529177e+00
1.00530992e+00
1.00532681e+00
1.00534231e+00
1.00535665e+00
1.00537063e+00
1.00538433e+00
1.00539744e+00
1.00541052e+00
1.00542393e+00
1.00543808e+00
1.00545218e+00
1.00546395e+00
1.00547833e+00
1.00549979e+00
9.94769175e-01
9.94782798e-01
9.94791043e-01
9.94796436e-01
9.94804374e-01
9.94814466e-01
9.94823786e-01
9.94833014e-01
9.94843703e-01
9.94855364e-01
9.94867335e-01
9.94880723e-01
9.94895828e-01
9.94912350e-01
9.94930512e-01
9.94950622e-01
9.94972643e-01
9.94996572e-01
9.95022518e-01
9.95050558e-01
9.95080754e-01
9.95113211e-01
9.95148057e-01
9.95185429e-01
9.95225477e-01
9.95268359e-01
9.95314235e-01
9.95363261e-01
9.95415581e-01
9.95471324e-01
9.95530594e-01
9.95593464e-01
9.95659970e-01
9.95730100e-01
9.95803792e-01
9.95880922e-01
9.95961305e-01
9.96044690e-01
9.96130758e-01
9.96219129e-01
9.96309366e-01
9.96400987e-01
9.96493486e-01
9.96586350e-01
9.96679090e-01
9.96771271e-01
9.96862548e-01
9.96952699e-01
9.97041662e-01
9.97129556e-01
9.97216704e-01
9.97303635e-01
9.97391070e-01
9.97479890e-01
9.97571085e-01
9.97665682e-01
9.97764663e-01
9.97868866e-01
9.97978900e-01
9.98095054e-01
9.98217228e-01
9.98344899e-01
9.98477106e-01
9.98612480e-01
9.98749307e-01
9.98885618e-01
9.99019311e-01
9.99148280e-01
9.99270545e-01
9.99384377e-01
9.99488394e-01
9.99581631e-01
9.99663568e-01
9.99734133e-01
9.99793660e-01
9.99842824e-01
9.99882563e-01
9.99913984e-01
9.99938277e-01
9.99956634e-01
9.99970185e-01
9.99979953e-01
9.99986826e-01
9.99991544e-01
9.99994701e-01
9.99996761e-01
9.99998070e-01
9.99998879e-01
9.99999366e-01
9.99999651e-01
9.99999814e-01
9.99999903e-01
9.99999951e-01
9.99999976e-01
9.99999989e-01
9.99999995e-01
9.99999998e-01
9.99999999e-01
1.00000000e+00
1.00000000e+00
1.00000000e+00
1.00000000e+00
1.00000000e+00
1.00000000e+00
1.00000000e+00
1.00000001e+00
1.00000002e+00
1.00000005e+00
1.00000009e+00
1.00000018e+00
1.00000034e+00
1.00000062e+00
1.00000110e+00
1.00000190e+00
1.00000321e+00
1.00000527e+00
1.00000844e+00
1.00001321e+00
1.00002018e+00
1.00003015e+00
1.00004403e+00
1.00006294e+00
1.00008807e+00
1.00012072e+00
1.00016219e+00
1.00021370e+00
1.00027627e+00
1.00035064e+00
1.00043715e+00
1.00053569e+00
1.00064561e+00
1.00076572e+00
1.00089437e+00
1.00102948e+00
1.00116873e+00
1.00130966e+00
1.00144987e+00
1.00158721e+00
1.00171988e+00
1.00184656e+00
1.00196646e+00
1.00207934e+00
1.00218546e+00
1.00228551e+00
1.00238049e+00
1.00247160e+00
1.00256013e+00
1.00264733e+00
1.00273430e+00
1.00282197e+00
1.00291103e+00
1.00300190e+00
1.00309476e+00
1.00318955e+00
1.00328602e+00
1.00338376e+00
1.00348225e+00
1.00358089e+00
1.00367905e+00
1.00377609e+00
1.00387141e+00
1.00396446e+00
1.00405476e+00
1.00414188e+00
1.00422551e+00
1.00430539e+00
1.00438136e+00
1.00445333e+00
1.00452127e+00
1.00458521e+00
1.00464524e+00
1.00470148e+00
1.00475409e+00
1.00480323e+00
1.00484911e+00
1.00489191e+00
1.00493183e+00
1.00496906e+00
1.00500378e+00
1.00503614e+00
1.00506629e+00
1.00509435e+00
1.00512038e+00
1.00514447e+00
1.00516673e+00
1.00518716e+00
1.00520572e+00
1.00522274e+00
1.00523847e+00
1.00525262e+00
1.00526558e+00
1.00527842e+00
1.00529049e+00
1.00530149e+00
1.00531294e+00
1.00532508e+00
1.00533574e+00
1.00534367e+00
1.00535514e+00
1.00537347e+00
9.94946843e-01
9.94952505e-01
9.94952540e-01
9.94956156e-01
9.94961371e-01
9.94966082e-01
9.94972193e-01
9.94980139e-01
9.94988684e-01
9.94998047e-01
9.95009122e-01
9.95022116e-01
9.95036586e-01
9.95052908e-01
9.95071455e-01
9.95092137e-01
9.95114931e-01
9.95139994e-01
9.95167391e-01
9.95197145e-01
9.95229336e-01
9.95264068e-01
9.95301438e-01
9.95341553e-01
9.95384526e-01
9.95430466e-01
9.95479471e-01
9.95531626e-01
9.95586990e-01
9.95645600e-01
9.95707454e-01
9.95772514e-01
9.95840695e-01
9.95911864e-01
9.95985836e-01
9.96062372e-01
9.96141177e-01
9.96221906e-01
9.96304162e-01
9.96387508e-01
9.96471474e-01
9.96555568e-01
9.96639293e-01
9.96722167e-01
9.96803740e-01
9.96883628e-01
9.96961535e-01
9.97037285e-01
9.97110854e-01
9.97182395e-01
9.97252263e-01
9.97321027e-01
9.97389471e-01
9.97458578e-01
9.97529495e-01
9.97603479e-01
9.97681821e-01
9.97765757e-01
9.97856365e-01
9.97954465e-01
9.98060519e-01
9.98174557e-01
9.98296122e-01
9.98424256e-01
9.98557522e-01
9.98694068e-01
9.98831728e-01
9.98968146e-01
9.99100927e-01
9.99227783e-01
9.99346677e-01
9.99455938e-01
9.99554345e-01
9.99641173e-01
9.99716193e-01
9.99779639e-01
9.99832140e-01
9.99874629e-01
9.99908248e-01
9.99934243e-01
9.99953876e-01
9.99968355e-01
9.99978777e-01
9.99986094e-01
9.99991104e-01
9.99994447e-01
9.99996620e-01
9.99997995e-01
9.99998841e-01
9.99999349e-01
9.99999644e-01
9.99999811e-01
9.99999902e-01
9.99999951e-01
9.99999976e-01
9.99999989e-01
9.99999995e-01
9.99999998e-01
9.99999999e-01
1.00000000e+00
1.00000000e+00
1.00000000e+00
1.00000000e+00
1.00000000e+00
1.00000001e+00
1.00000002e+00
1.00000005e+00
1.00000009e+00
1.00000018e+00
1.00000035e+00
1.00000063e+00
1.00000113e+00
1.00000197e+00
1.00000334e+00
1.00000550e+00
1.00000886e+00
1.00001390e+00
1.00002131e+00
1.00003192e+00
1.00004672e+00
1.00006690e+00
1.00009375e+00
1.00012862e+00
1.00017290e+00
1.00022782e+00
1.00029441e+00
1.00037335e+00
1.00046488e+00
1.00056870e+00
1.00068390e+00
1.00080904e+00
1.00094211e+00
1.00108069e+00
1.00122213e+00
1.00136367e+00
1.00150266e+00
1.00163678e+00
1.00176412e+00
1.00188336e+00
1.00199377e+00
1.00209523e+00
1.00218817e+00
1.00227348e+00
1.00235239e+00
1.00242633e+00
1.00249681e+00
1.00256532e+00
1.00263321e+00
1.00270166e+00
1.00277159e+00
1.00284370e+00
1.00291842e+00
1.00299598e+00
1.00307637e+00
1.00315942e+00
1.00324482e+00
1.00333216e+00
1.00342092e+00
1.00351057e+00
1.00360051e+00
1.00369018e+00
1.00377900e+00
1.00386645e+00
1.00395204e+00
1.00403532e+00
1.00411593e+00
1.00419356e+00
1.00426796e+00
1.00433897e+00
1.00440646e+00
1.00447038e+00
1.00453072e+00
1.00458751e+00
1.00464083e+00
1.00469078e+00
1.00473749e+00
1.00478108e+00
1.00482171e+00
1.00485952e+00
1.00489464e+00
1.00492719e+00
1.00495731e+00
1.00498508e+00
1.00501055e+00
1.00503378e+00
1.00505495e+00
1.00507404e+00
1.00509098e+00
1.00510617e+00
1.00511999e+00
1.00513204e+00
1.00514261e+00
1.00515253e+00
1.00516204e+00
1.00517012e+00
1.00517688e+00
1.00518446e+00
1.00519041e+00
1.00519323e+00
1.00520348e+00
9.95151079e-01
9.95149018e-01
9.95142945e-01
9.95142519e-01
9.95142841e-01
9.95143653e-01
9.95146986e-01
9.95151909e-01
9.95157702e-01
9.95165537e-01
9.95175523e-01
9.95187254e-01
9.95201021e-01
9.95217303e-01
9.95235937e-01
9.95256886e-01
9.95280347e-01
9.95306372e-01
9.95334930e-01
9.95366079e-01
9.95399893e-01
9.95436421e-01
9.95475720e-01
9.95517851e-01
9.95562871e-01
9.95610820e-01
9.95661719e-01
9.95715568e-01
9.95772339e-01
9.95831969e-01
9.95894356e-01
9.95959359e-01
9.96026793e-01
9.96096429e-01
9.96167994e-01
9.96241173e-01
9.96315612e-01
9.96390926e-01
9.96466703e-01
9.96542514e-01
9.96617924e-01
9.96692501e-01
9.96765830e-01
9.96837527e-01
9.96907252e-01
9.96974728e-01
9.97039757e-01
9.97102241e-01
9.97162202e-01
9.97219808e-01
9.97275392e-01
9.97329470e-01
9.97382757e-01
9.97436168e-01
9.97490803e-01
9.97547925e-01
9.97608904e-01
9.97675151e-01
9.97748028e-01
9.97828745e-01
9.97918255e-01
9.98017142e-01
9.98125539e-01
9.98243058e-01
9.98368766e-01
9.98501198e-01
9.98638411e-01
9.98778091e-01
9.98917684e-01
9.99054552e-01
9.99186145e-01
9.99310152e-01
9.99424640e-01
9.99528157e-01
9.99619785e-01
9.99699154e-01
9.99766406e-01
9.99822128e-01
9.99867258e-01
9.99902971e-01
9.99930574e-01
9.99951403e-01
9.99966741e-01
9.99977759e-01
9.99985476e-01
9.99990743e-01
9.99994246e-01
9.99996513e-01
9.99997942e-01
9.99998818e-01
9.99999339e-01
9.99999641e-01
9.99999810e-01
9.99999903e-01
9.99999952e-01
9.99999977e-01
9.99999989e-01
9.99999995e-01
9.99999998e-01
9.99999999e-01
1.00000000e+00
1.00000000e+00
1.00000000e+00
1.00000001e+00
1.00000002e+00
1.00000005e+00
1.00000009e+00
1.00000018e+00
1.00000035e+00
1.00000064e+00
1.00000115e+00
1.00000202e+00
1.00000343e+00
1.00000568e+00
1.00000919e+00
1.00001448e+00
1.00002227e+00
1.00003345e+00
1.00004911e+00
1.00007047e+00
1.00009892e+00
1.00013590e+00
1.00018285e+00
1.00024104e+00
1.00031151e+00
1.00039489e+00
1.00049131e+00
1.00060030e+00
1.00072074e+00
1.00085091e+00
1.00098851e+00
1.00113082e+00
1.00127489e+00
1.00141773e+00
1.00155652e+00
1.00168881e+00
1.00181266e+00
1.00192678e+00
1.00203052e+00
1.00212389e+00
1.00220745e+00
1.00228223e+00
1.00234958e+00
1.00241103e+00
1.00246818e+00
1.00252257e+00
1.00257563e+00
1.00262860e+00
1.00268249e+00
1.00273813e+00
1.00279609e+00
1.00285678e+00
1.00292042e+00
1.00298708e+00
1.00305670e+00
1.00312910e+00
1.00320403e+00
1.00328114e+00
1.00336003e+00
1.00344025e+00
1.00352133e+00
1.00360278e+00
1.00368408e+00
1.00376477e+00
1.00384436e+00
1.00392243e+00
1.00399859e+00
1.00407249e+00
1.00414385e+00
1.00421243e+00
1.00427804e+00
1.00434056e+00
1.00439989e+00
1.00445600e+00
1.00450889e+00
1.00455857e+00
1.00460511e+00
1.00464858e+00
1.00468905e+00
1.00472662e+00
1.00476137e+00
1.00479338e+00
1.00482274e+00
1.00484952e+00
1.00487371e+00
1.00489537e+00
1.00491472e+00
1.00493173e+00
1.00494627e+00
1.00495883e+00
1.00496971e+00
1.00497855e+00
1.00498555e+00
1.00499176e+00
1.00499652e+00
1.00499897e+00
1.00500109e+00
1.00500243e+00
1.00499820e+00
1.00499963e+00
9.95373158e-01
9.95363943e-01
9.95353734e-01
9.95347671e-01
9.95343049e-01
9.95341348e-01
9.95341267e-01
9.95342672e-01
9.95346520e-01
9.95352855e-01
9.95361068e-01
9.95371623e-01
9.95384934e-01
9.95400807e-01
9.95419160e-01
9.95440247e-01
9.95464091e-01
9.95490603e-01
9.95519818e-01
9.95551787e-01
9.95586504e-01
9.95623971e-01
9.95664203e-01
9.95707201e-01
9.95752948e-01
9.95801412e-01
9.95852537e-01
9.95906242e-01
9.95962412e-01
9.96020902e-01
9.96081531e-01
9.96144080e-01
9.96208298e-01
9.96273897e-01
9.96340562e-01
9.96407949e-01
9.96475697e-01
9.96543431e-01
9.96610773e-01
9.96677351e-01
9.96742808e-01
9.96806812e-01
9.96869063e-01
9.96929306e-01
9.96987335e-01
9.97043002e-01
9.97096223e-01
9.97146989e-01
9.97195377e-01
9.97241562e-01
9.97285832e-01
9.97328610e-01
9.97370467e-01
9.97412147e-01
9.97454567e-01
9.97498825e-01
9.97546174e-01
9.97597991e-01
9.97655714e-01
9.97720759e-01
9.97794418e-01
9.97877747e-01
9.97971452e-01
9.98075783e-01
9.98190454e-01
9.98314598e-01
9.98446772e-01
9.98584996e-01
9.98726859e-01
9.98869653e-01
9.99010540e-01
9.99146735e-01
9.99275680e-01
9.99395200e-01
9.99503622e-01
9.99599846e-01
9.99683363e-01
9.99754230e-01
9.99812998e-01
9.99860607e-01
9.99898270e-01
9.99927356e-01
9.99949274e-01
9.99965383e-01
9.99976927e-01
9.99984988e-01
9.99990472e-01
9.99994104e-01
9.99996446e-01
9.99997913e-01
9.99998808e-01
9.99999338e-01
9.99999643e-01
9.99999813e-01
9.99999905e-01
9.99999953e-01
9.99999978e-01
9.99999990e-01
9.99999996e-01
9.99999999e-01
1.00000000e+00
1.00000000e+00
1.00000001e+00
1.00000002e+00
1.00000004e+00
1.00000009e+00
1.00000018e+00
1.00000034e+00
1.00000064e+00
1.00000116e+00
1.00000204e+00
1.00000348e+00
1.00000580e+00
1.00000942e+00
1.00001492e+00
1.00002304e+00
1.00003472e+00
1.00005112e+00
1.00007355e+00
1.00010346e+00
1.00014239e+00
1.00019182e+00
1.00025309e+00
1.00032721e+00
1.00041480e+00
1.00051586e+00
1.00062977e+00
1.00075522e+00
1.00089020e+00
1.00103215e+00
1.00117809e+00
1.00132482e+00
1.00146913e+00
1.00160810e+00
1.00173921e+00
1.00186057e+00
1.00197094e+00
1.00206983e+00
1.00215738e+00
1.00223431e+00
1.00230177e+00
1.00236117e+00
1.00241411e+00
1.00246217e+00
1.00250687e+00
1.00254957e+00
1.00259145e+00
1.00263349e+00
1.00267648e+00
1.00272104e+00
1.00276762e+00
1.00281658e+00
1.00286812e+00
1.00292238e+00
1.00297942e+00
1.00303919e+00
1.00310160e+00
1.00316647e+00
1.00323358e+00
1.00330262e+00
1.00337326e+00
1.00344512e+00
1.00351778e+00
1.00359083e+00
1.00366383e+00
1.00373636e+00
1.00380800e+00
1.00387839e+00
1.00394716e+00
1.00401401e+00
1.00407867e+00
1.00414090e+00
1.00420053e+00
1.00425740e+00
1.00431142e+00
1.00436251e+00
1.00441063e+00
1.00445577e+00
1.00449793e+00
1.00453714e+00
1.00457342e+00
1.00460681e+00
1.00463731e+00
1.00466499e+00
1.00468991e+00