# vtk DataFile Version 2.0
LBM Flow Field - Timestep 1000
ASCII
DATASET STRUCTURED_POINTS
DIMENSIONS 200 100 1
ORIGIN 0.0 0.0 0.0
SPACING 1.0 1.0 1.0
POINT_DATA 20000
SCALARS density double 1
LOOKUP_TABLE default
9.96650448e-01
9.96650639e-01
9.96650579e-01
9.96648937e-01
9.96647093e-01
9.96645399e-01
9.96643466e-01
9.96641516e-01
9.96639850e-01
9.96638501e-01
9.96637423e-01
9.96636733e-01
9.96636550e-01
9.96636968e-01
9.96638123e-01
9.96640207e-01
9.96643430e-01
9.96648036e-01
9.96654310e-01
9.96662585e-01
9.96673222e-01
9.96686622e-01
9.96703213e-01
9.96723443e-01
9.96747768e-01
9.96776634e-01
9.96810462e-01
9.96849628e-01
9.96894439e-01
9.96945113e-01
9.97001759e-01
9.97064358e-01
9.97132744e-01
9.97206600e-01
9.97285450e-01
9.97368666e-01
9.97455473e-01
9.97544973e-01
9.97636165e-01
9.97727982e-01
9.97819318e-01
9.97909073e-01
9.97996186e-01
9.98079675e-01
9.98158668e-01
9.98232429e-01
9.98300380e-01
9.98362115e-01
9.98417404e-01
9.98466193e-01
9.98508591e-01
9.98544862e-01
9.98575401e-01
9.98600711e-01
9.98621385e-01
9.98638074e-01
9.98651466e-01
9.98662266e-01
9.98671172e-01
9.98678861e-01
9.98685974e-01
9.98693107e-01
9.98700803e-01
9.98709552e-01
9.98719782e-01
9.98731869e-01
9.98746133e-01
9.98762842e-01
9.98782217e-01
9.98804431e-01
9.98829613e-01
9.98857849e-01
9.98889182e-01
9.98923607e-01
9.98961077e-01
9.99001494e-01
9.99044714e-01
9.99090543e-01
9.99138739e-01
9.99189017e-01
9.99241052e-01
9.99294485e-01
9.99348935e-01
9.99404006e-01
9.99459299e-01
9.99514429e-01
9.99569029e-01
9.99622769e-01
9.99675363e-01
9.99726577e-01
9.99776236e-01
9.99824227e-01
9.99870498e-01
9.99915057e-01
9.99957962e-01
9.99999318e-01
1.00003926e+00
1.00007795e+00
1.00011555e+00
1.00015222e+00
1.00018810e+00
1.00022333e+00
1.00025796e+00
1.00029206e+00
1.00032560e+00
1.00035855e+00
1.00039081e+00
1.00042225e+00
1.00045273e+00
1.00048207e+00
1.00051011e+00
1.00053667e+00
1.00056160e+00
1.00058480e+00
1.00060618e+00
1.00062571e+00
1.00064343e+00
1.00065940e+00
1.00067376e+00
1.00068670e+00
1.00069845e+00
1.00070928e+00
1.00071951e+00
1.00072947e+00
1.00073949e+00
1.00074994e+00
1.00076114e+00
1.00077342e+00
1.00078710e+00
1.00080245e+00
1.00081972e+00
1.00083911e+00
1.00086080e+00
1.00088492e+00
1.00091157e+00
1.00094080e+00
1.00097266e+00
1.00100713e+00
1.00104418e+00
1.00108377e+00
1.00112581e+00
1.00117023e+00
1.00121692e+00
1.00126577e+00
1.00131669e+00
1.00136958e+00
1.00142433e+00
1.00148088e+00
1.00153917e+00
1.00159917e+00
1.00166087e+00
1.00172427e+00
1.00178941e+00
1.00185633e+00
1.00192507e+00
1.00199566e+00
1.00206812e+00
1.00214242e+00
1.00221848e+00
1.00229618e+00
1.00237530e+00
1.00245557e+00
1.00253663e+00
1.00261805e+00
1.00269935e+00
1.00277998e+00
1.00285939e+00
1.00293699e+00
1.00301220e+00
1.00308450e+00
1.00315339e+00
1.00321846e+00
1.00327935e+00
1.00333582e+00
1.00338770e+00
1.00343492e+00
1.00347751e+00
1.00351557e+00
1.00354926e+00
1.00357881e+00
1.00360450e+00
1.00362661e+00
1.00364546e+00
1.00366137e+00
1.00367465e+00
1.00368561e+00
1.00369452e+00
1.00370166e+00
1.00370724e+00
1.00371145e+00
1.00371449e+00
1.00371655e+00
1.00371767e+00
1.00371796e+00
1.00371776e+00
1.00371736e+00
1.00371642e+00
1.00371529e+00
1.00371558e+00
1.00371602e+00
9.96651464e-01
9.96650698e-01
9.96649942e-01
9.96648589e-01
9.96646921e-01
9.96645304e-01
9.96643568e-01
9.96641894e-01
9.96640352e-01
9.96639090e-01
9.96638122e-01
9.96637550e-01
9.96637466e-01
9.96638004e-01
9.96639303e-01
9.96641551e-01
9.96644962e-01
9.96649789e-01
9.96656320e-01
9.96664885e-01
9.96675851e-01
9.96689615e-01
9.96706601e-01
9.96727252e-01
9.96752014e-01
9.96781322e-01
9.96815583e-01
9.96855157e-01
9.96900332e-01
9.96951308e-01
9.97008176e-01
9.97070896e-01
9.97139288e-01
9.97213024e-01
9.97291617e-01
9.97374437e-01
9.97460711e-01
9.97549551e-01
9.97639969e-01
9.97730917e-01
9.97821316e-01
9.97910092e-01
9.97996214e-01
9.98078731e-01
9.98156798e-01
9.98229706e-01
9.98296900e-01
9.98357992e-01
9.98412765e-01
9.98461171e-01
9.98503324e-01
9.98539482e-01
9.98570033e-01
9.98595471e-01
9.98616374e-01
9.98633378e-01
9.98647155e-01
9.98658391e-01
9.98667770e-01
9.98675952e-01
9.98683565e-01
9.98691192e-01
9.98699367e-01
9.98708569e-01
9.98719221e-01
9.98731694e-01
9.98746303e-01
9.98763313e-01
9.98782942e-01
9.98805363e-01
9.98830702e-01
9.98859044e-01
9.98890431e-01
9.98924859e-01
9.98962279e-01
9.99002597e-01
9.99045671e-01
9.99091310e-01
9.99139281e-01
9.99189304e-01
9.99241065e-01
9.99294214e-01
9.99348381e-01
9.99403182e-01
9.99458231e-01
9.99513152e-01
9.99567587e-01
9.99621215e-01
9.99673753e-01
9.99724970e-01
9.99774689e-01
9.99822794e-01
9.99869226e-01
9.99913982e-01
9.99957110e-01
9.99998700e-01
1.00003888e+00
1.00007778e+00
1.00011557e+00
1.00015238e+00
1.00018837e+00
1.00022363e+00
1.00025824e+00
1.00029225e+00
1.00032565e+00
1.00035840e+00
1.00039042e+00
1.00042160e+00
1.00045179e+00
1.00048085e+00
1.00050862e+00
1.00053494e+00
1.00055968e+00
1.00058275e+00
1.00060407e+00
1.00062362e+00
1.00064142e+00
1.00065757e+00
1.00067218e+00
1.00068545e+00
1.00069758e+00
1.00070886e+00
1.00071957e+00
1.00073003e+00
1.00074058e+00
1.00075154e+00
1.00076324e+00
1.00077601e+00
1.00079013e+00
1.00080587e+00
1.00082348e+00
1.00084316e+00
1.00086507e+00
1.00088936e+00
1.00091611e+00
1.00094540e+00
1.00097724e+00
1.00101165e+00
1.00104860e+00
1.00108805e+00
1.00112992e+00
1.00117413e+00
1.00122059e+00
1.00126921e+00
1.00131989e+00
1.00137252e+00
1.00142704e+00
1.00148335e+00
1.00154142e+00
1.00160120e+00
1.00166269e+00
1.00172589e+00
1.00179083e+00
1.00185754e+00
1.00192605e+00
1.00199640e+00
1.00206859e+00
1.00214258e+00
1.00221830e+00
1.00229561e+00
1.00237431e+00
1.00245413e+00
1.00253471e+00
1.00261565e+00
1.00269646e+00
1.00277663e+00
1.00285559e+00
1.00293279e+00
1.00300767e+00
1.00307969e+00
1.00314838e+00
1.00321331e+00
1.00327415e+00
1.00333063e+00
1.00338259e+00
1.00342996e+00
1.00347274e+00
1.00351102e+00
1.00354497e+00
1.00357478e+00
1.00360074e+00
1.00362312e+00
1.00364223e+00
1.00365839e+00
1.00367190e+00
1.00368308e+00
1.00369219e+00
1.00369950e+00
1.00370524e+00
1.00370962e+00
1.00371283e+00
1.00371504e+00
1.00371635e+00
1.00371697e+00
1.00371702e+00
1.00371676e+00
1.00371608e+00
1.00371534e+00
1.00371500e+00
1.00371444e+00
9.96652339e-01
9.96650751e-01
9.96648683e-01
9.96647486e-01
9.96646196e-01
9.96644523e-01
9.96642889e-01
9.96641423e-01
9.96640007e-01
9.96638780e-01
9.96637900e-01
9.96637426e-01
9.96637425e-01
9.96638051e-01
9.96639467e-01
9.96641847e-01
9.96645407e-01
9.96650412e-01
9.96657154e-01
9.96665959e-01
9.96677196e-01
9.96691264e-01
9.96708585e-01
9.96729593e-01
9.96754730e-01
9.96784420e-01
9.96819060e-01
9.96858993e-01
9.96904493e-01
9.96955743e-01
9.97012816e-01
9.97075654e-01
9.97144063e-01
9.97217699e-01
9.97296068e-01
9.97378531e-01
9.97464316e-01
9.97552538e-01
9.97642222e-01
9.97732333e-01
9.97821812e-01
9.97909611e-01
9.97994724e-01
9.98076228e-01
9.98153307e-01
9.98225279e-01
9.98291613e-01
9.98351941e-01
9.98406063e-01
9.98453943e-01
9.98495701e-01
9.98531598e-01
9.98562021e-01
9.98587456e-01
9.98608472e-01
9.98625692e-01
9.98639777e-01
9.98651397e-01
9.98661222e-01
9.98669896e-01
9.98678034e-01
9.98686207e-01
9.98694936e-01
9.98704691e-01
9.98715887e-01
9.98728885e-01
9.98743995e-01
9.98761475e-01
9.98781539e-01
9.98804353e-01
9.98830040e-01
9.98858680e-01
9.98890311e-01
9.98924927e-01
9.98962477e-01
9.99002866e-01
9.99045953e-01
9.99091553e-01
9.99139435e-01
9.99189328e-01
9.99240925e-01
9.99293889e-01
9.99347861e-01
9.99402468e-01
9.99457338e-01
9.99512103e-01
9.99566418e-01
9.99619968e-01
9.99672474e-01
9.99723708e-01
9.99773493e-01
9.99821705e-01
9.99868279e-01
9.99913201e-01
9.99956507e-01
9.99998274e-01
1.00003861e+00
1.00007764e+00
1.00011551e+00
1.00015236e+00
1.00018831e+00
1.00022348e+00
1.00025792e+00
1.00029170e+00
1.00032481e+00
1.00035722e+00
1.00038887e+00
1.00041966e+00
1.00044947e+00
1.00047817e+00
1.00050562e+00
1.00053169e+00
1.00055626e+00
1.00057924e+00
1.00060059e+00
1.00062027e+00
1.00063833e+00
1.00065484e+00
1.00066992e+00
1.00068375e+00
1.00069653e+00
1.00070853e+00
1.00072001e+00
1.00073127e+00
1.00074262e+00
1.00075439e+00
1.00076687e+00
1.00078038e+00
1.00079519e+00
1.00081156e+00
1.00082972e+00
1.00084986e+00
1.00087216e+00
1.00089674e+00
1.00092370e+00
1.00095312e+00
1.00098501e+00
1.00101940e+00
1.00105626e+00
1.00109556e+00
1.00113723e+00
1.00118120e+00
1.00122739e+00
1.00127572e+00
1.00132608e+00
1.00137839e+00
1.00143257e+00
1.00148856e+00
1.00154631e+00
1.00160578e+00
1.00166695e+00
1.00172984e+00
1.00179447e+00
1.00186086e+00
1.00192905e+00
1.00199906e+00
1.00207088e+00
1.00214449e+00
1.00221980e+00
1.00229667e+00
1.00237492e+00
1.00245427e+00
1.00253438e+00
1.00261484e+00
1.00269519e+00
1.00277492e+00
1.00285349e+00
1.00293034e+00
1.00300492e+00
1.00307671e+00
1.00314523e+00
1.00321006e+00
1.00327086e+00
1.00332736e+00
1.00337940e+00
1.00342689e+00
1.00346982e+00
1.00350829e+00
1.00354243e+00
1.00357246e+00
1.00359863e+00
1.00362121e+00
1.00364052e+00
1.00365686e+00
1.00367054e+00
1.00368186e+00
1.00369111e+00
1.00369854e+00
1.00370439e+00
1.00370890e+00
1.00371222e+00
1.00371449e+00
1.00371595e+00
1.00371680e+00
1.00371700e+00
1.00371672e+00
1.00371642e+00
1.00371589e+00
1.00371421e+00
1.00371280e+00
9.96651174e-01
9.96649482e-01
9.96647639e-01
9.96646097e-01
9.96644566e-01
9.96643063e-01
9.96641583e-01
9.96640109e-01
9.96638770e-01
9.96637660e-01
9.96636851e-01
9.96636429e-01
9.96636516e-01
9.96637240e-01
9.96638757e-01
9.96641257e-01
9.96644966e-01
9.96650142e-01
9.96657079e-01
9.96666111e-01
9.96677605e-01
9.96691956e-01
9.96709583e-01
9.96730917e-01
9.96756389e-01
9.96786414e-01
9.96821375e-01
9.96861603e-01
9.96907353e-01
9.96958793e-01
9.97015977e-01
9.97078832e-01
9.97147149e-01
9.97220572e-01
9.97298598e-01
9.97380586e-01
9.97465765e-01
9.97553257e-01
9.97642099e-01
9.97731274e-01
9.97819744e-01
9.97906486e-01
9.97990523e-01
9.98070958e-01
9.98147003e-01
9.98218003e-01
9.98283449e-01
9.98342993e-01
9.98396451e-01
9.98443795e-01
9.98485153e-01
9.98520788e-01
9.98551081e-01
9.98576514e-01
9.98597647e-01
9.98615093e-01
9.98629498e-01
9.98641521e-01
9.98651816e-01
9.98661019e-01
9.98669730e-01
9.98678510e-01
9.98687872e-01
9.98698275e-01
9.98710127e-01
9.98723783e-01
9.98739543e-01
9.98757662e-01
9.98778343e-01
9.98801746e-01
9.98827986e-01
9.98857135e-01
9.98889222e-01
9.98924235e-01
9.98962118e-01
9.99002770e-01
9.99046048e-01
9.99091766e-01
9.99139697e-01
9.99189576e-01
9.99241104e-01
9.99293954e-01
9.99347779e-01
9.99402222e-01
9.99456922e-01
9.99511527e-01
9.99565702e-01
9.99619142e-01
9.99671577e-01
9.99722780e-01
9.99772574e-01
9.99820833e-01
9.99867482e-01
9.99912499e-01
9.99955906e-01
9.99997763e-01
1.00003816e+00
1.00007722e+00
1.00011507e+00
1.00015182e+00
1.00018761e+00
1.00022254e+00
1.00025667e+00
1.00029007e+00
1.00032274e+00
1.00035468e+00
1.00038582e+00
1.00041611e+00
1.00044545e+00
1.00047372e+00
1.00050082e+00
1.00052663e+00
1.00055107e+00
1.00057405e+00
1.00059553e+00
1.00061551e+00
1.00063401e+00
1.00065111e+00
1.00066692e+00
1.00068159e+00
1.00069533e+00
1.00070835e+00
1.00072091e+00
1.00073329e+00
1.00074577e+00
1.00075865e+00
1.00077220e+00
1.00078672e+00
1.00080247e+00
1.00081968e+00
1.00083858e+00
1.00085937e+00
1.00088219e+00
1.00090719e+00
1.00093445e+00
1.00096406e+00
1.00099605e+00
1.00103044e+00
1.00106721e+00
1.00110634e+00
1.00114779e+00
1.00119148e+00
1.00123734e+00
1.00128530e+00
1.00133527e+00
1.00138718e+00
1.00144096e+00
1.00149653e+00
1.00155387e+00
1.00161293e+00
1.00167371e+00
1.00173622e+00
1.00180047e+00
1.00186649e+00
1.00193430e+00
1.00200392e+00
1.00207535e+00
1.00214855e+00
1.00222344e+00
1.00229987e+00
1.00237766e+00
1.00245653e+00
1.00253616e+00
1.00261615e+00
1.00269603e+00
1.00277531e+00
1.00285346e+00
1.00292993e+00
1.00300417e+00
1.00307568e+00
1.00314398e+00
1.00320865e+00
1.00326935e+00
1.00332581e+00
1.00337785e+00
1.00342539e+00
1.00346842e+00
1.00350700e+00
1.00354129e+00
1.00357147e+00
1.00359780e+00
1.00362054e+00
1.00364000e+00
1.00365648e+00
1.00367029e+00
1.00368173e+00
1.00369109e+00
1.00369862e+00
1.00370456e+00
1.00370913e+00
1.00371253e+00
1.00371492e+00
1.00371647e+00
1.00371732e+00
1.00371768e+00
1.00371756e+00
1.00371703e+00
1.00371617e+00
1.00371471e+00
1.00371309e+00
9.96649094e-01
9.96647474e-01
9.96645854e-01
9.96643971e-01
9.96642301e-01
9.96640937e-01
9.96639492e-01
9.96638011e-01
9.96636736e-01
9.96635705e-01
9.96634940e-01
9.96634569e-01
9.96634731e-01
9.96635537e-01
9.96637144e-01
9.96639757e-01
9.96643604e-01
9.96648939e-01
9.96656063e-01
9.96665312e-01
9.96677049e-01
9.96691669e-01
9.96709587e-01
9.96731227e-01
9.96757010e-01
9.96787341e-01
9.96822589e-01
9.96863068e-01
9.96909018e-01
9.96960586e-01
9.97017809e-01
9.97080597e-01
9.97148725e-01
9.97221826e-01
9.97299391e-01
9.97380773e-01
9.97465207e-01
9.97551823e-01
9.97639672e-01
9.97727759e-01
9.97815069e-01
9.97900609e-01
9.97983430e-01
9.98062670e-01
9.98137569e-01
9.98207500e-01
9.98271979e-01
9.98330681e-01
9.98383434e-01
9.98430224e-01
9.98471182e-01
9.98506572e-01
9.98536773e-01
9.98562258e-01
9.98583577e-01
9.98601329e-01
9.98616148e-01
9.98628678e-01
9.98639562e-01
9.98649418e-01
9.98658838e-01
9.98668369e-01
9.98678515e-01
9.98689727e-01
9.98702404e-01
9.98716892e-01
9.98733484e-01
9.98752425e-01
9.98773911e-01
9.98798091e-01
9.98825069e-01
9.98854907e-01
9.98887623e-01
9.98923195e-01
9.98961556e-01
9.99002601e-01
9.99046181e-01
9.99092109e-01
9.99140160e-01
9.99190074e-01
9.99241561e-01
9.99294307e-01
9.99347979e-01
9.99402235e-01
9.99456732e-01
9.99511134e-01
9.99565122e-01
9.99618402e-01
9.99670713e-01
9.99721835e-01
9.99771590e-01
9.99819849e-01
9.99866530e-01
9.99911597e-01
9.99955059e-01
9.99996960e-01
1.00003738e+00
1.00007640e+00
1.00011415e+00
1.00015074e+00
1.00018628e+00
1.00022087e+00
1.00025459e+00
1.00028750e+00
1.00031962e+00
1.00035096e+00
1.00038150e+00
1.00041119e+00
1.00043996e+00
1.00046774e+00
1.00049445e+00
1.00051999e+00
1.00054430e+00
1.00056733e+00
1.00058904e+00
1.00060943e+00
1.00062854e+00
1.00064641e+00
1.00066317e+00
1.00067893e+00
1.00069389e+00
1.00070823e+00
1.00072217e+00
1.00073597e+00
1.00074988e+00
1.00076415e+00
1.00077906e+00
1.00079486e+00
1.00081179e+00
1.00083007e+00
1.00084993e+00
1.00087153e+00
1.00089503e+00
1.00092057e+00
1.00094824e+00
1.00097812e+00
1.00101025e+00
1.00104467e+00
1.00108138e+00
1.00112034e+00
1.00116154e+00
1.00120491e+00
1.00125041e+00
1.00129796e+00
1.00134748e+00
1.00139893e+00
1.00145223e+00
1.00150733e+00
1.00156420e+00
1.00162281e+00
1.00168314e+00
1.00174521e+00
1.00180904e+00
1.00187464e+00
1.00194204e+00
1.00201125e+00
1.00208225e+00
1.00215501e+00
1.00222944e+00
1.00230540e+00
1.00238269e+00
1.00246105e+00
1.00254016e+00
1.00261961e+00
1.00269897e+00
1.00277775e+00
1.00285541e+00
1.00293144e+00
1.00300529e+00
1.00307645e+00
1.00314446e+00
1.00320891e+00
1.00326944e+00
1.00332580e+00
1.00337780e+00
1.00342534e+00
1.00346841e+00
1.00350707e+00
1.00354145e+00
1.00357175e+00
1.00359820e+00
1.00362107e+00
1.00364065e+00
1.00365724e+00
1.00367116e+00
1.00368269e+00
1.00369212e+00
1.00369972e+00
1.00370573e+00
1.00371034e+00
1.00371377e+00
1.00371624e+00
1.00371784e+00
1.00371867e+00
1.00371905e+00
1.00371906e+00
1.00371839e+00
1.00371716e+00
1.00371584e+00
1.00371423e+00
9.96646472e-01
9.96644729e-01
9.96642898e-01
9.96641122e-01
9.96639539e-01
9.96637996e-01
9.96636493e-01
9.96635127e-01
9.96633889e-01
9.96632845e-01
9.96632127e-01
9.96631826e-01
9.96632035e-01
9.96632900e-01
9.96634596e-01
9.96637315e-01
9.96641281e-01
9.96646765e-01
9.96654066e-01
9.96663515e-01
9.96675479e-01
9.96690350e-01
9.96708537e-01
9.96730456e-01
9.96756521e-01
9.96787122e-01
9.96822614e-01
9.96863294e-01
9.96909385e-01
9.96961014e-01
9.97018200e-01
9.97080836e-01
9.97148682e-01
9.97221359e-01
9.97298350e-01
9.97379009e-01
9.97462574e-01
9.97548186e-01
9.97634913e-01
9.97721781e-01
9.97807806e-01
9.97892021e-01
9.97973513e-01
9.98051451e-01
9.98125110e-01
9.98193892e-01
9.98257339e-01
9.98315148e-01
9.98367164e-01
9.98413384e-01
9.98453945e-01
9.98489111e-01
9.98519257e-01
9.98544848e-01
9.98566423e-01
9.98584567e-01
9.98599900e-01
9.98613052e-01
9.98624648e-01
9.98635294e-01
9.98645567e-01
9.98656004e-01
9.98667096e-01
9.98679284e-01
9.98692958e-01
9.98708453e-01
9.98726053e-01
9.98745994e-01
9.98768457e-01
9.98793582e-01
9.98821460e-01
9.98852139e-01
9.98885624e-01
9.98921880e-01
9.98960831e-01
9.99002361e-01
9.99046317e-01
9.99092510e-01
9.99140717e-01
9.99190683e-01
9.99242129e-01
9.99294755e-01
9.99348246e-01
9.99402276e-01
9.99456523e-01
9.99510670e-01
9.99564415e-01
9.99617480e-01
9.99669615e-01
9.99720605e-01
9.99770277e-01
9.99818496e-01
9.99865174e-01
9.99910261e-01
9.99953750e-01
9.99995668e-01
1.00003607e+00
1.00007504e+00
1.00011266e+00
1.00014904e+00
1.00018429e+00
1.00021849e+00
1.00025174e+00
1.00028409e+00
1.00031560e+00
1.00034628e+00
1.00037614e+00
1.00040517e+00
1.00043334e+00
1.00046059e+00
1.00048688e+00
1.00051216e+00
1.00053638e+00
1.00055951e+00
1.00058152e+00
1.00060243e+00
1.00062226e+00
1.00064107e+00
1.00065895e+00
1.00067601e+00
1.00069240e+00
1.00070828e+00
1.00072384e+00
1.00073930e+00
1.00075488e+00
1.00077080e+00
1.00078730e+00
1.00080460e+00
1.00082292e+00
1.00084248e+00
1.00086346e+00
1.00088604e+00
1.00091036e+00
1.00093656e+00
1.00096474e+00
1.00099497e+00
1.00102732e+00
1.00106182e+00
1.00109848e+00
1.00113730e+00
1.00117826e+00
1.00122131e+00
1.00126642e+00
1.00131353e+00
1.00136258e+00
1.00141353e+00
1.00146632e+00
1.00152090e+00
1.00157726e+00
1.00163536e+00
1.00169521e+00
1.00175681e+00
1.00182017e+00
1.00188532e+00
1.00195226e+00
1.00202102e+00
1.00209156e+00
1.00216384e+00
1.00223777e+00
1.00231322e+00
1.00238998e+00
1.00246779e+00
1.00254632e+00
1.00262521e+00
1.00270400e+00
1.00278222e+00
1.00285935e+00
1.00293488e+00
1.00300827e+00
1.00307903e+00
1.00314670e+00
1.00321086e+00
1.00327118e+00
1.00332738e+00
1.00337927e+00
1.00342676e+00
1.00346983e+00
1.00350851e+00
1.00354295e+00
1.00357333e+00
1.00359986e+00
1.00362282e+00
1.00364248e+00
1.00365916e+00
1.00367315e+00
1.00368475e+00
1.00369424e+00
1.00370187e+00
1.00370790e+00
1.00371256e+00
1.00371602e+00
1.00371845e+00
1.00372006e+00
1.00372099e+00
1.00372128e+00
1.00372110e+00
1.00372048e+00
1.00371930e+00
1.00371774e+00
1.00371593e+00
9.96642991e-01
9.96641176e-01
9.96639199e-01
9.96637467e-01
9.96635850e-01
9.96634221e-01
9.96632733e-01
9.96631378e-01
9.96630121e-01
9.96629094e-01
9.96628412e-01
9.96628138e-01
9.96628380e-01
9.96629301e-01
9.96631068e-01
9.96633872e-01
9.96637947e-01
9.96643564e-01
9.96651022e-01
9.96660654e-01
9.96672825e-01
9.96687924e-01
9.96706354e-01
9.96728524e-01
9.96754837e-01
9.96785670e-01
9.96821362e-01
9.96862194e-01
9.96908368e-01
9.96959993e-01
9.97017069e-01
9.97079471e-01
9.97146945e-01
9.97219099e-01
9.97295412e-01
9.97375238e-01
9.97457818e-01
9.97542308e-01
9.97627794e-01
9.97713327e-01
9.97797951e-01
9.97880734e-01
9.97960798e-01
9.98037347e-01
9.98109689e-01
9.98177259e-01
9.98239629e-01
9.98296516e-01
9.98347783e-01
9.98393439e-01
9.98433627e-01
9.98468610e-01
9.98498758e-01
9.98524529e-01
9.98546447e-01
9.98565085e-01
9.98581046e-01
9.98594943e-01
9.98607385e-01
9.98618963e-01
9.98630239e-01
9.98641735e-01
9.98653931e-01
9.98667256e-01
9.98682088e-01
9.98698751e-01
9.98717518e-01
9.98738612e-01
9.98762202e-01
9.98788412e-01
9.98817320e-01
9.98848958e-01
9.98883317e-01
9.98920347e-01
9.98959960e-01
9.99002031e-01
9.99046400e-01
9.99092877e-01
9.99141241e-01
9.99191245e-01
9.99242621e-01
9.99295085e-01
9.99348340e-01
9.99402084e-01
9.99456015e-01
9.99509840e-01
9.99563277e-01
9.99616064e-01
9.99667966e-01
9.99718777e-01
9.99768325e-01
9.99816474e-01
9.99863126e-01
9.99908220e-01
9.99951731e-01
9.99993666e-01
1.00003406e+00
1.00007297e+00
1.00011047e+00
1.00014666e+00
1.00018161e+00
1.00021543e+00
1.00024819e+00
1.00027998e+00
1.00031086e+00
1.00034086e+00
1.00037004e+00
1.00039840e+00
1.00042594e+00
1.00045267e+00
1.00047855e+00
1.00050359e+00
1.00052774e+00
1.00055102e+00
1.00057340e+00
1.00059491e+00
1.00061558e+00
1.00063545e+00
1.00065458e+00
1.00067309e+00
1.00069107e+00
1.00070867e+00
1.00072604e+00
1.00074335e+00
1.00076078e+00
1.00077854e+00
1.00079681e+00
1.00081579e+00
1.00083568e+00
1.00085667e+00
1.00087893e+00
1.00090261e+00
1.00092788e+00
1.00095485e+00
1.00098362e+00
1.00101429e+00
1.00104691e+00
1.00108154e+00
1.00111820e+00
1.00115690e+00
1.00119763e+00
1.00124037e+00
1.00128509e+00
1.00133175e+00
1.00138032e+00
1.00143075e+00
1.00148301e+00
1.00153706e+00
1.00159288e+00
1.00165045e+00
1.00170979e+00
1.00177088e+00
1.00183376e+00
1.00189843e+00
1.00196490e+00
1.00203317e+00
1.00210323e+00
1.00217501e+00
1.00224843e+00
1.00232333e+00
1.00239952e+00
1.00247674e+00
1.00255468e+00
1.00263295e+00
1.00271113e+00
1.00278874e+00
1.00286529e+00
1.00294027e+00
1.00301315e+00
1.00308346e+00
1.00315072e+00
1.00321455e+00
1.00327458e+00
1.00333057e+00
1.00338231e+00
1.00342969e+00
1.00347270e+00
1.00351137e+00
1.00354582e+00
1.00357623e+00
1.00360281e+00
1.00362582e+00
1.00364554e+00
1.00366227e+00
1.00367630e+00
1.00368793e+00
1.00369745e+00
1.00370510e+00
1.00371113e+00
1.00371579e+00
1.00371925e+00
1.00372167e+00
1.00372323e+00
1.00372413e+00
1.00372440e+00
1.00372410e+00
1.00372340e+00
1.00372222e+00
1.00372045e+00
1.00371852e+00
9.96638603e-01
9.96636748e-01
9.96634799e-01
9.96632935e-01
9.96631214e-01
9.96629639e-01
9.96628134e-01
9.96626686e-01
9.96625429e-01
9.96624437e-01
9.96623745e-01
9.96623467e-01
9.96623745e-01
9.96624708e-01
9.96626520e-01
9.96629391e-01
9.96633560e-01
9.96639290e-01
9.96646883e-01
9.96656676e-01
9.96669031e-01
9.96684330e-01
9.96702972e-01
9.96725359e-01
9.96751879e-01
9.96782899e-01
9.96818741e-01
9.96859667e-01
9.96905860e-01
9.96957411e-01
9.97014298e-01
9.97076381e-01
9.97143389e-01
9.97214923e-01
9.97290455e-01
9.97369339e-01
9.97450827e-01
9.97534085e-01
9.97618224e-01
9.97702319e-01
9.97785448e-01
9.97866712e-01
9.97945271e-01
9.98020367e-01
9.98091343e-01
9.98157669e-01
9.98218943e-01
9.98274906e-01
9.98325441e-01
9.98370567e-01
9.98410431e-01
9.98445298e-01
9.98475530e-01
9.98501576e-01
9.98523946e-01
9.98543198e-01
9.98559917e-01
9.98574697e-01
9.98588131e-01
9.98600792e-01
9.98613224e-01
9.98625936e-01
9.98639392e-01
9.98654008e-01
9.98670148e-01
9.98688126e-01
9.98708200e-01
9.98730577e-01
9.98755415e-01
9.98782820e-01
9.98812853e-01
9.98845532e-01
9.98880830e-01
9.98918683e-01
9.98958991e-01
9.99001617e-01
9.99046398e-01
9.99093140e-01
9.99141627e-01
9.99191620e-01
9.99242865e-01
9.99295097e-01
9.99348039e-01
9.99401415e-01
9.99454948e-01
9.99508368e-01
9.99561419e-01
9.99613858e-01
9.99665466e-01
9.99716047e-01
9.99765433e-01
9.99813487e-01
9.99860102e-01
9.99905204e-01
9.99948750e-01
9.99990725e-01
1.00003114e+00
1.00007004e+00
1.00010746e+00
1.00014349e+00
1.00017820e+00
1.00021168e+00
1.00024401e+00
1.00027528e+00
1.00030556e+00
1.00033494e+00
1.00036346e+00
1.00039118e+00
1.00041814e+00
1.00044436e+00
1.00046988e+00
1.00049470e+00
1.00051884e+00
1.00054232e+00
1.00056513e+00
1.00058731e+00
1.00060888e+00
1.00062989e+00
1.00065038e+00
1.00067043e+00
1.00069012e+00
1.00070955e+00
1.00072885e+00
1.00074814e+00
1.00076756e+00
1.00078728e+00
1.00080746e+00
1.00082825e+00
1.00084984e+00
1.00087237e+00
1.00089602e+00
1.00092093e+00
1.00094723e+00
1.00097505e+00
1.00100451e+00
1.00103568e+00
1.00106864e+00
1.00110345e+00
1.00114016e+00
1.00117877e+00
1.00121930e+00
1.00126175e+00
1.00130610e+00
1.00135234e+00
1.00140043e+00
1.00145035e+00
1.00150207e+00
1.00155558e+00
1.00161086e+00
1.00166791e+00
1.00172673e+00
1.00178732e+00
1.00184970e+00
1.00191389e+00
1.00197988e+00
1.00204767e+00
1.00211723e+00
1.00218850e+00
1.00226138e+00
1.00233573e+00
1.00241133e+00
1.00248795e+00
1.00256525e+00
1.00264288e+00
1.00272040e+00
1.00279737e+00
1.00287329e+00
1.00294767e+00
1.00301999e+00
1.00308978e+00
1.00315659e+00
1.00322001e+00
1.00327972e+00
1.00333543e+00
1.00338695e+00
1.00343418e+00
1.00347708e+00
1.00351568e+00
1.00355010e+00
1.00358049e+00
1.00360708e+00
1.00363010e+00
1.00364984e+00
1.00366659e+00
1.00368064e+00
1.00369228e+00
1.00370179e+00
1.00370944e+00
1.00371546e+00
1.00372007e+00
1.00372349e+00
1.00372590e+00
1.00372742e+00
1.00372819e+00
1.00372841e+00
1.00372811e+00
1.00372727e+00
1.00372592e+00
1.00372413e+00
1.00372209e+00
9.96633466e-01
9.96631503e-01
9.96629475e-01
9.96627518e-01
9.96625756e-01
9.96624144e-01
9.96622567e-01
9.96621092e-01
9.96619824e-01
9.96618795e-01
9.96618082e-01
9.96617808e-01
9.96618091e-01
9.96619063e-01
9.96620906e-01
9.96623828e-01
9.96628064e-01
9.96633881e-01
9.96641586e-01
9.96651512e-01
9.96664018e-01
9.96679484e-01
9.96698303e-01
9.96720865e-01
9.96747550e-01
9.96778707e-01
9.96814644e-01
9.96855604e-01
9.96901750e-01
9.96953153e-01
9.97009772e-01
9.97071451e-01
9.97137904e-01
9.97208723e-01
9.97283376e-01
9.97361219e-01
9.97441514e-01
9.97523444e-01
9.97606140e-01
9.97688710e-01
9.97770262e-01
9.97849938e-01
9.97926934e-01
9.98000532e-01
9.98070115e-01
9.98135183e-01
9.98195366e-01
9.98250430e-01
9.98300274e-01
9.98344928e-01
9.98384546e-01
9.98419388e-01
9.98449812e-01
9.98476255e-01
9.98499211e-01
9.98519220e-01
9.98536849e-01
9.98552672e-01
9.98567260e-01
9.98581168e-01
9.98594922e-01
9.98609012e-01
9.98623886e-01
9.98639945e-01
9.98657539e-01
9.98676964e-01
9.98698465e-01
9.98722234e-01
9.98748412e-01
9.98777088e-01
9.98808306e-01
9.98842067e-01
9.98878328e-01
9.98917009e-01
9.98957998e-01
9.99001150e-01
9.99046295e-01
9.99093241e-01
9.99141776e-01
9.99191672e-01
9.99242693e-01
9.99294590e-01
9.99347116e-01
9.99400018e-01
9.99453049e-01
9.99505969e-01
9.99558544e-01
9.99610557e-01
9.99661805e-01
9.99712105e-01
9.99761295e-01
9.99809236e-01
9.99855814e-01
9.99900941e-01
9.99944554e-01
9.99986617e-01
1.00002712e+00
1.00006607e+00
1.00010350e+00
1.00013947e+00
1.00017403e+00
1.00020726e+00
1.00023926e+00
1.00027010e+00
1.00029989e+00
1.00032872e+00
1.00035667e+00
1.00038383e+00
1.00041028e+00
1.00043608e+00
1.00046129e+00
1.00048596e+00
1.00051013e+00
1.00053385e+00
1.00055714e+00
1.00058003e+00
1.00060255e+00
1.00062474e+00
1.00064664e+00
1.00066828e+00
1.00068974e+00
1.00071107e+00
1.00073235e+00
1.00075369e+00
1.00077518e+00
1.00079694e+00
1.00081910e+00
1.00084178e+00
1.00086514e+00
1.00088931e+00
1.00091443e+00
1.00094063e+00
1.00096805e+00
1.00099680e+00
1.00102700e+00
1.00105874e+00
1.00109210e+00
1.00112716e+00
1.00116395e+00
1.00120253e+00
1.00124291e+00
1.00128510e+00
1.00132912e+00
1.00137496e+00
1.00142260e+00
1.00147204e+00
1.00152326e+00
1.00157625e+00
1.00163102e+00
1.00168756e+00
1.00174588e+00
1.00180599e+00
1.00186789e+00
1.00193161e+00
1.00199713e+00
1.00206445e+00
1.00213352e+00
1.00220429e+00
1.00227664e+00
1.00235042e+00
1.00242543e+00
1.00250142e+00
1.00257807e+00
1.00265502e+00
1.00273186e+00
1.00280815e+00
1.00288340e+00
1.00295712e+00
1.00302883e+00
1.00309805e+00
1.00316435e+00
1.00322732e+00
1.00328662e+00
1.00334200e+00
1.00339326e+00
1.00344027e+00
1.00348301e+00
1.00352149e+00
1.00355582e+00
1.00358616e+00
1.00361271e+00
1.00363571e+00
1.00365544e+00
1.00367217e+00
1.00368621e+00
1.00369783e+00
1.00370731e+00
1.00371491e+00
1.00372090e+00
1.00372547e+00
1.00372882e+00
1.00373116e+00
1.00373262e+00
1.00373333e+00
1.00373343e+00
1.00373306e+00
1.00373213e+00
1.00373064e+00
1.00372872e+00
1.00372653e+00
9.96627483e-01
9.96625376e-01
9.96623196e-01
9.96621208e-01
9.96619406e-01
9.96617678e-01
9.96616041e-01
9.96614551e-01
9.96613221e-01
9.96612131e-01
9.96611397e-01
9.96611102e-01
9.96611355e-01
9.96612318e-01
9.96614172e-01
9.96617116e-01
9.96621388e-01
9.96627265e-01
9.96635052e-01
9.96645076e-01
9.96657698e-01
9.96673294e-01
9.96692247e-01
9.96714939e-01
9.96741738e-01
9.96772979e-01
9.96808952e-01
9.96849880e-01
9.96895910e-01
9.96947090e-01
9.97003362e-01
9.97064552e-01
9.97130363e-01
9.97200376e-01
9.97274058e-01
9.97350770e-01
9.97429783e-01
9.97510300e-01
9.97591476e-01
9.97672451e-01
9.97752368e-01
9.97830407e-01
9.97905808e-01
9.97977892e-01
9.98046079e-01
9.98109906e-01
9.98169033e-01
9.98223250e-01
9.98272472e-01
9.98316742e-01
9.98356216e-01
9.98391152e-01
9.98421901e-01
9.98448884e-01
9.98472580e-01
9.98493510e-01
9.98512217e-01
9.98529254e-01
9.98545171e-01
9.98560498e-01
9.98575742e-01
9.98591373e-01
9.98607820e-01
9.98625465e-01
9.98644642e-01
9.98665631e-01
9.98688658e-01
9.98713900e-01
9.98741480e-01
9.98771469e-01
9.98803895e-01
9.98838740e-01
9.98875945e-01
9.98915418e-01
9.98957033e-01
9.99000639e-01
9.99046063e-01
9.99093114e-01
9.99141587e-01
9.99191269e-01
9.99241940e-01
9.99293378e-01
9.99345360e-01
9.99397665e-01
9.99450077e-01
9.99502385e-01
9.99554387e-01
9.99605889e-01
9.99656708e-01
9.99706676e-01
9.99755638e-01
9.99803453e-01
9.99850002e-01
9.99895182e-01
9.99938913e-01
9.99981133e-01
1.00002181e+00
1.00006092e+00
1.00009847e+00
1.00013450e+00
1.00016905e+00
1.00020219e+00
1.00023399e+00
1.00026457e+00
1.00029401e+00
1.00032243e+00
1.00034995e+00
1.00037667e+00
1.00040272e+00
1.00042819e+00
1.00045318e+00
1.00047777e+00
1.00050204e+00
1.00052605e+00
1.00054985e+00
1.00057348e+00
1.00059698e+00
1.00062036e+00
1.00064366e+00
1.00066691e+00
1.00069013e+00
1.00071336e+00
1.00073664e+00
1.00076002e+00
1.00078359e+00
1.00080741e+00
1.00083157e+00
1.00085618e+00
1.00088135e+00
1.00090719e+00
1.00093382e+00
1.00096137e+00
1.00098995e+00
1.00101969e+00
1.00105070e+00
1.00108306e+00
1.00111688e+00
1.00115223e+00
1.00118918e+00
1.00122777e+00
1.00126806e+00
1.00131006e+00
1.00135380e+00
1.00139929e+00
1.00144653e+00
1.00149553e+00
1.00154630e+00
1.00159883e+00
1.00165313e+00
1.00170920e+00
1.00176706e+00
1.00182673e+00
1.00188819e+00
1.00195148e+00
1.00201657e+00
1.00208344e+00
1.00215205e+00
1.00222233e+00
1.00229416e+00
1.00236739e+00
1.00244181e+00
1.00251716e+00
1.00259315e+00
1.00266941e+00
1.00274555e+00
1.00282112e+00
1.00289566e+00
1.00296869e+00
1.00303974e+00
1.00310834e+00
1.00317406e+00
1.00323652e+00
1.00329537e+00
1.00335036e+00
1.00340129e+00
1.00344803e+00
1.00349055e+00
1.00352886e+00
1.00356306e+00
1.00359329e+00
1.00361976e+00
1.00364270e+00
1.00366238e+00
1.00367906e+00
1.00369305e+00