# vtk DataFile Version 2.0
LBM Flow Field - Timestep 300
ASCII
DATASET STRUCTURED_POINTS
DIMENSIONS 200 100 1
ORIGIN 0.0 0.0 0.0
SPACING 1.0 1.0 1.0
POINT_DATA 20000
SCALARS density double 1
LOOKUP_TABLE default
9.94097705e-01
9.94097758e-01
9.94097628e-01
9.94097075e-01
9.94096644e-01
9.94096538e-01
9.94096793e-01
9.94097430e-01
9.94098449e-01
9.94099808e-01
9.94101460e-01
9.94103384e-01
9.94105570e-01
9.94108010e-01
9.94110700e-01
9.94113639e-01
9.94116825e-01
9.94120257e-01
9.94123932e-01
9.94127849e-01
9.94132007e-01
9.94136404e-01
9.94141039e-01
9.94145910e-01
9.94151014e-01
9.94156351e-01
9.94161918e-01
9.94167714e-01
9.94173738e-01
9.94179986e-01
9.94186460e-01
9.94193156e-01
9.94200074e-01
9.94207215e-01
9.94214579e-01
9.94222173e-01
9.94230012e-01
9.94238124e-01
9.94246558e-01
9.94255398e-01
9.94264777e-01
9.94274900e-01
9.94286078e-01
9.94298761e-01
9.94313589e-01
9.94331448e-01
9.94353523e-01
9.94381347e-01
9.94416840e-01
9.94462300e-01
9.94520363e-01
9.94593889e-01
9.94685791e-01
9.94798785e-01
9.94935099e-01
9.95096143e-01
9.95282207e-01
9.95492207e-01
9.95723563e-01
9.95972212e-01
9.96232815e-01
9.96499118e-01
9.96764463e-01
9.97022356e-01
9.97267034e-01
9.97493939e-01
9.97700029e-01
9.97883892e-01
9.98045659e-01
9.98186749e-01
9.98309490e-01
9.98416714e-01
9.98511365e-01
9.98596192e-01
9.98673540e-01
9.98745259e-01
9.98812707e-01
9.98876817e-01
9.98938195e-01
9.98997231e-01
9.99054185e-01
9.99109257e-01
9.99162622e-01
9.99214449e-01
9.99264902e-01
9.99314140e-01
9.99362306e-01
9.99409530e-01
9.99455927e-01
9.99501594e-01
9.99546621e-01
9.99591085e-01
9.99635058e-01
9.99678607e-01
9.99721793e-01
9.99764673e-01
9.99807303e-01
9.99849735e-01
9.99892019e-01
9.99934203e-01
9.99976337e-01
1.00001847e+00
1.00006064e+00
1.00010290e+00
1.00014531e+00
1.00018790e+00
1.00023073e+00
1.00027386e+00
1.00031735e+00
1.00036125e+00
1.00040564e+00
1.00045059e+00
1.00049619e+00
1.00054253e+00
1.00058975e+00
1.00063795e+00
1.00068728e+00
1.00073787e+00
1.00078984e+00
1.00084334e+00
1.00089853e+00
1.00095565e+00
1.00101511e+00
1.00107756e+00
1.00114401e+00
1.00121593e+00
1.00129525e+00
1.00138444e+00
1.00148631e+00
1.00160383e+00
1.00173989e+00
1.00189686e+00
1.00207632e+00
1.00227866e+00
1.00250288e+00
1.00274652e+00
1.00300567e+00
1.00327523e+00
1.00354925e+00
1.00382138e+00
1.00408540e+00
1.00433562e+00
1.00456734e+00
1.00477707e+00
1.00496270e+00
1.00512348e+00
1.00525990e+00
1.00537344e+00
1.00546632e+00
1.00554121e+00
1.00560094e+00
1.00564827e+00
1.00568577e+00
1.00571567e+00
1.00573984e+00
1.00575980e+00
1.00577672e+00
1.00579146e+00
1.00580468e+00
1.00581683e+00
1.00582821e+00
1.00583903e+00
1.00584943e+00
1.00585949e+00
1.00586925e+00
1.00587873e+00
1.00588796e+00
1.00589694e+00
1.00590565e+00
1.00591411e+00
1.00592231e+00
1.00593024e+00
1.00593791e+00
1.00594530e+00
1.00595242e+00
1.00595926e+00
1.00596582e+00
1.00597208e+00
1.00597806e+00
1.00598374e+00
1.00598912e+00
1.00599419e+00
1.00599896e+00
1.00600342e+00
1.00600757e+00
1.00601140e+00
1.00601491e+00
1.00601810e+00
1.00602096e+00
1.00602348e+00
1.00602565e+00
1.00602745e+00
1.00602883e+00
1.00602976e+00
1.00603021e+00
1.00603022e+00
1.00602985e+00
1.00602930e+00
1.00602902e+00
1.00602893e+00
9.94098165e-01
9.94098103e-01
9.94098060e-01
9.94097818e-01
9.94097718e-01
9.94097828e-01
9.94098214e-01
9.94098920e-01
9.94099953e-01
9.94101297e-01
9.94102930e-01
9.94104839e-01
9.94107010e-01
9.94109437e-01
9.94112117e-01
9.94115046e-01
9.94118222e-01
9.94121644e-01
9.94125309e-01
9.94129217e-01
9.94133365e-01
9.94137752e-01
9.94142376e-01
9.94147236e-01
9.94152330e-01
9.94157656e-01
9.94163213e-01
9.94168998e-01
9.94175009e-01
9.94181247e-01
9.94187709e-01
9.94194394e-01
9.94201301e-01
9.94208433e-01
9.94215791e-01
9.94223386e-01
9.94231237e-01
9.94239377e-01
9.94247867e-01
9.94256805e-01
9.94266345e-01
9.94276724e-01
9.94288291e-01
9.94301548e-01
9.94317198e-01
9.94336194e-01
9.94359791e-01
9.94389582e-01
9.94427519e-01
9.94475897e-01
9.94537283e-01
9.94614402e-01
9.94709947e-01
9.94826339e-01
9.94965449e-01
9.95128307e-01
9.95314843e-01
9.95523695e-01
9.95752139e-01
9.95996155e-01
9.96250646e-01
9.96509799e-01
9.96767543e-01
9.97018043e-01
9.97256171e-01
9.97477887e-01
9.97680476e-01
9.97862626e-01
9.98024339e-01
9.98166723e-01
9.98291687e-01
9.98401612e-01
9.98499033e-01
9.98586391e-01
9.98665843e-01
9.98739174e-01
9.98807770e-01
9.98872651e-01
9.98934536e-01
9.98993920e-01
9.99051145e-01
9.99106461e-01
9.99160068e-01
9.99212137e-01
9.99262826e-01
9.99312286e-01
9.99360655e-01
9.99408062e-01
9.99454621e-01
9.99500435e-01
9.99545597e-01
9.99590187e-01
9.99634280e-01
9.99677943e-01
9.99721237e-01
9.99764223e-01
9.99806954e-01
9.99849486e-01
9.99891867e-01
9.99934149e-01
9.99976379e-01
1.00001861e+00
1.00006088e+00
1.00010324e+00
1.00014575e+00
1.00018845e+00
1.00023140e+00
1.00027465e+00
1.00031826e+00
1.00036230e+00
1.00040683e+00
1.00045195e+00
1.00049773e+00
1.00054429e+00
1.00059172e+00
1.00064016e+00
1.00068972e+00
1.00074053e+00
1.00079274e+00
1.00084652e+00
1.00090210e+00
1.00095982e+00
1.00102019e+00
1.00108397e+00
1.00115223e+00
1.00122643e+00
1.00130843e+00
1.00140048e+00
1.00150509e+00
1.00162485e+00
1.00176225e+00
1.00191930e+00
1.00209731e+00
1.00229656e+00
1.00251613e+00
1.00275378e+00
1.00300603e+00
1.00326827e+00
1.00353513e+00
1.00380079e+00
1.00405946e+00
1.00430580e+00
1.00453524e+00
1.00474429e+00
1.00493069e+00
1.00509344e+00
1.00523270e+00
1.00534962e+00
1.00544609e+00
1.00552449e+00
1.00558747e+00
1.00563766e+00
1.00567756e+00
1.00570940e+00
1.00573508e+00
1.00575616e+00
1.00577389e+00
1.00578922e+00
1.00580282e+00
1.00581523e+00
1.00582677e+00
1.00583769e+00
1.00584814e+00
1.00585822e+00
1.00586799e+00
1.00587748e+00
1.00588670e+00
1.00589566e+00
1.00590436e+00
1.00591280e+00
1.00592099e+00
1.00592891e+00
1.00593656e+00
1.00594394e+00
1.00595104e+00
1.00595787e+00
1.00596441e+00
1.00597066e+00
1.00597663e+00
1.00598229e+00
1.00598766e+00
1.00599272e+00
1.00599748e+00
1.00600193e+00
1.00600606e+00
1.00600988e+00
1.00601338e+00
1.00601655e+00
1.00601940e+00
1.00602190e+00
1.00602405e+00
1.00602584e+00
1.00602723e+00
1.00602823e+00
1.00602882e+00
1.00602906e+00
1.00602903e+00
1.00602881e+00
1.00602867e+00
1.00602854e+00
9.94098863e-01
9.94098680e-01
9.94098514e-01
9.94098548e-01
9.94098695e-01
9.94098939e-01
9.94099424e-01
9.94100190e-01
9.94101240e-01
9.94102579e-01
9.94104208e-01
9.94106109e-01
9.94108273e-01
9.94110693e-01
9.94113365e-01
9.94116287e-01
9.94119457e-01
9.94122872e-01
9.94126530e-01
9.94130431e-01
9.94134572e-01
9.94138952e-01
9.94143569e-01
9.94148422e-01
9.94153509e-01
9.94158827e-01
9.94164376e-01
9.94170153e-01
9.94176158e-01
9.94182388e-01
9.94188842e-01
9.94195520e-01
9.94202422e-01
9.94209551e-01
9.94216911e-01
9.94224517e-01
9.94232392e-01
9.94240579e-01
9.94249153e-01
9.94258231e-01
9.94267996e-01
9.94278724e-01
9.94290813e-01
9.94304832e-01
9.94321557e-01
9.94342023e-01
9.94367563e-01
9.94399834e-01
9.94440817e-01
9.94492784e-01
9.94558209e-01
9.94639632e-01
9.94739470e-01
9.94859777e-01
9.95001994e-01
9.95166699e-01
9.95353407e-01
9.95560449e-01
9.95784961e-01
9.96023005e-01
9.96269809e-01
9.96520108e-01
9.96768537e-01
9.97010046e-01
9.97240253e-01
9.97455718e-01
9.97654104e-01
9.97834207e-01
9.97995880e-01
9.98139869e-01
9.98267589e-01
9.98380889e-01
9.98481819e-01
9.98572440e-01
9.98654670e-01
9.98730192e-01
9.98800408e-01
9.98866426e-01
9.98929093e-01
9.98989028e-01
9.99046677e-01
9.99102360e-01
9.99156312e-01
9.99208719e-01
9.99259738e-01
9.99309511e-01
9.99358171e-01
9.99405842e-01
9.99452642e-01
9.99498675e-01
9.99544038e-01
9.99588817e-01
9.99633087e-01
9.99676920e-01
9.99720377e-01
9.99763521e-01
9.99806406e-01
9.99849088e-01
9.99891618e-01
9.99934047e-01
9.99976424e-01
1.00001880e+00
1.00006122e+00
1.00010374e+00
1.00014641e+00
1.00018927e+00
1.00023239e+00
1.00027582e+00
1.00031962e+00
1.00036386e+00
1.00040862e+00
1.00045399e+00
1.00050004e+00
1.00054690e+00
1.00059465e+00
1.00064341e+00
1.00069330e+00
1.00074446e+00
1.00079704e+00
1.00085129e+00
1.00090750e+00
1.00096615e+00
1.00102786e+00
1.00109350e+00
1.00116422e+00
1.00124147e+00
1.00132696e+00
1.00142268e+00
1.00153077e+00
1.00165336e+00
1.00179244e+00
1.00194961e+00
1.00212583e+00
1.00232127e+00
1.00253507e+00
1.00276531e+00
1.00300899e+00
1.00326213e+00
1.00352002e+00
1.00377753e+00
1.00402939e+00
1.00427067e+00
1.00449699e+00
1.00470489e+00
1.00489194e+00
1.00505683e+00
1.00519935e+00
1.00532023e+00
1.00542098e+00
1.00550366e+00
1.00557063e+00
1.00562437e+00
1.00566728e+00
1.00570158e+00
1.00572920e+00
1.00575175e+00
1.00577056e+00
1.00578665e+00
1.00580079e+00
1.00581354e+00
1.00582531e+00
1.00583638e+00
1.00584691e+00
1.00585704e+00
1.00586683e+00
1.00587633e+00
1.00588555e+00
1.00589451e+00
1.00590320e+00
1.00591164e+00
1.00591982e+00
1.00592773e+00
1.00593537e+00
1.00594274e+00
1.00594984e+00
1.00595666e+00
1.00596319e+00
1.00596944e+00
1.00597539e+00
1.00598105e+00
1.00598641e+00
1.00599146e+00
1.00599621e+00
1.00600065e+00
1.00600478e+00
1.00600859e+00
1.00601208e+00
1.00601525e+00
1.00601808e+00
1.00602058e+00
1.00602273e+00
1.00602451e+00
1.00602592e+00
1.00602697e+00
1.00602767e+00
1.00602807e+00
1.00602827e+00
1.00602831e+00
1.00602815e+00
1.00602794e+00
9.94099526e-01
9.94099292e-01
9.94099175e-01
9.94099253e-01
9.94099443e-01
9.94099810e-01
9.94100398e-01
9.94101216e-01
9.94102298e-01
9.94103658e-01
9.94105294e-01
9.94107194e-01
9.94109356e-01
9.94111773e-01
9.94114442e-01
9.94117360e-01
9.94120525e-01
9.94123936e-01
9.94127591e-01
9.94131487e-01
9.94135624e-01
9.94140000e-01
9.94144613e-01
9.94149462e-01
9.94154544e-01
9.94159859e-01
9.94165403e-01
9.94171176e-01
9.94177177e-01
9.94183403e-01
9.94189855e-01
9.94196531e-01
9.94203433e-01
9.94210566e-01
9.94217938e-01
9.94225568e-01
9.94233488e-01
9.94241755e-01
9.94250462e-01
9.94259754e-01
9.94269856e-01
9.94281095e-01
9.94293940e-01
9.94309041e-01
9.94327269e-01
9.94349757e-01
9.94377926e-01
9.94413496e-01
9.94458462e-01
9.94515032e-01
9.94585524e-01
9.94672208e-01
9.94777113e-01
9.94901809e-01
9.95047190e-01
9.95213288e-01
9.95399150e-01
9.95602798e-01
9.95821297e-01
9.96050925e-01
9.96287413e-01
9.96526255e-01
9.96763011e-01
9.96993593e-01
9.97214493e-01
9.97422935e-01
9.97616948e-01
9.97795366e-01
9.97957778e-01
9.98104434e-01
9.98236121e-01
9.98354036e-01
9.98459651e-01
9.98554584e-01
9.98640481e-01
9.98718912e-01
9.98791301e-01
9.98858867e-01
9.98922605e-01
9.98983288e-01
9.99041490e-01
9.99097622e-01
9.99151976e-01
9.99204765e-01
9.99256151e-01
9.99306275e-01
9.99355265e-01
9.99403241e-01
9.99450320e-01
9.99496609e-01
9.99542207e-01
9.99587204e-01
9.99631681e-01
9.99675709e-01
9.99719356e-01
9.99762682e-01
9.99805745e-01
9.99848602e-01
9.99891305e-01
9.99933906e-01
9.99976455e-01
1.00001900e+00
1.00006160e+00
1.00010430e+00
1.00014715e+00
1.00019020e+00
1.00023352e+00
1.00027715e+00
1.00032118e+00
1.00036566e+00
1.00041068e+00
1.00045633e+00
1.00050270e+00
1.00054989e+00
1.00059799e+00
1.00064711e+00
1.00069738e+00
1.00074894e+00
1.00080200e+00
1.00085685e+00
1.00091393e+00
1.00097381e+00
1.00103731e+00
1.00110543e+00
1.00117939e+00
1.00126063e+00
1.00135074e+00
1.00145138e+00
1.00156424e+00
1.00169092e+00
1.00183278e+00
1.00199086e+00
1.00216568e+00
1.00235715e+00
1.00256446e+00
1.00278597e+00
1.00301922e+00
1.00326098e+00
1.00350737e+00
1.00375409e+00
1.00399663e+00
1.00423061e+00
1.00445200e+00
1.00465742e+00
1.00484434e+00
1.00501111e+00
1.00515709e+00
1.00528251e+00
1.00538838e+00
1.00547631e+00
1.00554833e+00
1.00560665e+00
1.00565353e+00
1.00569112e+00
1.00572137e+00
1.00574595e+00
1.00576628e+00
1.00578346e+00
1.00579836e+00
1.00581164e+00
1.00582376e+00
1.00583504e+00
1.00584572e+00
1.00585593e+00
1.00586577e+00
1.00587529e+00
1.00588452e+00
1.00589349e+00
1.00590219e+00
1.00591062e+00
1.00591880e+00
1.00592671e+00
1.00593435e+00
1.00594172e+00
1.00594881e+00
1.00595562e+00
1.00596215e+00
1.00596840e+00
1.00597435e+00
1.00598000e+00
1.00598536e+00
1.00599041e+00
1.00599516e+00
1.00599960e+00
1.00600372e+00
1.00600753e+00
1.00601102e+00
1.00601418e+00
1.00601701e+00
1.00601951e+00
1.00602167e+00
1.00602347e+00
1.00602492e+00
1.00602602e+00
1.00602682e+00
1.00602734e+00
1.00602761e+00
1.00602771e+00
1.00602758e+00
1.00602728e+00
9.94100182e-01
9.94099875e-01
9.94099763e-01
9.94099833e-01
9.94100084e-01
9.94100547e-01
9.94101185e-01
9.94102040e-01
9.94103156e-01
9.94104537e-01
9.94106180e-01
9.94108085e-01
9.94110250e-01
9.94112668e-01
9.94115336e-01
9.94118254e-01
9.94121419e-01
9.94124828e-01
9.94128482e-01
9.94132377e-01
9.94136513e-01
9.94140887e-01
9.94145499e-01
9.94150347e-01
9.94155428e-01
9.94160741e-01
9.94166285e-01
9.94172058e-01
9.94178058e-01
9.94184284e-01
9.94190737e-01
9.94197416e-01
9.94204325e-01
9.94211470e-01
9.94218864e-01
9.94226534e-01
9.94234522e-01
9.94242904e-01
9.94251798e-01
9.94261386e-01
9.94271943e-01
9.94283864e-01
9.94297703e-01
9.94314209e-01
9.94334367e-01
9.94359420e-01
9.94390886e-01
9.94430543e-01
9.94480380e-01
9.94542508e-01
9.94619028e-01
9.94711863e-01
9.94822564e-01
9.94952120e-01
9.95100788e-01
9.95267980e-01
9.95452230e-01
9.95651253e-01
9.95862086e-01
9.96081304e-01
9.96305266e-01
9.96530360e-01
9.96753214e-01
9.96970844e-01
9.97180730e-01
9.97380845e-01
9.97569634e-01
9.97745987e-01
9.97909208e-01
9.98058997e-01
9.98195437e-01
9.98318981e-01
9.98430421e-01
9.98530837e-01
9.98621519e-01
9.98703863e-01
9.98779275e-01
9.98849067e-01
9.98914391e-01
9.98976192e-01
9.99035202e-01
9.99091957e-01
9.99146835e-01
9.99200095e-01
9.99251925e-01
9.99302469e-01
9.99351853e-01
9.99400195e-01
9.99447608e-01
9.99494203e-01
9.99540080e-01
9.99585334e-01
9.99630051e-01
9.99674305e-01
9.99718168e-01
9.99761703e-01
9.99804969e-01
9.99848024e-01
9.99890922e-01
9.99933717e-01
9.99976461e-01
1.00001920e+00
1.00006200e+00
1.00010490e+00
1.00014796e+00
1.00019123e+00
1.00023477e+00
1.00027864e+00
1.00032293e+00
1.00036769e+00
1.00041302e+00
1.00045901e+00
1.00050575e+00
1.00055333e+00
1.00060184e+00
1.00065140e+00
1.00070214e+00
1.00075423e+00
1.00080796e+00
1.00086371e+00
1.00092205e+00
1.00098375e+00
1.00104977e+00
1.00112126e+00
1.00119952e+00
1.00128592e+00
1.00138184e+00
1.00148858e+00
1.00160730e+00
1.00173892e+00
1.00188413e+00
1.00204329e+00
1.00221645e+00
1.00240323e+00
1.00260283e+00
1.00281396e+00
1.00303478e+00
1.00326290e+00
1.00349542e+00
1.00372900e+00
1.00396005e+00
1.00418484e+00
1.00439981e+00
1.00460172e+00
1.00478792e+00
1.00495644e+00
1.00510614e+00
1.00523667e+00
1.00534847e+00
1.00544260e+00
1.00552066e+00
1.00558454e+00
1.00563629e+00
1.00567798e+00
1.00571154e+00
1.00573871e+00
1.00576099e+00
1.00577960e+00
1.00579552e+00
1.00580950e+00
1.00582208e+00
1.00583368e+00
1.00584455e+00
1.00585488e+00
1.00586479e+00
1.00587436e+00
1.00588362e+00
1.00589260e+00
1.00590131e+00
1.00590975e+00
1.00591793e+00
1.00592585e+00
1.00593349e+00
1.00594086e+00
1.00594796e+00
1.00595478e+00
1.00596131e+00
1.00596755e+00
1.00597350e+00
1.00597916e+00
1.00598452e+00
1.00598958e+00
1.00599432e+00
1.00599876e+00
1.00600289e+00
1.00600670e+00
1.00601019e+00
1.00601335e+00
1.00601619e+00
1.00601869e+00
1.00602086e+00
1.00602268e+00
1.00602416e+00
1.00602531e+00
1.00602617e+00
1.00602677e+00
1.00602712e+00
1.00602723e+00
1.00602707e+00
1.00602668e+00
9.94100753e-01
9.94100357e-01
9.94100221e-01
9.94100310e-01
9.94100602e-01
9.94101082e-01
9.94101754e-01
9.94102660e-01
9.94103807e-01
9.94105204e-01
9.94106862e-01
9.94108778e-01
9.94110948e-01
9.94113370e-01
9.94116041e-01
9.94118961e-01
9.94122128e-01
9.94125539e-01
9.94129194e-01
9.94133091e-01
9.94137228e-01
9.94141605e-01
9.94146218e-01
9.94151067e-01
9.94156151e-01
9.94161466e-01
9.94167013e-01
9.94172788e-01
9.94178792e-01
9.94185023e-01
9.94191481e-01
9.94198169e-01
9.94205090e-01
9.94212257e-01
9.94219687e-01
9.94227415e-01
9.94235502e-01
9.94244043e-01
9.94253190e-01
9.94263173e-01
9.94274330e-01
9.94287136e-01
9.94302247e-01
9.94320529e-01
9.94343090e-01
9.94371293e-01
9.94406750e-01
9.94451281e-01
9.94506836e-01
9.94575376e-01
9.94658721e-01
9.94758366e-01
9.94875305e-01
9.95009868e-01
9.95161617e-01
9.95329320e-01
9.95511015e-01
9.95704156e-01
9.95905833e-01
9.96113022e-01
9.96322809e-01
9.96532571e-01
9.96740072e-01
9.96943466e-01
9.97141241e-01
9.97332117e-01
9.97514957e-01
9.97688707e-01
9.97852399e-01
9.98005199e-01
9.98146499e-01
9.98276011e-01
9.98393831e-01
9.98500462e-01
9.98596776e-01
9.98683928e-01
9.98763234e-01
9.98836041e-01
9.98903618e-01
9.98967065e-01
9.99027276e-01
9.99084934e-01
9.99140526e-01
9.99194393e-01
9.99246767e-01
9.99297818e-01
9.99347678e-01
9.99396466e-01
9.99444292e-01
9.99491266e-01
9.99537490e-01
9.99583063e-01
9.99628074e-01
9.99672605e-01
9.99716729e-01
9.99760514e-01
9.99804024e-01
9.99847316e-01
9.99890448e-01
9.99933474e-01
9.99976448e-01
1.00001942e+00
1.00006246e+00
1.00010560e+00
1.00014890e+00
1.00019243e+00
1.00023625e+00
1.00028042e+00
1.00032503e+00
1.00037014e+00
1.00041586e+00
1.00046226e+00
1.00050943e+00
1.00055748e+00
1.00060650e+00
1.00065660e+00
1.00070795e+00
1.00076080e+00
1.00081551e+00
1.00087261e+00
1.00093281e+00
1.00099703e+00
1.00106640e+00
1.00114215e+00
1.00122561e+00
1.00131803e+00
1.00142053e+00
1.00153399e+00
1.00165899e+00
1.00179579e+00
1.00194435e+00
1.00210439e+00
1.00227544e+00
1.00245686e+00
1.00264785e+00
1.00284746e+00
1.00305449e+00
1.00326742e+00
1.00348438e+00
1.00370309e+00
1.00392090e+00
1.00413491e+00
1.00434205e+00
1.00453934e+00
1.00472404e+00
1.00489390e+00
1.00504726e+00
1.00518318e+00
1.00530143e+00
1.00540249e+00
1.00548743e+00
1.00555775e+00
1.00561525e+00
1.00566184e+00
1.00569943e+00
1.00572979e+00
1.00575451e+00
1.00577493e+00
1.00579215e+00
1.00580704e+00
1.00582024e+00
1.00583225e+00
1.00584339e+00
1.00585389e+00
1.00586391e+00
1.00587354e+00
1.00588285e+00
1.00589185e+00
1.00590058e+00
1.00590904e+00
1.00591723e+00
1.00592515e+00
1.00593281e+00
1.00594019e+00
1.00594729e+00
1.00595412e+00
1.00596066e+00
1.00596691e+00
1.00597287e+00
1.00597853e+00
1.00598389e+00
1.00598896e+00
1.00599371e+00
1.00599815e+00
1.00600229e+00
1.00600610e+00
1.00600960e+00
1.00601277e+00
1.00601561e+00
1.00601813e+00
1.00602031e+00
1.00602216e+00
1.00602367e+00
1.00602487e+00
1.00602576e+00
1.00602639e+00
1.00602677e+00
1.00602689e+00
1.00602673e+00
1.00602625e+00
9.94101166e-01
9.94100735e-01
9.94100553e-01
9.94100640e-01
9.94100946e-01
9.94101445e-01
9.94102154e-01
9.94103087e-01
9.94104252e-01
9.94105669e-01
9.94107343e-01
9.94109269e-01
9.94111446e-01
9.94113875e-01
9.94116552e-01
9.94119477e-01
9.94122648e-01
9.94126064e-01
9.94129723e-01
9.94133624e-01
9.94137766e-01
9.94142147e-01
9.94146765e-01
9.94151620e-01
9.94156708e-01
9.94162029e-01
9.94167582e-01
9.94173364e-01
9.94179375e-01
9.94185614e-01
9.94192083e-01
9.94198785e-01
9.94205728e-01
9.94212926e-01
9.94220407e-01
9.94228219e-01
9.94236439e-01
9.94245193e-01
9.94254674e-01
9.94265170e-01
9.94277092e-01
9.94291014e-01
9.94307705e-01
9.94328160e-01
9.94353621e-01
9.94385569e-01
9.94425700e-01
9.94475848e-01
9.94537885e-01
9.94613566e-01
9.94704360e-01
9.94811263e-01
9.94934644e-01
9.95074126e-01
9.95228559e-01
9.95396078e-01
9.95574270e-01
9.95760405e-01
9.95951715e-01
9.96145658e-01
9.96340115e-01
9.96533484e-01
9.96724667e-01
9.96912937e-01
9.97097755e-01
9.97278570e-01
9.97454657e-01
9.97625048e-01
9.97788552e-01
9.97943871e-01
9.98089769e-01
9.98225257e-01
9.98349747e-01
9.98463137e-01
9.98565826e-01
9.98658643e-01
9.98742730e-01
9.98819394e-01
9.98889959e-01
9.98955653e-01
9.99017525e-01
9.99076414e-01
9.99132949e-01
9.99187578e-01
9.99240608e-01
9.99292253e-01
9.99342669e-01
9.99391979e-01
9.99440294e-01
9.99487722e-01
9.99534366e-01
9.99580325e-01
9.99625694e-01
9.99670558e-01
9.99714998e-01
9.99759085e-01
9.99802885e-01
9.99846461e-01
9.99889872e-01
9.99933175e-01
9.99976426e-01
1.00001968e+00
1.00006300e+00
1.00010643e+00
1.00015003e+00
1.00019388e+00
1.00023803e+00
1.00028256e+00
1.00032756e+00
1.00037309e+00
1.00041926e+00
1.00046614e+00
1.00051384e+00
1.00056243e+00
1.00061203e+00
1.00066280e+00
1.00071496e+00
1.00076884e+00
1.00082492e+00
1.00088387e+00
1.00094658e+00
1.00101411e+00
1.00108769e+00
1.00116861e+00
1.00125811e+00
1.00135729e+00
1.00146692e+00
1.00158742e+00
1.00171878e+00
1.00186060e+00
1.00201217e+00
1.00217258e+00
1.00234090e+00
1.00251622e+00
1.00269779e+00
1.00288498e+00
1.00307722e+00
1.00327387e+00
1.00347406e+00
1.00367661e+00
1.00387988e+00
1.00408180e+00
1.00427990e+00
1.00447151e+00
1.00465391e+00
1.00482455e+00
1.00498133e+00
1.00512266e+00
1.00524767e+00
1.00535619e+00
1.00544869e+00
1.00552622e+00
1.00559025e+00
1.00564251e+00
1.00568482e+00
1.00571898e+00
1.00574665e+00
1.00576929e+00
1.00578814e+00
1.00580418e+00
1.00581818e+00
1.00583072e+00
1.00584221e+00
1.00585294e+00
1.00586311e+00
1.00587283e+00
1.00588220e+00
1.00589125e+00
1.00590000e+00
1.00590848e+00
1.00591669e+00
1.00592463e+00
1.00593230e+00
1.00593970e+00
1.00594681e+00
1.00595365e+00
1.00596020e+00
1.00596646e+00
1.00597244e+00
1.00597811e+00
1.00598348e+00
1.00598856e+00
1.00599332e+00
1.00599777e+00
1.00600192e+00
1.00600574e+00
1.00600925e+00
1.00601243e+00
1.00601529e+00
1.00601782e+00
1.00602002e+00
1.00602188e+00
1.00602342e+00
1.00602464e+00
1.00602557e+00
1.00602623e+00
1.00602662e+00
1.00602673e+00
1.00602653e+00
1.00602602e+00
9.94101399e-01
9.94100932e-01
9.94100741e-01
9.94100816e-01
9.94101117e-01
9.94101634e-01
9.94102361e-01
9.94103308e-01
9.94104495e-01
9.94105933e-01
9.94107620e-01
9.94109557e-01
9.94111746e-01
9.94114184e-01
9.94116869e-01
9.94119801e-01
9.94122979e-01
9.94126402e-01
9.94130068e-01
9.94133976e-01
9.94138125e-01
9.94142514e-01
9.94147140e-01
9.94152003e-01
9.94157100e-01
9.94162431e-01
9.94167993e-01
9.94173785e-01
9.94179807e-01
9.94186060e-01
9.94192545e-01
9.94199269e-01
9.94206241e-01
9.94213485e-01
9.94221037e-01
9.94228960e-01
9.94237358e-01
9.94246392e-01
9.94256305e-01
9.94267453e-01
9.94280336e-01
9.94295639e-01
9.94314257e-01
9.94337324e-01
9.94366215e-01
9.94402525e-01
9.94448008e-01
9.94504479e-01
9.94573676e-01
9.94657082e-01
9.94755747e-01
9.94870105e-01
9.94999850e-01
9.95143880e-01
9.95300347e-01
9.95466811e-01
9.95640494e-01
9.95818586e-01
9.95998562e-01
9.96178437e-01
9.96356918e-01
9.96533411e-01
9.96707891e-01
9.96880664e-01
9.97052075e-01
9.97222234e-01
9.97390810e-01
9.97556949e-01
9.97719319e-01
9.97876266e-01
9.98026043e-01
9.98167060e-01
9.98298101e-01
9.98418472e-01
9.98528057e-01
9.98627285e-01
9.98717029e-01
9.98798454e-01
9.98872858e-01
9.98941536e-01
9.99005663e-01
9.99066231e-01
9.99124026e-01
9.99179630e-01
9.99233459e-01
9.99285799e-01
9.99336847e-01
9.99386750e-01
9.99435624e-01
9.99483576e-01
9.99530709e-01
9.99577122e-01
9.99622912e-01
9.99668169e-01
9.99712978e-01
9.99757417e-01
9.99801556e-01
9.99845463e-01
9.99889198e-01
9.99932823e-01
9.99976396e-01
1.00001997e+00
1.00006362e+00
1.00010739e+00
1.00015135e+00
1.00019556e+00
1.00024011e+00
1.00028506e+00
1.00033051e+00
1.00037654e+00
1.00042322e+00
1.00047066e+00
1.00051893e+00
1.00056815e+00
1.00061846e+00
1.00067007e+00
1.00072329e+00
1.00077856e+00
1.00083651e+00
1.00089798e+00
1.00096398e+00
1.00103570e+00
1.00111440e+00
1.00120134e+00
1.00129761e+00
1.00140404e+00
1.00152103e+00
1.00164849e+00
1.00178585e+00
1.00193210e+00
1.00208593e+00
1.00224591e+00
1.00241070e+00
1.00257922e+00
1.00275075e+00
1.00292499e+00
1.00310193e+00
1.00328174e+00
1.00346455e+00
1.00365019e+00
1.00383802e+00
1.00402685e+00
1.00421487e+00
1.00439976e+00
1.00457891e+00
1.00474960e+00
1.00490927e+00
1.00505579e+00
1.00518760e+00
1.00530384e+00
1.00540439e+00
1.00548976e+00
1.00556104e+00
1.00561970e+00
1.00566743e+00
1.00570602e+00
1.00573719e+00
1.00576251e+00
1.00578334e+00
1.00580080e+00
1.00581581e+00
1.00582903e+00
1.00584098e+00
1.00585201e+00
1.00586237e+00
1.00587222e+00
1.00588167e+00
1.00589077e+00
1.00589957e+00
1.00590808e+00
1.00591632e+00
1.00592428e+00
1.00593197e+00
1.00593938e+00
1.00594652e+00
1.00595337e+00
1.00595994e+00
1.00596622e+00
1.00597221e+00
1.00597790e+00
1.00598329e+00
1.00598838e+00
1.00599316e+00
1.00599762e+00
1.00600178e+00
1.00600562e+00
1.00600913e+00
1.00601233e+00
1.00601520e+00
1.00601775e+00
1.00601997e+00
1.00602185e+00
1.00602342e+00
1.00602466e+00
1.00602561e+00
1.00602628e+00
1.00602667e+00
1.00602678e+00
1.00602656e+00
1.00602600e+00
9.94101463e-01
9.94100969e-01
9.94100757e-01
9.94100819e-01
9.94101120e-01
9.94101645e-01
9.94102381e-01
9.94103343e-01
9.94104548e-01
9.94105999e-01
9.94107699e-01
9.94109650e-01
9.94111850e-01
9.94114298e-01
9.94116993e-01
9.94119935e-01
9.94123123e-01
9.94126555e-01
9.94130231e-01
9.94134150e-01
9.94138309e-01
9.94142708e-01
9.94147346e-01
9.94152220e-01
9.94157329e-01
9.94162672e-01
9.94168248e-01
9.94174055e-01
9.94180093e-01
9.94186364e-01
9.94192872e-01
9.94199624e-01
9.94206638e-01
9.94213943e-01
9.94221590e-01
9.94229662e-01
9.94238293e-01
9.94247687e-01
9.94258148e-01
9.94270113e-01
9.94284184e-01
9.94301166e-01
9.94322094e-01
9.94348243e-01
9.94381118e-01
9.94422407e-01
9.94473892e-01
9.94537320e-01
9.94614233e-01
9.94705778e-01
9.94812515e-01
9.94934267e-01
9.95070029e-01
9.95217987e-01
9.95375651e-01
9.95540099e-01
9.95708304e-01
9.95877497e-01
9.96045490e-01
9.96210909e-01
9.96373280e-01
9.96532943e-01
9.96690835e-01
9.96848154e-01
9.97006002e-01
9.97165059e-01
9.97325361e-01
9.97486210e-01
9.97646237e-01
9.97803573e-01
9.97956116e-01
9.98101810e-01
9.98238907e-01
9.98366160e-01
9.98482920e-01
9.98589152e-01
9.98685360e-01
9.98772458e-01
9.98851622e-01
9.98924130e-01
9.98991233e-01
9.99054053e-01
9.99113534e-01
9.99170416e-01
9.99225247e-01
9.99278418e-01
9.99330197e-01
9.99380768e-01
9.99430271e-01
9.99478816e-01
9.99526507e-01
9.99573442e-01
9.99619718e-01
9.99665430e-01
9.99710666e-01
9.99755510e-01
9.99800038e-01
9.99844321e-01
9.99888427e-01
9.99932418e-01
9.99976357e-01
1.00002031e+00
1.00006433e+00
1.00010848e+00
1.00015285e+00
1.00019749e+00
1.00024250e+00
1.00028794e+00
1.00033391e+00
1.00038049e+00
1.00042776e+00
1.00047581e+00
1.00052475e+00
1.00057471e+00
1.00062589e+00
1.00067857e+00
1.00073320e+00
1.00079035e+00
1.00085082e+00
1.00091557e+00
1.00098575e+00
1.00106258e+00
1.00114730e+00
1.00124103e+00
1.00134463e+00
1.00145857e+00
1.00158281e+00
1.00171678e+00
1.00185938e+00
1.00200907e+00
1.00216407e+00
1.00232255e+00
1.00248288e+00
1.00264387e+00
1.00280487e+00
1.00296587e+00
1.00312739e+00
1.00329032e+00
1.00345563e+00
1.00362411e+00
1.00379607e+00
1.00397117e+00
1.00414827e+00
1.00432553e+00
1.00450048e+00
1.00467032e+00
1.00483218e+00
1.00498339e+00
1.00512177e+00
1.00524578e+00
1.00535465e+00
1.00544833e+00
1.00552745e+00
1.00559316e+00
1.00564699e+00
1.00569066e+00
1.00572589e+00
1.00575437e+00
1.00577758e+00
1.00579679e+00
1.00581303e+00
1.00582711e+00
1.00583964e+00
1.00585105e+00
1.00586167e+00
1.00587169e+00
1.00588125e+00
1.00589042e+00
1.00589928e+00
1.00590783e+00
1.00591610e+00
1.00592409e+00
1.00593181e+00
1.00593925e+00
1.00594641e+00
1.00595329e+00
1.00595988e+00
1.00596618e+00
1.00597219e+00
1.00597790e+00
1.00598331e+00
1.00598841e+00
1.00599321e+00
1.00599770e+00
1.00600187e+00
1.00600572e+00
1.00600926e+00
1.00601247e+00
1.00601536e+00
1.00601792e+00
1.00602016e+00
1.00602207e+00
1.00602365e+00
1.00602491e+00
1.00602587e+00
1.00602655e+00
1.00602694e+00
1.00602703e+00
1.00602679e+00
1.00602621e+00
9.94101337e-01
9.94100817e-01
9.94100593e-01
9.94100649e-01
9.94100949e-01
9.94101473e-01
9.94102215e-01
9.94103191e-01
9.94104407e-01
9.94105871e-01
9.94107585e-01
9.94109550e-01
9.94111762e-01
9.94114222e-01
9.94116929e-01
9.94119883e-01
9.94123082e-01
9.94126527e-01
9.94130216e-01
9.94134147e-01
9.94138320e-01
9.94142733e-01
9.94147385e-01
9.94152274e-01
9.94157399e-01
9.94162758e-01
9.94168351e-01
9.94174177e-01
9.94180235e-01
9.94186530e-01
9.94193067e-01
9.94199859e-01
9.94206927e-01
9.94214314e-01
9.94222085e-01
9.94230350e-01
9.94239280e-01
9.94249132e-01
9.94260281e-01
9.94273256e-01
9.94288773e-01
9.94307772e-01
9.94331429e-01
9.94361162e-01
9.94398592e-01
9.94445471e-01
9.94503569e-01
9.94574503e-01
9.94659555e-01
9.94759464e-01
9.94874245e-01
9.95003070e-01
9.95144241e-01
9.95295277e-01
9.95453136e-01
9.95614537e-01
9.95776345e-01
9.95935956e-01
9.96091611e-01
9.96242575e-01
9.96389145e-01
9.96532492e-01
9.96674354e-01
9.96816652e-01
9.96961086e-01
9.97108801e-01
9.97260162e-01
9.97414667e-01
9.97571013e-01
9.97727274e-01
9.97881161e-01
9.98030318e-01
9.98172589e-01
9.98306245e-01
9.98430122e-01
9.98543680e-01
9.98646976e-01
9.98740575e-01
9.98825417e-01
9.98902671e-01
9.98973585e-01
9.99039368e-01
9.99101099e-01
9.99159677e-01
9.99215807e-01
9.99270009e-01
9.99322652e-01
9.99373988e-01
9.99424194e-01
9.99473402e-01
9.99521720e-01
9.99569246e-01
9.99616079e-01
9.99662312e-01
9.99708039e-01
9.99753346e-01
9.99798318e-01
9.99843030e-01
9.99887555e-01
9.99931962e-01
9.99976316e-01
1.00002068e+00
1.00006513e+00
1.00010974e+00
1.00015457e+00
1.00019971e+00
1.00024523e+00
1.00029124e+00
1.00033779e+00
1.00038499e+00
1.00043291e+00
1.00048166e+00
1.00053137e+00
1.00058223e+00
1.00063451e+00
1.00068863e+00
1.00074514e+00
1.00080480e+00
1.00086854e+00
1.00093745e+00
1.00101273e+00
1.00109558e+00
1.00118711e+00
1.00128823e+00
1.00139944e+00
1.00152081e+00
1.00165185e+00
1.00179151e+00
1.00193823e+00
1.00209007e+00
1.00224490e+00
1.00240063e+00
1.00255550e+00
1.00270827e+00
1.00285843e+00
1.00300622e+00
1.00315259e+00
1.00329902e+00
1.00344720e+00
1.00359875e+00
1.00375483e+00
1.00391588e+00
1.00408148e+00
1.00425025e+00
1.00442004e+00
1.00458804e+00
1.00475116e+00
1.00490633e+00
1.00505079e+00
1.00518237e+00
1.00529961e+00
1.00540189e+00
1.00548931e+00
1.00556267e+00
1.00562323e+00
1.00567260e+00
1.00571250e+00
1.00574466e+00
1.00577069e+00
1.00579199e+00
1.00580973e+00
1.00582488e+00
1.00583813e+00
1.00585004e+00
1.00586098e+00
1.00587122e+00
1.00588092e+00
1.00589019e+00
1.00589912e+00
1.00590772e+00
1.00591604e+00
1.00592407e+00
1.00593182e+00
1.00593929e+00
1.00594648e+00
1.00595339e+00
1.00596001e+00
1.00596634e+00
1.00597237e+00
1.00597811e+00
1.00598354e+00
1.00598867e+00
1.00599349e+00
1.00599799e+00
1.00600218e+00