# vtk DataFile Version 2.0
LBM Flow Field - Timestep 800
ASCII
DATASET STRUCTURED_POINTS
DIMENSIONS 200 100 1
ORIGIN 0.0 0.0 0.0
SPACING 1.0 1.0 1.0
POINT_DATA 20000
SCALARS density double 1
LOOKUP_TABLE default
9.99972486e-01
9.99970992e-01
9.99969550e-01
9.99970473e-01
9.99972399e-01
9.99974982e-01
9.99978623e-01
9.99983372e-01
9.99989011e-01
9.99995620e-01
1.00000332e+00
1.00001213e+00
1.00002205e+00
1.00003312e+00
1.00004539e+00
1.00005887e+00
1.00007357e+00
1.00008951e+00
1.00010669e+00
1.00012512e+00
1.00014477e+00
1.00016563e+00
1.00018765e+00
1.00021079e+00
1.00023497e+00
1.00026011e+00
1.00028612e+00
1.00031290e+00
1.00034036e+00
1.00036840e+00
1.00039694e+00
1.00042594e+00
1.00045535e+00
1.00048519e+00
1.00051552e+00
1.00054639e+00
1.00057792e+00
1.00061022e+00
1.00064337e+00
1.00067744e+00
1.00071241e+00
1.00074818e+00
1.00078454e+00
1.00082115e+00
1.00085752e+00
1.00089304e+00
1.00092702e+00
1.00095864e+00
1.00098707e+00
1.00101147e+00
1.00103107e+00
1.00104518e+00
1.00105327e+00
1.00105496e+00
1.00105009e+00
1.00103870e+00
1.00102105e+00
1.00099755e+00
1.00096882e+00
1.00093558e+00
1.00089864e+00
1.00085885e+00
1.00081708e+00
1.00077416e+00
1.00073084e+00
1.00068781e+00
1.00064564e+00
1.00060477e+00
1.00056556e+00
1.00052824e+00
1.00049294e+00
1.00045973e+00
1.00042857e+00
1.00039940e+00
1.00037211e+00
1.00034655e+00
1.00032259e+00
1.00030005e+00
1.00027879e+00
1.00025868e+00
1.00023957e+00
1.00022136e+00
1.00020394e+00
1.00018724e+00
1.00017118e+00
1.00015570e+00
1.00014076e+00
1.00012632e+00
1.00011234e+00
1.00009878e+00
1.00008563e+00
1.00007284e+00
1.00006039e+00
1.00004824e+00
1.00003636e+00
1.00002471e+00
1.00001324e+00
1.00000191e+00
9.99990673e-01
9.99979479e-01
9.99968281e-01
9.99957032e-01
9.99945683e-01
9.99934191e-01
9.99922512e-01
9.99910605e-01
9.99898432e-01
9.99885957e-01
9.99873147e-01
9.99859968e-01
9.99846390e-01
9.99832379e-01
9.99817903e-01
9.99802925e-01
9.99787402e-01
9.99771289e-01
9.99754531e-01
9.99737065e-01
9.99718817e-01
9.99699704e-01
9.99679631e-01
9.99658493e-01
9.99636172e-01
9.99612542e-01
9.99587470e-01
9.99560820e-01
9.99532452e-01
9.99502235e-01
9.99470048e-01
9.99435789e-01
9.99399385e-01
9.99360804e-01
9.99320061e-01
9.99277237e-01
9.99232485e-01
9.99186048e-01
9.99138264e-01
9.99089577e-01
9.99040541e-01
9.98991821e-01
9.98944188e-01
9.98898510e-01
9.98855730e-01
9.98816846e-01
9.98782877e-01
9.98754828e-01
9.98733648e-01
9.98720190e-01
9.98715164e-01
9.98719105e-01
9.98732337e-01
9.98754953e-01
9.98786804e-01
9.98827499e-01
9.98876420e-01
9.98932751e-01
9.98995510e-01
9.99063596e-01
9.99135834e-01
9.99211019e-01
9.99287961e-01
9.99365521e-01
9.99442637e-01
9.99518345e-01
9.99591793e-01
9.99662243e-01
9.99729076e-01
9.99791784e-01
9.99849971e-01
9.99903348e-01
9.99951731e-01
9.99995034e-01
1.00003327e+00
1.00006655e+00
1.00009506e+00
1.00011908e+00
1.00013897e+00
1.00015511e+00
1.00016795e+00
1.00017795e+00
1.00018559e+00
1.00019132e+00
1.00019557e+00
1.00019871e+00
1.00020109e+00
1.00020297e+00
1.00020456e+00
1.00020600e+00
1.00020739e+00
1.00020877e+00
1.00021014e+00
1.00021145e+00
1.00021269e+00
1.00021381e+00
1.00021461e+00
1.00021498e+00
1.00021499e+00
1.00021447e+00
1.00021268e+00
1.00021117e+00
9.99972091e-01
9.99971752e-01
9.99971267e-01
9.99972374e-01
9.99974285e-01
9.99977082e-01
9.99980808e-01
9.99985574e-01
9.99991282e-01
9.99997988e-01
1.00000574e+00
1.00001458e+00
1.00002453e+00
1.00003562e+00
1.00004788e+00
1.00006134e+00
1.00007602e+00
1.00009192e+00
1.00010906e+00
1.00012742e+00
1.00014700e+00
1.00016777e+00
1.00018969e+00
1.00021270e+00
1.00023674e+00
1.00026173e+00
1.00028758e+00
1.00031418e+00
1.00034145e+00
1.00036928e+00
1.00039762e+00
1.00042639e+00
1.00045557e+00
1.00048516e+00
1.00051520e+00
1.00054575e+00
1.00057690e+00
1.00060875e+00
1.00064138e+00
1.00067482e+00
1.00070908e+00
1.00074404e+00
1.00077951e+00
1.00081515e+00
1.00085053e+00
1.00088506e+00
1.00091809e+00
1.00094887e+00
1.00097659e+00
1.00100047e+00
1.00101976e+00
1.00103381e+00
1.00104209e+00
1.00104423e+00
1.00104006e+00
1.00102958e+00
1.00101302e+00
1.00099075e+00
1.00096334e+00
1.00093145e+00
1.00089585e+00
1.00085736e+00
1.00081678e+00
1.00077493e+00
1.00073254e+00
1.00069028e+00
1.00064871e+00
1.00060829e+00
1.00056938e+00
1.00053222e+00
1.00049697e+00
1.00046371e+00
1.00043243e+00
1.00040308e+00
1.00037558e+00
1.00034978e+00
1.00032557e+00
1.00030279e+00
1.00028130e+00
1.00026096e+00
1.00024165e+00
1.00022325e+00
1.00020567e+00
1.00018882e+00
1.00017263e+00
1.00015703e+00
1.00014199e+00
1.00012745e+00
1.00011337e+00
1.00009973e+00
1.00008649e+00
1.00007363e+00
1.00006110e+00
1.00004888e+00
1.00003692e+00
1.00002519e+00
1.00001364e+00
1.00000224e+00
9.99990926e-01
9.99979659e-01
9.99968390e-01
9.99957069e-01
9.99945652e-01
9.99934091e-01
9.99922344e-01
9.99910371e-01
9.99898132e-01
9.99885591e-01
9.99872715e-01
9.99859469e-01
9.99845821e-01
9.99831739e-01
9.99817187e-01
9.99802127e-01
9.99786517e-01
9.99770308e-01
9.99753444e-01
9.99735861e-01
9.99717485e-01
9.99698231e-01
9.99678004e-01
9.99656699e-01
9.99634200e-01
9.99610382e-01
9.99585118e-01
9.99558272e-01
9.99529715e-01
9.99499320e-01
9.99466976e-01
9.99432592e-01
9.99396107e-01
9.99357502e-01
9.99316807e-01
9.99274116e-01
9.99229598e-01
9.99183507e-01
9.99136192e-01
9.99088106e-01
9.99039806e-01
9.98991958e-01
9.98945324e-01
9.98900761e-01
9.98859190e-01
9.98821583e-01
9.98788927e-01
9.98762187e-01
9.98742271e-01
9.98729986e-01
9.98726002e-01
9.98730811e-01
9.98744703e-01
9.98767746e-01
9.98799772e-01
9.98840385e-01
9.98888973e-01
9.98944736e-01
9.99006718e-01
9.99073852e-01
9.99144999e-01
9.99218994e-01
9.99294686e-01
9.99370968e-01
9.99446812e-01
9.99521278e-01
9.99593536e-01
9.99662863e-01
9.99728651e-01
9.99790403e-01
9.99847732e-01
9.99900355e-01
9.99948093e-01
9.99990864e-01
1.00002868e+00
1.00006166e+00
1.00008999e+00
1.00011394e+00
1.00013385e+00
1.00015010e+00
1.00016312e+00
1.00017337e+00
1.00018129e+00
1.00018732e+00
1.00019187e+00
1.00019531e+00
1.00019796e+00
1.00020009e+00
1.00020189e+00
1.00020352e+00
1.00020506e+00
1.00020657e+00
1.00020803e+00
1.00020944e+00
1.00021074e+00
1.00021189e+00
1.00021273e+00
1.00021325e+00
1.00021336e+00
1.00021314e+00
1.00021203e+00
1.00021132e+00
9.99971892e-01
9.99972316e-01
9.99973424e-01
9.99974300e-01
9.99976030e-01
9.99979110e-01
9.99983011e-01
9.99987717e-01
9.99993467e-01
1.00000028e+00
1.00000807e+00
1.00001692e+00
1.00002689e+00
1.00003799e+00
1.00005025e+00
1.00006368e+00
1.00007833e+00
1.00009418e+00
1.00011126e+00
1.00012955e+00
1.00014903e+00
1.00016969e+00
1.00019148e+00
1.00021433e+00
1.00023820e+00
1.00026299e+00
1.00028861e+00
1.00031497e+00
1.00034196e+00
1.00036951e+00
1.00039752e+00
1.00042593e+00
1.00045473e+00
1.00048389e+00
1.00051346e+00
1.00054348e+00
1.00057403e+00
1.00060521e+00
1.00063707e+00
1.00066968e+00
1.00070302e+00
1.00073700e+00
1.00077144e+00
1.00080605e+00
1.00084041e+00
1.00087399e+00
1.00090618e+00
1.00093627e+00
1.00096351e+00
1.00098715e+00
1.00100646e+00
1.00102081e+00
1.00102968e+00
1.00103268e+00
1.00102961e+00
1.00102045e+00
1.00100537e+00
1.00098471e+00
1.00095895e+00
1.00092872e+00
1.00089473e+00
1.00085774e+00
1.00081854e+00
1.00077789e+00
1.00073651e+00
1.00069506e+00
1.00065410e+00
1.00061409e+00
1.00057542e+00
1.00053834e+00
1.00050303e+00
1.00046960e+00
1.00043807e+00
1.00040840e+00
1.00038054e+00
1.00035437e+00
1.00032977e+00
1.00030662e+00
1.00028477e+00
1.00026410e+00
1.00024449e+00
1.00022582e+00
1.00020799e+00
1.00019092e+00
1.00017453e+00
1.00015876e+00
1.00014356e+00
1.00012887e+00
1.00011466e+00
1.00010090e+00
1.00008754e+00
1.00007457e+00
1.00006193e+00
1.00004961e+00
1.00003755e+00
1.00002572e+00
1.00001408e+00
1.00000258e+00
9.99991178e-01
9.99979822e-01
9.99968464e-01
9.99957058e-01
9.99945555e-01
9.99933910e-01
9.99922079e-01
9.99910022e-01
9.99897698e-01
9.99885072e-01
9.99872108e-01
9.99858772e-01
9.99845030e-01
9.99830848e-01
9.99816190e-01
9.99801016e-01
9.99785282e-01
9.99768936e-01
9.99751921e-01
9.99734171e-01
9.99715609e-01
9.99696151e-01
9.99675699e-01
9.99654148e-01
9.99631383e-01
9.99607283e-01
9.99581722e-01
9.99554572e-01
9.99525709e-01
9.99495017e-01
9.99462395e-01
9.99427767e-01
9.99391087e-01
9.99352352e-01
9.99311610e-01
9.99268974e-01
9.99224630e-01
9.99178851e-01
9.99131999e-01
9.99084537e-01
9.99037031e-01
9.98990145e-01
9.98944638e-01
9.98901350e-01
9.98861186e-01
9.98825087e-01
9.98794005e-01
9.98768865e-01
9.98750528e-01
9.98739754e-01
9.98737164e-01
9.98743203e-01
9.98758123e-01
9.98781953e-01
9.98814503e-01
9.98855363e-01
9.98903917e-01
9.98959374e-01
9.99020796e-01
9.99087143e-01
9.99157308e-01
9.99230164e-01
9.99304597e-01
9.99379540e-01
9.99453999e-01
9.99527067e-01
9.99597942e-01
9.99665926e-01
9.99730433e-01
9.99790983e-01
9.99847205e-01
9.99898830e-01
9.99945689e-01
9.99987711e-01
1.00002492e+00
1.00005742e+00
1.00008541e+00
1.00010915e+00
1.00012897e+00
1.00014524e+00
1.00015838e+00
1.00016882e+00
1.00017699e+00
1.00018331e+00
1.00018817e+00
1.00019192e+00
1.00019487e+00
1.00019727e+00
1.00019931e+00
1.00020115e+00
1.00020286e+00
1.00020450e+00
1.00020608e+00
1.00020759e+00
1.00020895e+00
1.00021010e+00
1.00021104e+00
1.00021170e+00
1.00021176e+00
1.00021151e+00
1.00021152e+00
1.00021127e+00
9.99973524e-01
9.99973621e-01
9.99974529e-01
9.99975841e-01
9.99978026e-01
9.99981013e-01
9.99984882e-01
9.99989726e-01
9.99995554e-01
1.00000235e+00
1.00001018e+00
1.00001907e+00
1.00002905e+00
1.00004014e+00
1.00005238e+00
1.00006580e+00
1.00008040e+00
1.00009619e+00
1.00011319e+00
1.00013137e+00
1.00015074e+00
1.00017124e+00
1.00019285e+00
1.00021550e+00
1.00023912e+00
1.00026362e+00
1.00028893e+00
1.00031493e+00
1.00034154e+00
1.00036865e+00
1.00039619e+00
1.00042410e+00
1.00045235e+00
1.00048093e+00
1.00050986e+00
1.00053920e+00
1.00056902e+00
1.00059940e+00
1.00063042e+00
1.00066212e+00
1.00069450e+00
1.00072749e+00
1.00076093e+00
1.00079455e+00
1.00082799e+00
1.00086075e+00
1.00089225e+00
1.00092184e+00
1.00094881e+00
1.00097244e+00
1.00099204e+00
1.00100697e+00
1.00101672e+00
1.00102089e+00
1.00101925e+00
1.00101173e+00
1.00099845e+00
1.00097969e+00
1.00095588e+00
1.00092757e+00
1.00089541e+00
1.00086012e+00
1.00082244e+00
1.00078310e+00
1.00074280e+00
1.00070218e+00
1.00066181e+00
1.00062217e+00
1.00058365e+00
1.00054654e+00
1.00051105e+00
1.00047730e+00
1.00044536e+00
1.00041522e+00
1.00038684e+00
1.00036014e+00
1.00033502e+00
1.00031136e+00
1.00028904e+00
1.00026793e+00
1.00024791e+00
1.00022888e+00
1.00021073e+00
1.00019338e+00
1.00017674e+00
1.00016075e+00
1.00014534e+00
1.00013048e+00
1.00011611e+00
1.00010220e+00
1.00008871e+00
1.00007560e+00
1.00006284e+00
1.00005040e+00
1.00003822e+00
1.00002628e+00
1.00001453e+00
1.00000293e+00
9.99991422e-01
9.99979964e-01
9.99968507e-01
9.99957002e-01
9.99945403e-01
9.99933663e-01
9.99921737e-01
9.99909585e-01
9.99897166e-01
9.99884442e-01
9.99871378e-01
9.99857937e-01
9.99844085e-01
9.99829786e-01
9.99815000e-01
9.99799686e-01
9.99783797e-01
9.99767278e-01
9.99750069e-01
9.99732102e-01
9.99713296e-01
9.99693563e-01
9.99672807e-01
9.99650921e-01
9.99627790e-01
9.99603296e-01
9.99577315e-01
9.99549728e-01
9.99520419e-01
9.99489284e-01
9.99456237e-01
9.99421218e-01
9.99384202e-01
9.99345207e-01
9.99304306e-01
9.99261634e-01
9.99217401e-01
9.99171902e-01
9.99125517e-01
9.99078725e-01
9.99032098e-01
9.98986303e-01
9.98942093e-01
9.98900293e-01
9.98861782e-01
9.98827468e-01
9.98798261e-01
9.98775039e-01
9.98758609e-01
9.98749675e-01
9.98748800e-01
9.98756380e-01
9.98772616e-01
9.98797501e-01
9.98830815e-01
9.98872130e-01
9.98920829e-01
9.98976124e-01
9.99037098e-01
9.99102734e-01
9.99171960e-01
9.99243687e-01
9.99316839e-01
9.99390388e-01
9.99463379e-01
9.99534939e-01
9.99604299e-01
9.99670792e-01
9.99733857e-01
9.99793040e-01
9.99847992e-01
9.99898461e-01
9.99944297e-01
9.99985440e-01
1.00002192e+00
1.00005386e+00
1.00008144e+00
1.00010492e+00
1.00012462e+00
1.00014090e+00
1.00015416e+00
1.00016480e+00
1.00017323e+00
1.00017984e+00
1.00018502e+00
1.00018908e+00
1.00019232e+00
1.00019499e+00
1.00019727e+00
1.00019929e+00
1.00020115e+00
1.00020290e+00
1.00020455e+00
1.00020610e+00
1.00020750e+00
1.00020869e+00
1.00020959e+00
1.00021021e+00
1.00021057e+00
1.00021054e+00
1.00021038e+00
1.00020986e+00
9.99975176e-01
9.99975172e-01
9.99975751e-01
9.99977409e-01
9.99979778e-01
9.99982685e-01
9.99986614e-01
9.99991571e-01
9.99997415e-01
1.00000422e+00
1.00001208e+00
1.00002100e+00
1.00003097e+00
1.00004206e+00
1.00005428e+00
1.00006766e+00
1.00008220e+00
1.00009792e+00
1.00011482e+00
1.00013288e+00
1.00015209e+00
1.00017240e+00
1.00019378e+00
1.00021617e+00
1.00023948e+00
1.00026363e+00
1.00028854e+00
1.00031410e+00
1.00034021e+00
1.00036679e+00
1.00039376e+00
1.00042105e+00
1.00044864e+00
1.00047652e+00
1.00050471e+00
1.00053326e+00
1.00056224e+00
1.00059174e+00
1.00062181e+00
1.00065253e+00
1.00068389e+00
1.00071583e+00
1.00074823e+00
1.00078085e+00
1.00081335e+00
1.00084531e+00
1.00087618e+00
1.00090536e+00
1.00093218e+00
1.00095597e+00
1.00097605e+00
1.00099181e+00
1.00100272e+00
1.00100837e+00
1.00100849e+00
1.00100296e+00
1.00099184e+00
1.00097533e+00
1.00095381e+00
1.00092774e+00
1.00089771e+00
1.00086438e+00
1.00082844e+00
1.00079058e+00
1.00075147e+00
1.00071176e+00
1.00067202e+00
1.00063272e+00
1.00059430e+00
1.00055706e+00
1.00052126e+00
1.00048706e+00
1.00045455e+00
1.00042378e+00
1.00039472e+00
1.00036733e+00
1.00034153e+00
1.00031721e+00
1.00029427e+00
1.00027259e+00
1.00025206e+00
1.00023256e+00
1.00021401e+00
1.00019629e+00
1.00017933e+00
1.00016306e+00
1.00014741e+00
1.00013232e+00
1.00011776e+00
1.00010366e+00
1.00009001e+00
1.00007674e+00
1.00006384e+00
1.00005125e+00
1.00003895e+00
1.00002688e+00
1.00001500e+00
1.00000328e+00
9.99991653e-01
9.99980079e-01
9.99968509e-01
9.99956893e-01
9.99945184e-01
9.99933335e-01
9.99921302e-01
9.99909040e-01
9.99896511e-01
9.99883674e-01
9.99870492e-01
9.99856928e-01
9.99842944e-01
9.99828501e-01
9.99813557e-01
9.99798068e-01
9.99781983e-01
9.99765243e-01
9.99747785e-01
9.99729534e-01
9.99710409e-01
9.99690319e-01
9.99669162e-01
9.99646833e-01
9.99623219e-01
9.99598202e-01
9.99571666e-01
9.99543498e-01
9.99513596e-01
9.99481869e-01
9.99448251e-01
9.99412702e-01
9.99375222e-01
9.99335856e-01
9.99294704e-01
9.99251932e-01
9.99207778e-01
9.99162561e-01
9.99116686e-01
9.99070648e-01
9.99025029e-01
9.98980497e-01
9.98937799e-01
9.98897740e-01
9.98861172e-01
9.98828964e-01
9.98801977e-01
9.98781032e-01
9.98766875e-01
9.98760145e-01
9.98761340e-01
9.98770793e-01
9.98788650e-01
9.98814860e-01
9.98849169e-01
9.98891127e-01
9.98940109e-01
9.98995335e-01
9.99055906e-01
9.99120834e-01
9.99189084e-01
9.99259606e-01
9.99331370e-01
9.99403393e-01
9.99474760e-01
9.99544643e-01
9.99612308e-01
9.99677122e-01
9.99738559e-01
9.99796193e-01
9.99849700e-01
9.99898854e-01
9.99943524e-01
9.99983668e-01
1.00001933e+00
1.00005062e+00
1.00007774e+00
1.00010094e+00
1.00012052e+00
1.00013682e+00
1.00015022e+00
1.00016110e+00
1.00016984e+00
1.00017680e+00
1.00018234e+00
1.00018676e+00
1.00019034e+00
1.00019330e+00
1.00019582e+00
1.00019804e+00
1.00020004e+00
1.00020189e+00
1.00020359e+00
1.00020514e+00
1.00020651e+00
1.00020769e+00
1.00020858e+00
1.00020910e+00
1.00020949e+00
1.00020962e+00
1.00020925e+00
1.00020861e+00
9.99976540e-01
9.99976611e-01
9.99977395e-01
9.99978893e-01
9.99981128e-01
9.99984262e-01
9.99988297e-01
9.99993185e-01
9.99999044e-01
1.00000592e+00
1.00001380e+00
1.00002271e+00
1.00003269e+00
1.00004377e+00
1.00005596e+00
1.00006929e+00
1.00008377e+00
1.00009940e+00
1.00011618e+00
1.00013410e+00
1.00015312e+00
1.00017321e+00
1.00019433e+00
1.00021640e+00
1.00023934e+00
1.00026308e+00
1.00028751e+00
1.00031254e+00
1.00033808e+00
1.00036402e+00
1.00039030e+00
1.00041687e+00
1.00044368e+00
1.00047074e+00
1.00049806e+00
1.00052570e+00
1.00055372e+00
1.00058221e+00
1.00061125e+00
1.00064088e+00
1.00067113e+00
1.00070197e+00
1.00073329e+00
1.00076489e+00
1.00079648e+00
1.00082767e+00
1.00085799e+00
1.00088686e+00
1.00091368e+00
1.00093780e+00
1.00095857e+00
1.00097539e+00
1.00098772e+00
1.00099513e+00
1.00099731e+00
1.00099408e+00
1.00098543e+00
1.00097150e+00
1.00095256e+00
1.00092901e+00
1.00090138e+00
1.00087024e+00
1.00083624e+00
1.00080002e+00
1.00076224e+00
1.00072353e+00
1.00068445e+00
1.00064552e+00
1.00060717e+00
1.00056976e+00
1.00053358e+00
1.00049883e+00
1.00046565e+00
1.00043411e+00
1.00040425e+00
1.00037603e+00
1.00034940e+00
1.00032429e+00
1.00030061e+00
1.00027824e+00
1.00025707e+00
1.00023701e+00
1.00021794e+00
1.00019978e+00
1.00018242e+00
1.00016580e+00
1.00014984e+00
1.00013448e+00
1.00011967e+00
1.00010536e+00
1.00009150e+00
1.00007805e+00
1.00006497e+00
1.00005221e+00
1.00003975e+00
1.00002753e+00
1.00001551e+00
1.00000364e+00
9.99991876e-01
9.99980168e-01
9.99968465e-01
9.99956720e-01
9.99944883e-01
9.99932906e-01
9.99920745e-01
9.99908355e-01
9.99895695e-01
9.99882722e-01
9.99869398e-01
9.99855683e-01
9.99841536e-01
9.99826916e-01
9.99811777e-01
9.99796069e-01
9.99779738e-01
9.99762721e-01
9.99744949e-01
9.99726343e-01
9.99706818e-01
9.99686279e-01
9.99664624e-01
9.99641745e-01
9.99617532e-01
9.99591871e-01
9.99564654e-01
9.99535779e-01
9.99505155e-01
9.99472712e-01
9.99438405e-01
9.99402219e-01
9.99364182e-01
9.99324370e-01
9.99282917e-01
9.99240020e-01
9.99195948e-01
9.99151050e-01
9.99105755e-01
9.99060575e-01
9.99016104e-01
9.98973011e-01
9.98932032e-01
9.98893953e-01
9.98859592e-01
9.98829776e-01
9.98805312e-01
9.98786958e-01
9.98775393e-01
9.98771183e-01
9.98774756e-01
9.98786377e-01
9.98806132e-01
9.98833916e-01
9.98869438e-01
9.98912225e-01
9.98961640e-01
9.99016909e-01
9.99077148e-01
9.99141400e-01
9.99208664e-01
9.99277936e-01
9.99348232e-01
9.99418615e-01
9.99488220e-01
9.99556262e-01
9.99622053e-01
9.99685000e-01
9.99744614e-01
9.99800506e-01
9.99852385e-01
9.99900052e-01
9.99943402e-01
9.99982410e-01
1.00001713e+00
1.00004770e+00
1.00007429e+00
1.00009717e+00
1.00011660e+00
1.00013293e+00
1.00014649e+00
1.00015763e+00
1.00016670e+00
1.00017406e+00
1.00018000e+00
1.00018482e+00
1.00018877e+00
1.00019205e+00
1.00019485e+00
1.00019728e+00
1.00019943e+00
1.00020136e+00
1.00020311e+00
1.00020466e+00
1.00020599e+00
1.00020708e+00
1.00020794e+00
1.00020849e+00
1.00020870e+00
1.00020866e+00
1.00020834e+00
1.00020766e+00
9.99978218e-01
9.99978175e-01
9.99978923e-01
9.99980291e-01
9.99982535e-01
9.99985752e-01
9.99989765e-01
9.99994662e-01
1.00000058e+00
1.00000747e+00
1.00001534e+00
1.00002426e+00
1.00003424e+00
1.00004530e+00
1.00005746e+00
1.00007073e+00
1.00008514e+00
1.00010066e+00
1.00011731e+00
1.00013505e+00
1.00015386e+00
1.00017370e+00
1.00019450e+00
1.00021620e+00
1.00023872e+00
1.00026197e+00
1.00028585e+00
1.00031026e+00
1.00033511e+00
1.00036031e+00
1.00038579e+00
1.00041150e+00
1.00043742e+00
1.00046353e+00
1.00048986e+00
1.00051647e+00
1.00054343e+00
1.00057082e+00
1.00059872e+00
1.00062720e+00
1.00065629e+00
1.00068599e+00
1.00071621e+00
1.00074679e+00
1.00077749e+00
1.00080798e+00
1.00083781e+00
1.00086649e+00
1.00089343e+00
1.00091804e+00
1.00093970e+00
1.00095779e+00
1.00097178e+00
1.00098120e+00
1.00098570e+00
1.00098504e+00
1.00097914e+00
1.00096805e+00
1.00095197e+00
1.00093121e+00
1.00090620e+00
1.00087747e+00
1.00084559e+00
1.00081117e+00
1.00077485e+00
1.00073723e+00
1.00069888e+00
1.00066035e+00
1.00062208e+00
1.00058448e+00
1.00054788e+00
1.00051251e+00
1.00047857e+00
1.00044618e+00
1.00041539e+00
1.00038623e+00
1.00035866e+00
1.00033264e+00
1.00030809e+00
1.00028491e+00
1.00026301e+00
1.00024228e+00
1.00022261e+00
1.00020390e+00
1.00018607e+00
1.00016903e+00
1.00015270e+00
1.00013701e+00
1.00012190e+00
1.00010732e+00
1.00009321e+00
1.00007954e+00
1.00006625e+00
1.00005330e+00
1.00004065e+00
1.00002825e+00
1.00001606e+00
1.00000402e+00
9.99992099e-01
9.99980233e-01
9.99968376e-01
9.99956479e-01
9.99944492e-01
9.99932366e-01
9.99920055e-01
9.99907514e-01
9.99894698e-01
9.99881564e-01
9.99868070e-01
9.99854174e-01
9.99839831e-01
9.99824996e-01
9.99809619e-01
9.99793645e-01
9.99777015e-01
9.99759660e-01
9.99741505e-01
9.99722469e-01
9.99702460e-01
9.99681381e-01
9.99659128e-01
9.99635594e-01
9.99610671e-01
9.99584251e-01
9.99556236e-01
9.99526536e-01
9.99495079e-01
9.99461814e-01
9.99426721e-01
9.99389815e-01
9.99351155e-01
9.99310853e-01
9.99269074e-01
9.99226053e-01
9.99182093e-01
9.99137572e-01
9.99092943e-01
9.99048738e-01
9.99005560e-01
9.98964079e-01
9.98925018e-01
9.98889140e-01
9.98857228e-01
9.98830062e-01
9.98808391e-01
9.98792907e-01
9.98784214e-01
9.98782804e-01
9.98789028e-01
9.98803079e-01
9.98824975e-01
9.98854559e-01
9.98891496e-01
9.98935284e-01
9.98985274e-01
9.99040694e-01
9.99100676e-01
9.99164291e-01
9.99230576e-01
9.99298569e-01
9.99367335e-01
9.99435989e-01
9.99503715e-01
9.99569779e-01
9.99633540e-01
9.99694453e-01
9.99752070e-01
9.99806045e-01
9.99856122e-01
9.99902139e-01
9.99944017e-01
9.99981756e-01
1.00001543e+00
1.00004517e+00
1.00007116e+00
1.00009366e+00
1.00011292e+00
1.00012925e+00
1.00014296e+00
1.00015437e+00
1.00016381e+00
1.00017158e+00
1.00017796e+00
1.00018321e+00
1.00018756e+00
1.00019119e+00
1.00019427e+00
1.00019692e+00
1.00019923e+00
1.00020125e+00
1.00020302e+00
1.00020456e+00
1.00020586e+00
1.00020686e+00
1.00020758e+00
1.00020807e+00
1.00020820e+00
1.00020796e+00
1.00020745e+00
1.00020660e+00
9.99980050e-01
9.99979739e-01
9.99980275e-01
9.99981696e-01
9.99983979e-01
9.99987080e-01
9.99991087e-01
9.99996076e-01
1.00000199e+00
1.00000886e+00
1.00001675e+00
1.00002568e+00
1.00003564e+00
1.00004666e+00
1.00005878e+00
1.00007199e+00
1.00008630e+00
1.00010171e+00
1.00011819e+00
1.00013574e+00
1.00015430e+00
1.00017383e+00
1.00019427e+00
1.00021554e+00
1.00023756e+00
1.00026024e+00
1.00028348e+00
1.00030717e+00
1.00033123e+00
1.00035558e+00
1.00038015e+00
1.00040489e+00
1.00042979e+00
1.00045484e+00
1.00048007e+00
1.00050555e+00
1.00053134e+00
1.00055755e+00
1.00058425e+00
1.00061152e+00
1.00063942e+00
1.00066796e+00
1.00069709e+00
1.00072670e+00
1.00075657e+00
1.00078642e+00
1.00081587e+00
1.00084447e+00
1.00087168e+00
1.00089694e+00
1.00091964e+00
1.00093920e+00
1.00095504e+00
1.00096669e+00
1.00097373e+00
1.00097587e+00
1.00097295e+00
1.00096493e+00
1.00095192e+00
1.00093415e+00
1.00091197e+00
1.00088582e+00
1.00085623e+00
1.00082377e+00
1.00078902e+00
1.00075259e+00
1.00071506e+00
1.00067697e+00
1.00063882e+00
1.00060104e+00
1.00056399e+00
1.00052797e+00
1.00049322e+00
1.00045990e+00
1.00042812e+00
1.00039792e+00
1.00036931e+00
1.00034228e+00
1.00031676e+00
1.00029267e+00
1.00026992e+00
1.00024841e+00
1.00022805e+00
1.00020872e+00
1.00019033e+00
1.00017279e+00
1.00015601e+00
1.00013993e+00
1.00012447e+00
1.00010957e+00
1.00009518e+00
1.00008124e+00
1.00006770e+00
1.00005453e+00
1.00004166e+00
1.00002905e+00
1.00001666e+00
1.00000444e+00
9.99992326e-01
9.99980279e-01
9.99968246e-01
9.99956174e-01
9.99944014e-01
9.99931716e-01
9.99919231e-01
9.99906513e-01
9.99893515e-01
9.99880192e-01
9.99866499e-01
9.99852388e-01
9.99837813e-01
9.99822722e-01
9.99807060e-01
9.99790768e-01
9.99773779e-01
9.99756020e-01
9.99737411e-01
9.99717863e-01
9.99697282e-01
9.99675568e-01
9.99652616e-01
9.99628320e-01
9.99602578e-01
9.99575290e-01
9.99546369e-01
9.99515741e-01
9.99483354e-01
9.99449181e-01
9.99413230e-01
9.99375549e-01
9.99336231e-01
9.99295422e-01
9.99253327e-01
9.99210215e-01
9.99166424e-01
9.99122361e-01
9.99078505e-01
9.99035404e-01
9.98993670e-01
9.98953969e-01
9.98917012e-01
9.98883535e-01
9.98854285e-01
9.98829989e-01
9.98811337e-01
9.98798951e-01
9.98793362e-01
9.98794979e-01
9.98804076e-01
9.98820770e-01
9.98845012e-01
9.98876585e-01
9.98915110e-01
9.98960053e-01
9.99010752e-01
9.99066432e-01
9.99126241e-01
9.99189274e-01
9.99254605e-01
9.99321317e-01
9.99388523e-01
9.99455390e-01
9.99521154e-01
9.99585134e-01
9.99646741e-01
9.99705481e-01
9.99760954e-01
9.99812859e-01
9.99860983e-01
9.99905201e-01
9.99945468e-01
9.99981810e-01
1.00001432e+00
1.00004314e+00
1.00006846e+00
1.00009051e+00
1.00010955e+00
1.00012586e+00
1.00013971e+00
1.00015140e+00
1.00016120e+00
1.00016940e+00
1.00017623e+00
1.00018192e+00
1.00018668e+00
1.00019069e+00
1.00019407e+00
1.00019694e+00
1.00019941e+00
1.00020152e+00
1.00020332e+00
1.00020481e+00
1.00020603e+00
1.00020696e+00
1.00020756e+00
1.00020785e+00
1.00020786e+00
1.00020752e+00
1.00020677e+00
1.00020563e+00
9.99981707e-01
9.99981262e-01
9.99981664e-01
9.99983034e-01
9.99985258e-01
9.99988336e-01
9.99992373e-01
9.99997351e-01
1.00000325e+00
1.00001013e+00
1.00001803e+00
1.00002693e+00
1.00003687e+00
1.00004787e+00
1.00005993e+00
1.00007305e+00
1.00008725e+00
1.00010251e+00
1.00011881e+00
1.00013612e+00
1.00015439e+00
1.00017357e+00
1.00019359e+00
1.00021437e+00
1.00023582e+00
1.00025784e+00
1.00028034e+00
1.00030323e+00
1.00032640e+00
1.00034979e+00
1.00037333e+00
1.00039699e+00
1.00042075e+00
1.00044463e+00
1.00046867e+00
1.00049293e+00
1.00051749e+00
1.00054244e+00
1.00056790e+00
1.00059394e+00
1.00062065e+00
1.00064804e+00
1.00067612e+00
1.00070479e+00
1.00073389e+00
1.00076320e+00
1.00079237e+00
1.00082101e+00
1.00084862e+00
1.00087467e+00
1.00089858e+00
1.00091976e+00
1.00093763e+00
1.00095168e+00
1.00096144e+00
1.00096656e+00
1.00096679e+00
1.00096202e+00
1.00095226e+00
1.00093765e+00
1.00091846e+00
1.00089506e+00
1.00086791e+00
1.00083753e+00
1.00080448e+00
1.00076935e+00
1.00073273e+00
1.00069516e+00
1.00065718e+00
1.00061925e+00
1.00058178e+00
1.00054512e+00
1.00050954e+00
1.00047525e+00
1.00044241e+00
1.00041110e+00
1.00038138e+00
1.00035324e+00
1.00032666e+00
1.00030155e+00
1.00027786e+00
1.00025548e+00
1.00023432e+00
1.00021427e+00
1.00019524e+00
1.00017712e+00
1.00015983e+00
1.00014329e+00
1.00012742e+00
1.00011215e+00
1.00009742e+00
1.00008317e+00
1.00006935e+00
1.00005591e+00
1.00004279e+00
1.00002995e+00
1.00001733e+00
1.00000489e+00
9.99992566e-01
9.99980313e-01
9.99968078e-01
9.99955808e-01
9.99943450e-01
9.99930955e-01
9.99918271e-01
9.99905349e-01
9.99892141e-01
9.99878598e-01
9.99864670e-01
9.99850308e-01
9.99835458e-01
9.99820064e-01
9.99804066e-01
9.99787396e-01
9.99769984e-01
9.99751748e-01
9.99732603e-01
9.99712456e-01
9.99691210e-01
9.99668761e-01
9.99645006e-01
9.99619844e-01
9.99593178e-01
9.99564919e-01
9.99534994e-01
9.99503349e-01
9.99469953e-01
9.99434810e-01
9.99397957e-01
9.99359474e-01
9.99319493e-01
9.99278195e-01
9.99235825e-01
9.99192686e-01
9.99149150e-01
9.99105652e-01
9.99062695e-01
9.99020840e-01
9.98980705e-01
9.98942951e-01
9.98908273e-01
9.98877379e-01
9.98850973e-01
9.98829733e-01
9.98814287e-01
9.98805185e-01
9.98802881e-01
9.98807705e-01
9.98819851e-01
9.98839359e-01
9.98866110e-01
9.98899829e-01
9.98940087e-01
9.98986320e-01
9.99037847e-01
9.99093890e-01
9.99153608e-01
9.99216122e-01
9.99280540e-01
9.99345985e-01
9.99411621e-01
9.99476666e-01
9.99540410e-01
9.99602229e-01
9.99661586e-01
9.99718041e-01
9.99771248e-01
9.99820953e-01
9.99866993e-01
9.99909283e-01
9.99947815e-01
9.99982645e-01
1.00001388e+00
1.00004169e+00
1.00006626e+00
1.00008781e+00
1.00010658e+00
1.00012282e+00
1.00013679e+00
1.00014874e+00
1.00015891e+00
1.00016753e+00
1.00017482e+00
1.00018097e+00
1.00018615e+00
1.00019053e+00
1.00019422e+00
1.00019733e+00
1.00019995e+00
1.00020214e+00
1.00020395e+00
1.00020541e+00
1.00020653e+00
1.00020734e+00
1.00020782e+00
1.00020795e+00
1.00020776e+00
1.00020725e+00
1.00020631e+00
1.00020498e+00
9.99983155e-01
9.99982622e-01
9.99982993e-01
9.99984254e-01
9.99986409e-01
9.99989517e-01
9.99993538e-01
9.99998469e-01
1.00000438e+00
1.00001128e+00
1.00001915e+00
1.00002803e+00
1.00003794e+00
1.00004889e+00
1.00006087e+00
1.00007390e+00
1.00008797e+00
1.00010306e+00
1.00011913e+00
1.00013617e+00
1.00015411e+00
1.00017288e+00
1.00019242e+00
1.00021264e+00
1.00023344e+00
1.00025472e+00
1.00027640e+00
1.00029836e+00
1.00032054e+00
1.00034286e+00
1.00036527e+00
1.00038774e+00
1.00041027e+00
1.00043289e+00
1.00045564e+00
1.00047861e+00
1.00050187e+00
1.00052554e+00
1.00054973e+00
1.00057454e+00
1.00060007e+00
1.00062636e+00
1.00065344e+00
1.00068125e+00
1.00070968e+00
1.00073854e+00
1.00076756e+00
1.00079635e+00
1.00082449e+00
1.00085147e+00
1.00087671e+00
1.00089965e+00
1.00091968e+00
1.00093626e+00
1.00094887e+00
1.00095710e+00
1.00096062e+00
1.00095922e+00
1.00095284e+00
1.00094153e+00
1.00092546e+00
1.00090493e+00
1.00088035e+00
1.00085217e+00
1.00082095e+00
1.00078724e+00
1.00075163e+00
1.00071468e+00
1.00067695e+00
1.00063894e+00
1.00060110e+00
1.00056382e+00
1.00052741e+00
1.00049216e+00
1.00045824e+00
1.00042579e+00
1.00039489e+00
1.00036558e+00
1.00033784e+00
1.00031164e+00
1.00028691e+00
1.00026356e+00
1.00024151e+00
1.00022065e+00
1.00020088e+00
1.00018210e+00
1.00016422e+00
1.00014714e+00
1.00013079e+00
1.00011509e+00
1.00009997e+00
1.00008537e+00
1.00007122e+00
1.00005747e+00
1.00004407e+00
1.00003096e+00
1.00001808e+00
1.00000539e+00
9.99992829e-01
9.99980343e-01
9.99967879e-01
9.99955382e-01
9.99942800e-01
9.99930079e-01
9.99917167e-01
9.99904011e-01
9.99890560e-01
9.99876761e-01
9.99862561e-01
9.99847904e-01
9.99832731e-01
9.99816981e-01
9.99800586e-01
9.99783474e-01
9.99765564e-01
9.99746771e-01
9.99727004e-01
9.99706165e-01
9.99684154e-01
9.99660869e-01
9.99636209e-01
9.99610078e-01
9.99582388e-01
9.99553065e-01
9.99522053e-01
9.99489321e-01
9.99454864e-01
9.99418714e-01
9.99380942e-01
9.99341665e-01
9.99301050e-01
9.99259318e-01
9.99216747e-01
9.99173678e-01
9.99130513e-01
9.99087712e-01
9.99045796e-01
9.99005340e-01
9.98966963e-01
9.98931317e-01
9.98899078e-01
9.98870923e-01
9.98847516e-01
9.98829480e-01
9.98817381e-01
9.98811699e-01
9.98812812e-01
9.98820970e-01
9.98836289e-01
9.98858732e-01
9.98888112e-01
9.98924093e-01
9.98966200e-01
9.99013833e-01
9.99066291e-01
9.99122794e-01
9.99182507e-01
9.99244572e-01
9.99308131e-01
9.99372347e-01
9.99436429e-01
9.99499647e-01
9.99561346e-01
9.99620957e-01
9.99678000e-01
9.99732090e-01
9.99782938e-01
9.99830343e-01
9.99874190e-01
9.99914441e-01
9.99951129e-01
9.99984341e-01
1.00001421e+00
1.00004092e+00
1.00006465e+00
1.00008563e+00
1.00010407e+00
1.00012021e+00
1.00013426e+00
1.00014645e+00
1.00015696e+00
1.00016600e+00
1.00017374e+00
1.00018035e+00
1.00018596e+00