# vtk DataFile Version 2.0
LBM Flow Field - Timestep 400
ASCII
DATASET STRUCTURED_POINTS
DIMENSIONS 200 100 1
ORIGIN 0.0 0.0 0.0
SPACING 1.0 1.0 1.0
POINT_DATA 20000
SCALARS density double 1
LOOKUP_TABLE default
9.99302279e-01
9.99304556e-01
9.99285283e-01
9.99191981e-01
9.99083622e-01
9.98973980e-01
9.98853737e-01
9.98729765e-01
9.98613281e-01
9.98507158e-01
9.98413207e-01
9.98333964e-01
9.98270508e-01
9.98222339e-01
9.98188460e-01
9.98167453e-01
9.98157560e-01
9.98156900e-01
9.98163664e-01
9.98176191e-01
9.98193029e-01
9.98212962e-01
9.98235015e-01
9.98258432e-01
9.98282650e-01
9.98307267e-01
9.98332004e-01
9.98356680e-01
9.98381185e-01
9.98405457e-01
9.98429467e-01
9.98453211e-01
9.98476694e-01
9.98499932e-01
9.98522944e-01
9.98545751e-01
9.98568373e-01
9.98590829e-01
9.98613139e-01
9.98635321e-01
9.98657390e-01
9.98679362e-01
9.98701250e-01
9.98723066e-01
9.98744823e-01
9.98766530e-01
9.98788196e-01
9.98809832e-01
9.98831444e-01
9.98853040e-01
9.98874626e-01
9.98896209e-01
9.98917793e-01
9.98939384e-01
9.98960986e-01
9.98982602e-01
9.99004236e-01
9.99025890e-01
9.99047565e-01
9.99069262e-01
9.99090981e-01
9.99112720e-01
9.99134476e-01
9.99156245e-01
9.99178021e-01
9.99199798e-01
9.99221570e-01
9.99243329e-01
9.99265070e-01
9.99286792e-01
9.99308495e-01
9.99330186e-01
9.99351878e-01
9.99373588e-01
9.99395340e-01
9.99417163e-01
9.99439087e-01
9.99461141e-01
9.99483349e-01
9.99505729e-01
9.99528288e-01
9.99551021e-01
9.99573914e-01
9.99596942e-01
9.99620074e-01
9.99643275e-01
9.99666515e-01
9.99689766e-01
9.99713009e-01
9.99736234e-01
9.99759442e-01
9.99782639e-01
9.99805839e-01
9.99829055e-01
9.99852302e-01
9.99875592e-01
9.99898930e-01
9.99922319e-01
9.99945756e-01
9.99969234e-01
9.99992746e-01
1.00001629e+00
1.00003985e+00
1.00006343e+00
1.00008704e+00
1.00011068e+00
1.00013437e+00
1.00015812e+00
1.00018193e+00
1.00020583e+00
1.00022981e+00
1.00025386e+00
1.00027798e+00
1.00030213e+00
1.00032631e+00
1.00035046e+00
1.00037457e+00
1.00039860e+00
1.00042253e+00
1.00044636e+00
1.00047009e+00
1.00049371e+00
1.00051727e+00
1.00054076e+00
1.00056423e+00
1.00058771e+00
1.00061120e+00
1.00063475e+00
1.00065835e+00
1.00068203e+00
1.00070577e+00
1.00072959e+00
1.00075348e+00
1.00077742e+00
1.00080142e+00
1.00082546e+00
1.00084954e+00
1.00087365e+00
1.00089778e+00
1.00092192e+00
1.00094609e+00
1.00097026e+00
1.00099444e+00
1.00101864e+00
1.00104284e+00
1.00106704e+00
1.00109126e+00
1.00111548e+00
1.00113971e+00
1.00116396e+00
1.00118821e+00
1.00121247e+00
1.00123675e+00
1.00126105e+00
1.00128537e+00
1.00130971e+00
1.00133408e+00
1.00135848e+00
1.00138292e+00
1.00140740e+00
1.00143193e+00
1.00145651e+00
1.00148116e+00
1.00150588e+00
1.00153069e+00
1.00155558e+00
1.00158058e+00
1.00160569e+00
1.00163091e+00
1.00165624e+00
1.00168168e+00
1.00170720e+00
1.00173274e+00
1.00175821e+00
1.00178347e+00
1.00180829e+00
1.00183236e+00
1.00185520e+00
1.00187621e+00
1.00189456e+00
1.00190922e+00
1.00191892e+00
1.00192216e+00
1.00191725e+00
1.00190236e+00
1.00187562e+00
1.00183531e+00
1.00178008e+00
1.00170906e+00
1.00162190e+00
1.00151993e+00
1.00140594e+00
1.00128199e+00
1.00115123e+00
1.00102524e+00
1.00091105e+00
1.00079902e+00
1.00070291e+00
1.00068492e+00
1.00068913e+00
9.99323418e-01
9.99298118e-01
9.99265259e-01
9.99185419e-01
9.99086854e-01
9.98977497e-01
9.98861369e-01
9.98742875e-01
9.98628913e-01
9.98523560e-01
9.98430145e-01
9.98350528e-01
9.98285769e-01
9.98235855e-01
9.98200071e-01
9.98177084e-01
9.98165284e-01
9.98162903e-01
9.98168183e-01
9.98179478e-01
9.98195331e-01
9.98214507e-01
9.98235999e-01
9.98259017e-01
9.98282964e-01
9.98307405e-01
9.98332038e-01
9.98356660e-01
9.98381143e-01
9.98405415e-01
9.98429439e-01
9.98453203e-01
9.98476710e-01
9.98499973e-01
9.98523010e-01
9.98545839e-01
9.98568483e-01
9.98590959e-01
9.98613287e-01
9.98635485e-01
9.98657568e-01
9.98679553e-01
9.98701451e-01
9.98723277e-01
9.98745042e-01
9.98766756e-01
9.98788429e-01
9.98810069e-01
9.98831685e-01
9.98853284e-01
9.98874872e-01
9.98896456e-01
9.98918041e-01
9.98939632e-01
9.98961234e-01
9.98982849e-01
9.99004481e-01
9.99026132e-01
9.99047804e-01
9.99069498e-01
9.99091212e-01
9.99112945e-01
9.99134693e-01
9.99156454e-01
9.99178221e-01
9.99199987e-01
9.99221748e-01
9.99243496e-01
9.99265227e-01
9.99286940e-01
9.99308638e-01
9.99330326e-01
9.99352019e-01
9.99373736e-01
9.99395499e-01
9.99417336e-01
9.99439276e-01
9.99461346e-01
9.99483568e-01
9.99505957e-01
9.99528519e-01
9.99551249e-01
9.99574131e-01
9.99597141e-01
9.99620250e-01
9.99643427e-01
9.99666642e-01
9.99689871e-01
9.99713096e-01
9.99736310e-01
9.99759510e-01
9.99782705e-01
9.99805906e-01
9.99829124e-01
9.99852373e-01
9.99875662e-01
9.99898998e-01
9.99922381e-01
9.99945810e-01
9.99969280e-01
9.99992784e-01
1.00001632e+00
1.00003987e+00
1.00006346e+00
1.00008707e+00
1.00011071e+00
1.00013440e+00
1.00015814e+00
1.00018195e+00
1.00020584e+00
1.00022980e+00
1.00025384e+00
1.00027793e+00
1.00030207e+00
1.00032621e+00
1.00035035e+00
1.00037444e+00
1.00039846e+00
1.00042240e+00
1.00044623e+00
1.00046996e+00
1.00049361e+00
1.00051717e+00
1.00054068e+00
1.00056416e+00
1.00058764e+00
1.00061114e+00
1.00063468e+00
1.00065828e+00
1.00068194e+00
1.00070568e+00
1.00072949e+00
1.00075336e+00
1.00077729e+00
1.00080127e+00
1.00082530e+00
1.00084937e+00
1.00087347e+00
1.00089759e+00
1.00092173e+00
1.00094588e+00
1.00097005e+00
1.00099423e+00
1.00101841e+00
1.00104261e+00
1.00106681e+00
1.00109102e+00
1.00111523e+00
1.00113946e+00
1.00116370e+00
1.00118795e+00
1.00121221e+00
1.00123649e+00
1.00126078e+00
1.00128510e+00
1.00130944e+00
1.00133381e+00
1.00135822e+00
1.00138266e+00
1.00140714e+00
1.00143168e+00
1.00145627e+00
1.00148093e+00
1.00150566e+00
1.00153048e+00
1.00155539e+00
1.00158040e+00
1.00160552e+00
1.00163075e+00
1.00165610e+00
1.00168153e+00
1.00170703e+00
1.00173253e+00
1.00175792e+00
1.00178305e+00
1.00180766e+00
1.00183140e+00
1.00185379e+00
1.00187418e+00
1.00189171e+00
1.00190531e+00
1.00191371e+00
1.00191541e+00
1.00190873e+00
1.00189191e+00
1.00186322e+00
1.00182108e+00
1.00176426e+00
1.00169217e+00
1.00160495e+00
1.00150387e+00
1.00139098e+00
1.00126986e+00
1.00114479e+00
1.00102295e+00
1.00090877e+00
1.00080651e+00
1.00072392e+00
1.00069117e+00
1.00066556e+00
9.99348818e-01
9.99309756e-01
9.99240248e-01
9.99177269e-01
9.99092516e-01
9.98982189e-01
9.98868162e-01
9.98755559e-01
9.98644393e-01
9.98539882e-01
9.98446845e-01
9.98366831e-01
9.98300770e-01
9.98249108e-01
9.98211358e-01
9.98186342e-01
9.98172592e-01
9.98168450e-01
9.98172209e-01
9.98182242e-01
9.98197091e-01
9.98215496e-01
9.98236420e-01
9.98259037e-01
9.98282716e-01
9.98306990e-01
9.98331528e-01
9.98356107e-01
9.98380583e-01
9.98404869e-01
9.98428920e-01
9.98452719e-01
9.98476265e-01
9.98499567e-01
9.98522642e-01
9.98545508e-01
9.98568185e-01
9.98590693e-01
9.98613051e-01
9.98635276e-01
9.98657384e-01
9.98679391e-01
9.98701311e-01
9.98723156e-01
9.98744938e-01
9.98766668e-01
9.98788355e-01
9.98810009e-01
9.98831636e-01
9.98853246e-01
9.98874844e-01
9.98896437e-01
9.98918030e-01
9.98939629e-01
9.98961236e-01
9.98982857e-01
9.99004494e-01
9.99026149e-01
9.99047825e-01
9.99069521e-01
9.99091236e-01
9.99112970e-01
9.99134718e-01
9.99156477e-01
9.99178242e-01
9.99200005e-01
9.99221761e-01
9.99243505e-01
9.99265232e-01
9.99286942e-01
9.99308637e-01
9.99330325e-01
9.99352021e-01
9.99373743e-01
9.99395516e-01
9.99417365e-01
9.99439319e-01
9.99461405e-01
9.99483642e-01
9.99506043e-01
9.99528614e-01
9.99551348e-01
9.99574228e-01
9.99597232e-01
9.99620330e-01
9.99643493e-01
9.99666693e-01
9.99689907e-01
9.99713120e-01
9.99736324e-01
9.99759519e-01
9.99782711e-01
9.99805912e-01
9.99829132e-01
9.99852383e-01
9.99875674e-01
9.99899010e-01
9.99922392e-01
9.99945819e-01
9.99969286e-01
9.99992788e-01
1.00001632e+00
1.00003987e+00
1.00006346e+00
1.00008707e+00
1.00011071e+00
1.00013440e+00
1.00015814e+00
1.00018195e+00
1.00020583e+00
1.00022978e+00
1.00025380e+00
1.00027788e+00
1.00030201e+00
1.00032614e+00
1.00035027e+00
1.00037436e+00
1.00039838e+00
1.00042232e+00
1.00044616e+00
1.00046991e+00
1.00049356e+00
1.00051714e+00
1.00054066e+00
1.00056415e+00
1.00058763e+00
1.00061114e+00
1.00063468e+00
1.00065827e+00
1.00068193e+00
1.00070566e+00
1.00072946e+00
1.00075333e+00
1.00077726e+00
1.00080124e+00
1.00082526e+00
1.00084933e+00
1.00087342e+00
1.00089754e+00
1.00092168e+00
1.00094583e+00
1.00097000e+00
1.00099418e+00
1.00101837e+00
1.00104256e+00
1.00106677e+00
1.00109098e+00
1.00111520e+00
1.00113943e+00
1.00116368e+00
1.00118793e+00
1.00121220e+00
1.00123649e+00
1.00126080e+00
1.00128512e+00
1.00130948e+00
1.00133386e+00
1.00135828e+00
1.00138274e+00
1.00140724e+00
1.00143180e+00
1.00145641e+00
1.00148110e+00
1.00150586e+00
1.00153070e+00
1.00155564e+00
1.00158069e+00
1.00160584e+00
1.00163111e+00
1.00165648e+00
1.00168194e+00
1.00170744e+00
1.00173291e+00
1.00175824e+00
1.00178324e+00
1.00180764e+00
1.00183107e+00
1.00185301e+00
1.00187276e+00
1.00188944e+00
1.00190196e+00
1.00190902e+00
1.00190911e+00
1.00190061e+00
1.00188181e+00
1.00185110e+00
1.00180707e+00
1.00174867e+00
1.00167553e+00
1.00158826e+00
1.00148793e+00
1.00137628e+00
1.00125833e+00
1.00113943e+00
1.00101969e+00
1.00090435e+00
1.00081604e+00
1.00075073e+00
1.00067853e+00
1.00063791e+00
9.99320913e-01
9.99290892e-01
9.99237558e-01
9.99171680e-01
9.99083066e-01
9.98983143e-01
9.98877321e-01
9.98767451e-01
9.98659117e-01
9.98557639e-01
9.98465633e-01
9.98385231e-01
9.98318119e-01
9.98264804e-01
9.98224927e-01
9.98197634e-01
9.98181649e-01
9.98175426e-01
9.98177342e-01
9.98185819e-01
9.98199402e-01
9.98216817e-01
9.98236995e-01
9.98259073e-01
9.98282378e-01
9.98306407e-01
9.98330797e-01
9.98355297e-01
9.98379740e-01
9.98404026e-01
9.98428097e-01
9.98451927e-01
9.98475510e-01
9.98498852e-01
9.98521968e-01
9.98544873e-01
9.98567589e-01
9.98590133e-01
9.98612525e-01
9.98634781e-01
9.98656919e-01
9.98678954e-01
9.98700899e-01
9.98722768e-01
9.98744572e-01
9.98766322e-01
9.98788029e-01
9.98809700e-01
9.98831345e-01
9.98852970e-01
9.98874583e-01
9.98896189e-01
9.98917795e-01
9.98939405e-01
9.98961024e-01
9.98982655e-01
9.99004301e-01
9.99025965e-01
9.99047648e-01
9.99069351e-01
9.99091073e-01
9.99112812e-01
9.99134565e-01
9.99156327e-01
9.99178094e-01
9.99199859e-01
9.99221617e-01
9.99243361e-01
9.99265090e-01
9.99286801e-01
9.99308500e-01
9.99330194e-01
9.99351897e-01
9.99373629e-01
9.99395414e-01
9.99417278e-01
9.99439248e-01
9.99461349e-01
9.99483600e-01
9.99506014e-01
9.99528594e-01
9.99551332e-01
9.99574212e-01
9.99597212e-01
9.99620304e-01
9.99643459e-01
9.99666650e-01
9.99689857e-01
9.99713064e-01
9.99736265e-01
9.99759460e-01
9.99782654e-01
9.99805858e-01
9.99829083e-01
9.99852338e-01
9.99875633e-01
9.99898972e-01
9.99922356e-01
9.99945784e-01
9.99969252e-01
9.99992754e-01
1.00001629e+00
1.00003984e+00
1.00006343e+00
1.00008704e+00
1.00011069e+00
1.00013438e+00
1.00015813e+00
1.00018194e+00
1.00020581e+00
1.00022976e+00
1.00025378e+00
1.00027785e+00
1.00030197e+00
1.00032610e+00
1.00035022e+00
1.00037431e+00
1.00039833e+00
1.00042228e+00
1.00044613e+00
1.00046989e+00
1.00049355e+00
1.00051714e+00
1.00054068e+00
1.00056418e+00
1.00058767e+00
1.00061118e+00
1.00063473e+00
1.00065833e+00
1.00068199e+00
1.00070572e+00
1.00072952e+00
1.00075339e+00
1.00077732e+00
1.00080130e+00
1.00082533e+00
1.00084939e+00
1.00087349e+00
1.00089762e+00
1.00092176e+00
1.00094592e+00
1.00097010e+00
1.00099428e+00
1.00101848e+00
1.00104268e+00
1.00106690e+00
1.00109112e+00
1.00111535e+00
1.00113960e+00
1.00116385e+00
1.00118812e+00
1.00121241e+00
1.00123671e+00
1.00126103e+00
1.00128538e+00
1.00130976e+00
1.00133416e+00
1.00135860e+00
1.00138309e+00
1.00140762e+00
1.00143220e+00
1.00145685e+00
1.00148157e+00
1.00150636e+00
1.00153125e+00
1.00155623e+00
1.00158131e+00
1.00160651e+00
1.00163181e+00
1.00165721e+00
1.00168267e+00
1.00170816e+00
1.00173359e+00
1.00175881e+00
1.00178363e+00
1.00180774e+00
1.00183074e+00
1.00185207e+00
1.00187099e+00
1.00188659e+00
1.00189774e+00
1.00190314e+00
1.00190129e+00
1.00189062e+00
1.00186953e+00
1.00183653e+00
1.00179045e+00
1.00173055e+00
1.00165662e+00
1.00156930e+00
1.00147043e+00
1.00136227e+00
1.00124756e+00
1.00113176e+00
1.00102062e+00
1.00091595e+00
1.00082325e+00
1.00075475e+00
1.00069945e+00
1.00066804e+00
9.99286965e-01
9.99264043e-01
9.99224291e-01
9.99154712e-01
9.99071784e-01
9.98983785e-01
9.98883641e-01
9.98777965e-01
9.98674985e-01
9.98577002e-01
9.98486167e-01
9.98405850e-01
9.98337889e-01
9.98282797e-01
9.98240609e-01
9.98210801e-01
9.98192284e-01
9.98183671e-01
9.98183455e-01
9.98190113e-01
9.98202204e-01
9.98218441e-01
9.98237722e-01
9.98259143e-01
9.98281987e-01
9.98305707e-01
9.98329904e-01
9.98354294e-01
9.98378685e-01
9.98402958e-01
9.98427042e-01
9.98450899e-01
9.98474518e-01
9.98497901e-01
9.98521058e-01
9.98544005e-01
9.98566760e-01
9.98589342e-01
9.98611770e-01
9.98634060e-01
9.98656230e-01
9.98678295e-01
9.98700269e-01
9.98722164e-01
9.98743993e-01
9.98765767e-01
9.98787495e-01
9.98809187e-01
9.98830851e-01
9.98852495e-01
9.98874126e-01
9.98895749e-01
9.98917370e-01
9.98938995e-01
9.98960628e-01
9.98982273e-01
9.99003932e-01
9.99025608e-01
9.99047303e-01
9.99069016e-01
9.99090748e-01
9.99112495e-01
9.99134256e-01
9.99156026e-01
9.99177799e-01
9.99199570e-01
9.99221332e-01
9.99243082e-01
9.99264815e-01
9.99286532e-01
9.99308237e-01
9.99329940e-01
9.99351654e-01
9.99373399e-01
9.99395199e-01
9.99417080e-01
9.99439068e-01
9.99461188e-01
9.99483456e-01
9.99505885e-01
9.99528476e-01
9.99551221e-01
9.99574104e-01
9.99597103e-01
9.99620190e-01
9.99643339e-01
9.99666525e-01
9.99689726e-01
9.99712931e-01
9.99736132e-01
9.99759330e-01
9.99782530e-01
9.99805742e-01
9.99828975e-01
9.99852238e-01
9.99875540e-01
9.99898885e-01
9.99922275e-01
9.99945706e-01
9.99969177e-01
9.99992683e-01
1.00001622e+00
1.00003978e+00
1.00006337e+00
1.00008699e+00
1.00011065e+00
1.00013435e+00
1.00015810e+00
1.00018191e+00
1.00020579e+00
1.00022974e+00
1.00025375e+00
1.00027782e+00
1.00030193e+00
1.00032606e+00
1.00035018e+00
1.00037427e+00
1.00039830e+00
1.00042226e+00
1.00044612e+00
1.00046989e+00
1.00049357e+00
1.00051718e+00
1.00054073e+00
1.00056425e+00
1.00058775e+00
1.00061127e+00
1.00063483e+00
1.00065844e+00
1.00068211e+00
1.00070584e+00
1.00072965e+00
1.00075352e+00
1.00077745e+00
1.00080144e+00
1.00082548e+00
1.00084955e+00
1.00087366e+00
1.00089779e+00
1.00092194e+00
1.00094612e+00
1.00097030e+00
1.00099450e+00
1.00101871e+00
1.00104293e+00
1.00106716e+00
1.00109140e+00
1.00111565e+00
1.00113991e+00
1.00116418e+00
1.00118847e+00
1.00121278e+00
1.00123710e+00
1.00126145e+00
1.00128582e+00
1.00131022e+00
1.00133466e+00
1.00135913e+00
1.00138364e+00
1.00140821e+00
1.00143283e+00
1.00145751e+00
1.00148227e+00
1.00150710e+00
1.00153203e+00
1.00155706e+00
1.00158218e+00
1.00160742e+00
1.00163276e+00
1.00165818e+00
1.00168365e+00
1.00170911e+00
1.00173447e+00
1.00175955e+00
1.00178413e+00
1.00180788e+00
1.00183035e+00
1.00185093e+00
1.00186886e+00
1.00188316e+00
1.00189270e+00
1.00189614e+00
1.00189203e+00
1.00187886e+00
1.00185517e+00
1.00181965e+00
1.00177134e+00
1.00170985e+00
1.00163538e+00
1.00154857e+00
1.00145139e+00
1.00134731e+00
1.00123853e+00
1.00112737e+00
1.00102221e+00
1.00092991e+00
1.00084308e+00
1.00077026e+00
1.00072866e+00
1.00070471e+00
9.99256819e-01
9.99232566e-01
9.99192170e-01
9.99133895e-01
9.99063377e-01
9.98978836e-01
9.98884835e-01
9.98788507e-01
9.98691333e-01
9.98596143e-01
9.98507475e-01
9.98428095e-01
9.98359378e-01
9.98302514e-01
9.98258025e-01
9.98225566e-01
9.98204288e-01
9.98193036e-01
9.98190437e-01
9.98195034e-01
9.98205416e-01
9.98220291e-01
9.98238527e-01
9.98259175e-01
9.98281471e-01
9.98304822e-01
9.98328783e-01
9.98353036e-01
9.98377361e-01
9.98401614e-01
9.98425708e-01
9.98449594e-01
9.98473253e-01
9.98496681e-01
9.98519885e-01
9.98542879e-01
9.98565680e-01
9.98588306e-01
9.98610776e-01
9.98633105e-01
9.98655312e-01
9.98677412e-01
9.98699418e-01
9.98721344e-01
9.98743203e-01
9.98765004e-01
9.98786758e-01
9.98808475e-01
9.98830163e-01
9.98851829e-01
9.98873480e-01
9.98895124e-01
9.98916765e-01
9.98938408e-01
9.98960059e-01
9.98981720e-01
9.99003396e-01
9.99025087e-01
9.99046797e-01
9.99068524e-01
9.99090269e-01
9.99112029e-01
9.99133801e-01
9.99155582e-01
9.99177365e-01
9.99199145e-01
9.99220916e-01
9.99242674e-01
9.99264416e-01
9.99286143e-01
9.99307858e-01
9.99329572e-01
9.99351300e-01
9.99373061e-01
9.99394879e-01
9.99416779e-01
9.99438787e-01
9.99460925e-01
9.99483212e-01
9.99505657e-01
9.99528261e-01
9.99551015e-01
9.99573904e-01
9.99596905e-01
9.99619993e-01
9.99643140e-01
9.99666323e-01
9.99689524e-01
9.99712730e-01
9.99735934e-01
9.99759138e-01
9.99782346e-01
9.99805566e-01
9.99828809e-01
9.99852083e-01
9.99875395e-01
9.99898749e-01
9.99922146e-01
9.99945585e-01
9.99969062e-01
9.99992574e-01
1.00001612e+00
1.00003969e+00
1.00006329e+00
1.00008692e+00
1.00011058e+00
1.00013429e+00
1.00015805e+00
1.00018187e+00
1.00020575e+00
1.00022970e+00
1.00025372e+00
1.00027779e+00
1.00030190e+00
1.00032603e+00
1.00035015e+00
1.00037425e+00
1.00039828e+00
1.00042225e+00
1.00044613e+00
1.00046991e+00
1.00049361e+00
1.00051724e+00
1.00054081e+00
1.00056434e+00
1.00058786e+00
1.00061140e+00
1.00063497e+00
1.00065859e+00
1.00068226e+00
1.00070601e+00
1.00072983e+00
1.00075371e+00
1.00077765e+00
1.00080165e+00
1.00082570e+00
1.00084978e+00
1.00087390e+00
1.00089805e+00
1.00092222e+00
1.00094641e+00
1.00097061e+00
1.00099482e+00
1.00101905e+00
1.00104329e+00
1.00106754e+00
1.00109180e+00
1.00111607e+00
1.00114036e+00
1.00116466e+00
1.00118897e+00
1.00121330e+00
1.00123766e+00
1.00126203e+00
1.00128643e+00
1.00131087e+00
1.00133534e+00
1.00135984e+00
1.00138440e+00
1.00140900e+00
1.00143366e+00
1.00145839e+00
1.00148320e+00
1.00150808e+00
1.00153306e+00
1.00155814e+00
1.00158332e+00
1.00160860e+00
1.00163398e+00
1.00165943e+00
1.00168491e+00
1.00171033e+00
1.00173560e+00
1.00176051e+00
1.00178481e+00
1.00180812e+00
1.00182996e+00
1.00184967e+00
1.00186643e+00
1.00187923e+00
1.00188691e+00
1.00188814e+00
1.00188150e+00
1.00186558e+00
1.00183906e+00
1.00180090e+00
1.00175040e+00
1.00168737e+00
1.00161250e+00
1.00152711e+00
1.00143266e+00
1.00133197e+00
1.00122963e+00
1.00112846e+00
1.00102987e+00
1.00094118e+00
1.00086718e+00
1.00080595e+00
1.00076356e+00
1.00073811e+00
9.99216435e-01
9.99195084e-01
9.99157669e-01
9.99109553e-01
9.99046593e-01
9.98969513e-01
9.98886310e-01
9.98798003e-01
9.98705950e-01
9.98615461e-01
9.98530026e-01
9.98451523e-01
9.98382199e-01
9.98323825e-01
9.98277016e-01
9.98241734e-01
9.98217504e-01
9.98203396e-01
9.98198174e-01
9.98200479e-01
9.98208948e-01
9.98222285e-01
9.98239331e-01
9.98259093e-01
9.98280756e-01
9.98303675e-01
9.98327360e-01
9.98351451e-01
9.98375695e-01
9.98399923e-01
9.98424028e-01
9.98447949e-01
9.98471655e-01
9.98495136e-01
9.98518396e-01
9.98541446e-01
9.98564302e-01
9.98586980e-01
9.98609499e-01
9.98631876e-01
9.98654128e-01
9.98676269e-01
9.98698315e-01
9.98720279e-01
9.98742173e-01
9.98764008e-01
9.98785795e-01
9.98807542e-01
9.98829259e-01
9.98850952e-01
9.98872630e-01
9.98894299e-01
9.98915964e-01
9.98937631e-01
9.98959304e-01
9.98980987e-01
9.99002683e-01
9.99024394e-01
9.99046122e-01
9.99067868e-01
9.99089630e-01
9.99111407e-01
9.99133195e-01
9.99154990e-01
9.99176787e-01
9.99198581e-01
9.99220365e-01
9.99242136e-01
9.99263891e-01
9.99285630e-01
9.99307360e-01
9.99329090e-01
9.99350834e-01
9.99372613e-01
9.99394450e-01
9.99416371e-01
9.99438401e-01
9.99460561e-01
9.99482868e-01
9.99505331e-01
9.99527950e-01
9.99550717e-01
9.99573614e-01
9.99596621e-01
9.99619712e-01
9.99642861e-01
9.99666046e-01
9.99689249e-01
9.99712459e-01
9.99735670e-01
9.99758882e-01
9.99782100e-01
9.99805333e-01
9.99828589e-01
9.99851876e-01
9.99875200e-01
9.99898565e-01
9.99921972e-01
9.99945421e-01
9.99968907e-01
9.99992429e-01
1.00001598e+00
1.00003956e+00
1.00006317e+00
1.00008682e+00
1.00011049e+00
1.00013421e+00
1.00015798e+00
1.00018181e+00
1.00020570e+00
1.00022966e+00
1.00025368e+00
1.00027775e+00
1.00030187e+00
1.00032600e+00
1.00035013e+00
1.00037423e+00
1.00039828e+00
1.00042226e+00
1.00044615e+00
1.00046996e+00
1.00049368e+00
1.00051732e+00
1.00054091e+00
1.00056446e+00
1.00058800e+00
1.00061156e+00
1.00063514e+00
1.00065878e+00
1.00068247e+00
1.00070623e+00
1.00073006e+00
1.00075396e+00
1.00077791e+00
1.00080193e+00
1.00082599e+00
1.00085009e+00
1.00087423e+00
1.00089840e+00
1.00092259e+00
1.00094680e+00
1.00097102e+00
1.00099526e+00
1.00101951e+00
1.00104378e+00
1.00106805e+00
1.00109234e+00
1.00111664e+00
1.00114095e+00
1.00116528e+00
1.00118963e+00
1.00121400e+00
1.00123839e+00
1.00126280e+00
1.00128724e+00
1.00131172e+00
1.00133623e+00
1.00136078e+00
1.00138538e+00
1.00141004e+00
1.00143475e+00
1.00145954e+00
1.00148440e+00
1.00150935e+00
1.00153439e+00
1.00155953e+00
1.00158477e+00
1.00161012e+00
1.00163554e+00
1.00166102e+00
1.00168650e+00
1.00171189e+00
1.00173705e+00
1.00176176e+00
1.00178572e+00
1.00180854e+00
1.00182965e+00
1.00184835e+00
1.00186378e+00
1.00187489e+00
1.00188048e+00
1.00187924e+00
1.00186983e+00
1.00185092e+00
1.00182139e+00
1.00178045e+00
1.00172777e+00
1.00166352e+00
1.00158845e+00
1.00150447e+00
1.00141390e+00
1.00131860e+00
1.00122203e+00
1.00112950e+00
1.00104234e+00
1.00096150e+00
1.00089526e+00
1.00084449e+00
1.00080512e+00
1.00078259e+00
9.99166355e-01
9.99149921e-01
9.99121068e-01
9.99079062e-01
9.99023693e-01
9.98958902e-01
9.98885514e-01
9.98804154e-01
9.98719599e-01
9.98635170e-01
9.98552785e-01
9.98475540e-01
9.98406288e-01
9.98346596e-01
9.98297417e-01
9.98259264e-01
9.98231967e-01
9.98214799e-01
9.98206725e-01
9.98206518e-01
9.98212865e-01
9.98224479e-01
9.98240178e-01
9.98258928e-01
9.98279861e-01
9.98302278e-01
9.98325636e-01
9.98349532e-01
9.98373676e-01
9.98397869e-01
9.98421983e-01
9.98445939e-01
9.98469697e-01
9.98493238e-01
9.98516562e-01
9.98539676e-01
9.98562595e-01
9.98585335e-01
9.98607912e-01
9.98630345e-01
9.98652649e-01
9.98674841e-01
9.98696934e-01
9.98718943e-01
9.98740880e-01
9.98762756e-01
9.98784581e-01
9.98806365e-01
9.98828117e-01
9.98849845e-01
9.98871555e-01
9.98893255e-01
9.98914950e-01
9.98936646e-01
9.98958346e-01
9.98980056e-01
9.99001778e-01
9.99023514e-01
9.99045266e-01
9.99067035e-01
9.99088819e-01
9.99110617e-01
9.99132426e-01
9.99154241e-01
9.99176057e-01
9.99197869e-01
9.99219671e-01
9.99241459e-01
9.99263231e-01
9.99284988e-01
9.99306736e-01
9.99328485e-01
9.99350249e-01
9.99372050e-01
9.99393910e-01
9.99415854e-01
9.99437907e-01
9.99460091e-01
9.99482420e-01
9.99504903e-01
9.99527540e-01
9.99550321e-01
9.99573230e-01
9.99596246e-01
9.99619344e-01
9.99642499e-01
9.99665690e-01
9.99688900e-01
9.99712117e-01
9.99735338e-01
9.99758562e-01
9.99781794e-01
9.99805041e-01
9.99828312e-01
9.99851614e-01
9.99874953e-01
9.99898332e-01
9.99921752e-01
9.99945214e-01
9.99968713e-01
9.99992246e-01
1.00001581e+00
1.00003941e+00
1.00006303e+00
1.00008669e+00
1.00011038e+00
1.00013411e+00
1.00015790e+00
1.00018174e+00
1.00020564e+00
1.00022961e+00
1.00025363e+00
1.00027772e+00
1.00030184e+00
1.00032598e+00
1.00035012e+00
1.00037423e+00
1.00039829e+00
1.00042229e+00
1.00044620e+00
1.00047003e+00
1.00049377e+00
1.00051743e+00
1.00054104e+00
1.00056462e+00
1.00058818e+00
1.00061176e+00
1.00063536e+00
1.00065902e+00
1.00068273e+00
1.00070651e+00
1.00073036e+00
1.00075427e+00
1.00077825e+00
1.00080229e+00
1.00082637e+00
1.00085050e+00
1.00087466e+00
1.00089885e+00
1.00092307e+00
1.00094730e+00
1.00097156e+00
1.00099582e+00
1.00102011e+00
1.00104440e+00
1.00106871e+00
1.00109303e+00
1.00111737e+00
1.00114172e+00
1.00116609e+00
1.00119048e+00
1.00121488e+00
1.00123932e+00
1.00126378e+00
1.00128827e+00
1.00131279e+00
1.00133735e+00
1.00136196e+00
1.00138662e+00
1.00141134e+00
1.00143612e+00
1.00146097e+00
1.00148590e+00
1.00151092e+00
1.00153604e+00
1.00156126e+00
1.00158657e+00
1.00161198e+00
1.00163746e+00
1.00166298e+00
1.00168846e+00
1.00171379e+00
1.00173882e+00
1.00176329e+00
1.00178686e+00
1.00180909e+00
1.00182936e+00
1.00184692e+00
1.00186084e+00
1.00187005e+00
1.00187332e+00
1.00186939e+00
1.00185695e+00
1.00183488e+00
1.00180224e+00
1.00175850e+00
1.00170366e+00
1.00163842e+00
1.00156390e+00
1.00148177e+00
1.00139492e+00
1.00130641e+00
1.00121807e+00
1.00113313e+00
1.00105637e+00
1.00098839e+00
1.00093008e+00
1.00088565e+00
1.00085504e+00
1.00083754e+00
9.99113156e-01
9.99100501e-01
9.99077918e-01
9.99043309e-01
9.98998596e-01
9.98944591e-01
9.98880240e-01
9.98808580e-01
9.98732610e-01
9.98653749e-01
9.98575115e-01
9.98500212e-01
9.98431339e-01
9.98370399e-01
9.98319033e-01
9.98278071e-01
9.98247593e-01
9.98227199e-01
9.98216093e-01
9.98213175e-01
9.98217201e-01
9.98226911e-01
9.98241110e-01
9.98258720e-01
9.98278822e-01
9.98300659e-01
9.98323636e-01
9.98347299e-01
9.98371318e-01
9.98395463e-01
9.98419578e-01
9.98443570e-01
9.98467382e-01
9.98490989e-01
9.98514383e-01
9.98537569e-01
9.98560558e-01
9.98583367e-01
9.98606010e-01
9.98628506e-01
9.98650870e-01
9.98673119e-01
9.98695267e-01
9.98717328e-01
9.98739315e-01
9.98761238e-01
9.98783108e-01
9.98804936e-01
9.98826730e-01
9.98848497e-01
9.98870246e-01
9.98891983e-01
9.98913714e-01
9.98935444e-01
9.98957177e-01
9.98978919e-01
9.99000672e-01
9.99022438e-01
9.99044219e-01
9.99066016e-01
9.99087828e-01
9.99109652e-01
9.99131486e-01
9.99153326e-01
9.99175166e-01
9.99197001e-01
9.99218826e-01
9.99240636e-01
9.99262430e-01
9.99284210e-01
9.99305980e-01
9.99327752e-01
9.99349540e-01
9.99371365e-01
9.99393251e-01
9.99415221e-01
9.99437301e-01
9.99459510e-01
9.99481863e-01
9.99504369e-01
9.99527026e-01
9.99549825e-01
9.99572750e-01
9.99595779e-01
9.99618887e-01
9.99642052e-01
9.99665253e-01
9.99688473e-01
9.99711702e-01
9.99734936e-01
9.99758175e-01
9.99781424e-01
9.99804689e-01
9.99827978e-01
9.99851298e-01
9.99874654e-01
9.99898050e-01
9.99921487e-01
9.99944964e-01
9.99968479e-01
9.99992028e-01
1.00001561e+00
1.00003922e+00
1.00006286e+00
1.00008654e+00
1.00011025e+00
1.00013400e+00
1.00015780e+00
1.00018165e+00
1.00020557e+00
1.00022955e+00
1.00025359e+00
1.00027768e+00
1.00030181e+00
1.00032597e+00
1.00035012e+00
1.00037425e+00
1.00039833e+00
1.00042234e+00
1.00044627e+00
1.00047012e+00
1.00049389e+00
1.00051758e+00
1.00054122e+00
1.00056482e+00
1.00058841e+00
1.00061200e+00
1.00063563e+00
1.00065931e+00
1.00068305e+00
1.00070685e+00
1.00073073e+00
1.00075467e+00
1.00077867e+00
1.00080273e+00
1.00082685e+00
1.00085100e+00
1.00087519e+00
1.00089941e+00
1.00092366e+00
1.00094793e+00
1.00097222e+00
1.00099652e+00
1.00102084e+00
1.00104517e+00
1.00106952e+00
1.00109389e+00
1.00111826e+00
1.00114266e+00
1.00116708e+00
1.00119151e+00
1.00121597e+00
1.00124045e+00
1.00126497e+00
1.00128952e+00
1.00131410e+00
1.00133873e+00
1.00136340e+00
1.00138813e+00
1.00141291e+00
1.00143777e+00
1.00146270e+00
1.00148771e+00
1.00151281e+00
1.00153801e+00
1.00156331e+00
1.00158871e+00
1.00161419e+00
1.00163974e+00
1.00166528e+00
1.00169076e+00
1.00171602e+00
1.00174088e+00
1.00176507e+00
1.00178819e+00
1.00180973e+00
1.00182905e+00
1.00184531e+00
1.00185755e+00
1.00186466e+00
1.00186541e+00
1.00185856e+00
1.00184293e+00
1.00181753e+00
1.00178172e+00
1.00173529e+00
1.00167853e+00
1.00161246e+00
1.00153886e+00
1.00145973e+00
1.00137734e+00
1.00129514e+00
1.00121613e+00
1.00114159e+00
1.00107445e+00
1.00101778e+00
1.00097058e+00
1.00093384e+00
1.00090968e+00
1.00089608e+00
9.99056193e-01
9.99046483e-01
9.99029502e-01
9.99004214e-01
9.98969981e-01
9.98925633e-01
9.98872131e-01
9.98811144e-01
9.98743227e-01
9.98670761e-01
9.98597166e-01
9.98524971e-01
9.98456698e-01
9.98394989e-01
9.98341725e-01
9.98297977e-01
9.98264274e-01
9.98240572e-01
9.98226284e-01
9.98220468e-01
9.98221988e-01
9.98229622e-01
9.98242165e-01
9.98258505e-01
9.98277669e-01
9.98298846e-01
9.98321380e-01
9.98344768e-01
9.98368636e-01
9.98392715e-01
9.98416825e-01
9.98440849e-01
9.98464717e-01
9.98488393e-01
9.98511863e-01
9.98535128e-01
9.98558195e-01
9.98581079e-01
9.98603796e-01
9.98626362e-01
9.98648794e-01
9.98671107e-01
9.98693316e-01
9.98715436e-01
9.98737479e-01
9.98759455e-01
9.98781378e-01
9.98803255e-01
9.98825096e-01
9.98846909e-01
9.98868702e-01
9.98890482e-01
9.98912254e-01
9.98934023e-01
9.98955796e-01
9.98977575e-01
9.98999364e-01
9.99021165e-01
9.99042980e-01
9.99064810e-01
9.99086654e-01
9.99108510e-01
9.99130374e-01
9.99152243e-01
9.99174112e-01
9.99195975e-01
9.99217828e-01
9.99239665e-01
9.99261486e-01
9.99283292e-01
9.99305090e-01
9.99326888e-01
9.99348705e-01
9.99370558e-01
9.99392472e-01
9.99414471e-01
9.99436579e-01
9.99458817e-01
9.99481197e-01
9.99503728e-01
9.99526409e-01
9.99549228e-01
9.99572172e-01
9.99595217e-01
9.99618340e-01
9.99641519e-01
9.99664734e-01
9.99687969e-01
9.99711214e-01
9.99734464e-01
9.99757722e-01
9.99780990e-01
9.99804276e-01
9.99827586e-01
9.99850927e-01
9.99874304e-01
9.99897721e-01
9.99921177e-01
9.99944673e-01
9.99968206e-01
9.99991774e-01
1.00001537e+00
1.00003901e+00
1.00006267e+00
1.00008636e+00
1.00011009e+00
1.00013386e+00
1.00015768e+00
1.00018156e+00
1.00020549e+00
1.00022949e+00
1.00025355e+00
1.00027765e+00
1.00030180e+00
1.00032597e+00
1.00035014e+00
1.00037428e+00
1.00039838e+00
1.00042242e+00
1.00044638e+00
1.00047025e+00
1.00049404e+00
1.00051776e+00
1.00054143e+00
1.00056506e+00
1.00058868e+00
1.00061230e+00
1.00063596e+00
1.00065967e+00
1.00068343e+00
1.00070727e+00
1.00073117e+00
1.00075514e+00
1.00077918e+00
1.00080327e+00
1.00082742e+00
1.00085161e+00
1.00087583e+00
1.00090009e+00
1.00092438e+00
1.00094868e+00
1.00097301e+00
1.00099736e+00
1.00102172e+00
1.00104610e+00
1.00107049e+00
1.00109490e+00
1.00111933e+00
1.00114378e+00
1.00116825e+00
1.00119274e+00
1.00121726e+00
1.00124180e+00
1.00126638e+00
1.00129099e+00
1.00131564e+00
1.00134034e+00
1.00136508e+00
1.00138989e+00
1.00141476e+00
1.00143969e+00
1.00146471e+00
1.00148981e+00
1.00151501e+00
1.00154030e+00
1.00156570e+00
1.00159119e+00
1.00161675e+00
1.00164235e+00
1.00166793e+00
1.00169338e+00
1.00171856e+00
1.00174323e+00
1.00176707e+00
1.00178966e+00
1.00181044e+00
1.00182867e+00
1.00184349e+00
1.00185388e+00
1.00185868e+00
1.00185671e+00
1.00184676e+00
1.00182780e+00
1.00179903e+00
1.00176004e+00