# vtk DataFile Version 2.0
LBM Flow Field - Timestep 700
ASCII
DATASET STRUCTURED_POINTS
DIMENSIONS 200 100 1
ORIGIN 0.0 0.0 0.0
SPACING 1.0 1.0 1.0
POINT_DATA 20000
SCALARS density double 1
LOOKUP_TABLE default
1.00489337e+00
1.00486980e+00
1.00483167e+00
1.00478326e+00
1.00471928e+00
1.00464181e+00
1.00455285e+00
1.00445410e+00
1.00434754e+00
1.00423533e+00
1.00411955e+00
1.00400235e+00
1.00388578e+00
1.00377169e+00
1.00366171e+00
1.00355719e+00
1.00345912e+00
1.00336814e+00
1.00328456e+00
1.00320833e+00
1.00313915e+00
1.00307649e+00
1.00301965e+00
1.00296785e+00
1.00292028e+00
1.00287615e+00
1.00283473e+00
1.00279539e+00
1.00275760e+00
1.00272093e+00
1.00268507e+00
1.00264978e+00
1.00261488e+00
1.00258026e+00
1.00254583e+00
1.00251151e+00
1.00247725e+00
1.00244296e+00
1.00240856e+00
1.00237393e+00
1.00233893e+00
1.00230341e+00
1.00226718e+00
1.00223002e+00
1.00219171e+00
1.00215200e+00
1.00211061e+00
1.00206730e+00
1.00202178e+00
1.00197380e+00
1.00192312e+00
1.00186954e+00
1.00181288e+00
1.00175303e+00
1.00168992e+00
1.00162358e+00
1.00155407e+00
1.00148158e+00
1.00140633e+00
1.00132867e+00
1.00124899e+00
1.00116776e+00
1.00108551e+00
1.00100282e+00
1.00092028e+00
1.00083851e+00
1.00075814e+00
1.00067977e+00
1.00060395e+00
1.00053122e+00
1.00046203e+00
1.00039677e+00
1.00033577e+00
1.00027925e+00
1.00022739e+00
1.00018026e+00
1.00013787e+00
1.00010016e+00
1.00006700e+00
1.00003823e+00
1.00001361e+00
9.99992903e-01
9.99975830e-01
9.99962100e-01
9.99951415e-01
9.99943477e-01
9.99937994e-01
9.99934687e-01
9.99933290e-01
9.99933555e-01
9.99935253e-01
9.99938175e-01
9.99942130e-01
9.99946947e-01
9.99952469e-01
9.99958558e-01
9.99965085e-01
9.99971934e-01
9.99978994e-01
9.99986161e-01
9.99993332e-01
1.00000040e+00
1.00000727e+00
1.00001382e+00
1.00001992e+00
1.00002545e+00
1.00003026e+00
1.00003418e+00
1.00003704e+00
1.00003864e+00
1.00003877e+00
1.00003722e+00
1.00003373e+00
1.00002806e+00
1.00001997e+00
1.00000921e+00
9.99995516e-01
9.99978669e-01
9.99958448e-01
9.99934664e-01
9.99907158e-01
9.99875809e-01
9.99840539e-01
9.99801322e-01
9.99758181e-01
9.99711197e-01
9.99660508e-01
9.99606308e-01
9.99548849e-01
9.99488432e-01
9.99425409e-01
9.99360172e-01
9.99293149e-01
9.99224796e-01
9.99155587e-01
9.99086006e-01
9.99016540e-01
9.98947669e-01
9.98879854e-01
9.98813538e-01
9.98749127e-01
9.98686993e-01
9.98627460e-01
9.98570802e-01
9.98517238e-01
9.98466923e-01
9.98419946e-01
9.98376328e-01
9.98336017e-01
9.98298885e-01
9.98264732e-01
9.98233284e-01
9.98204200e-01
9.98177072e-01
9.98151441e-01
9.98126798e-01
9.98102604e-01
9.98078301e-01
9.98053324e-01
9.98027125e-01
9.97999180e-01
9.97969008e-01
9.97936181e-01
9.97900336e-01
9.97861172e-01
9.97818458e-01
9.97772022e-01
9.97721741e-01
9.97667527e-01
9.97609308e-01
9.97547011e-01
9.97480546e-01
9.97409790e-01
9.97334589e-01
9.97254762e-01
9.97170120e-01
9.97080495e-01
9.96985779e-01
9.96885972e-01
9.96781226e-01
9.96671887e-01
9.96558522e-01
9.96441934e-01
9.96323159e-01
9.96203428e-01
9.96084119e-01
9.95966702e-01
9.95852681e-01
9.95743473e-01
9.95640356e-01
9.95544485e-01
9.95456831e-01
9.95377967e-01
9.95308373e-01
9.95248638e-01
9.95198944e-01
9.95158844e-01
9.95128959e-01
9.95108942e-01
9.95097711e-01
1.00487480e+00
1.00485539e+00
1.00481858e+00
1.00476959e+00
1.00470605e+00
1.00462970e+00
1.00454179e+00
1.00444430e+00
1.00433914e+00
1.00422842e+00
1.00411419e+00
1.00399858e+00
1.00388356e+00
1.00377094e+00
1.00366231e+00
1.00355895e+00
1.00346182e+00
1.00337155e+00
1.00328842e+00
1.00321242e+00
1.00314325e+00
1.00308042e+00
1.00302327e+00
1.00297108e+00
1.00292305e+00
1.00287846e+00
1.00283659e+00
1.00279683e+00
1.00275867e+00
1.00272168e+00
1.00268554e+00
1.00265001e+00
1.00261491e+00
1.00258010e+00
1.00254548e+00
1.00251099e+00
1.00247653e+00
1.00244202e+00
1.00240737e+00
1.00237247e+00
1.00233717e+00
1.00230132e+00
1.00226472e+00
1.00222718e+00
1.00218847e+00
1.00214836e+00
1.00210658e+00
1.00206289e+00
1.00201703e+00
1.00196878e+00
1.00191790e+00
1.00186421e+00
1.00180756e+00
1.00174783e+00
1.00168500e+00
1.00161906e+00
1.00155011e+00
1.00147832e+00
1.00140391e+00
1.00132720e+00
1.00124858e+00
1.00116848e+00
1.00108740e+00
1.00100590e+00
1.00092454e+00
1.00084392e+00
1.00076462e+00
1.00068721e+00
1.00061224e+00
1.00054022e+00
1.00047159e+00
1.00040674e+00
1.00034599e+00
1.00028958e+00
1.00023767e+00
1.00019036e+00
1.00014767e+00
1.00010957e+00
1.00007593e+00
1.00004661e+00
1.00002141e+00
1.00000008e+00
9.99982384e-01
9.99968029e-01
9.99956733e-01
9.99948208e-01
9.99942170e-01
9.99938343e-01
9.99936466e-01
9.99936293e-01
9.99937593e-01
9.99940157e-01
9.99943791e-01
9.99948320e-01
9.99953585e-01
9.99959441e-01
9.99965756e-01
9.99972407e-01
9.99979280e-01
9.99986265e-01
9.99993254e-01
1.00000014e+00
1.00000680e+00
1.00001313e+00
1.00001900e+00
1.00002427e+00
1.00002879e+00
1.00003238e+00
1.00003489e+00
1.00003610e+00
1.00003580e+00
1.00003379e+00
1.00002981e+00
1.00002364e+00
1.00001503e+00
1.00000373e+00
9.99989509e-01
9.99972147e-01
9.99951440e-01
9.99927210e-01
9.99899312e-01
9.99867638e-01
9.99832123e-01
9.99792751e-01
9.99749556e-01
9.99702626e-01
9.99652103e-01
9.99598184e-01
9.99541117e-01
9.99481202e-01
9.99418782e-01
9.99354238e-01
9.99287987e-01
9.99220466e-01
9.99152135e-01
9.99083459e-01
9.99014904e-01
9.98946931e-01
9.98879983e-01
9.98814481e-01
9.98750816e-01
9.98689344e-01
9.98630374e-01
9.98574171e-01
9.98520943e-01
9.98470842e-01
9.98423954e-01
9.98380302e-01
9.98339836e-01
9.98302440e-01
9.98267922e-01
9.98236025e-01
9.98206422e-01
9.98178727e-01
9.98152497e-01
9.98127247e-01
9.98102457e-01
9.98077589e-01
9.98052098e-01
9.98025449e-01
9.97997130e-01
9.97966669e-01
9.97933641e-01
9.97897680e-01
9.97858482e-01
9.97815803e-01
9.97769458e-01
9.97719308e-01
9.97665247e-01
9.97607190e-01
9.97545050e-01
9.97478730e-01
9.97408108e-01
9.97333039e-01
9.97253356e-01
9.97168893e-01
9.97079508e-01
9.96985121e-01
9.96885753e-01
9.96781572e-01
9.96672928e-01
9.96560381e-01
9.96444709e-01
9.96326911e-01
9.96208171e-01
9.96089826e-01
9.95973294e-01
9.95860026e-01
9.95751409e-01
9.95648741e-01
9.95553140e-01
9.95465569e-01
9.95386696e-01
9.95317107e-01
9.95257163e-01
9.95207160e-01
9.95166855e-01
9.95136574e-01
9.95115859e-01
9.95104772e-01
1.00485555e+00
1.00483848e+00
1.00480666e+00
1.00475687e+00
1.00469341e+00
1.00461785e+00
1.00453091e+00
1.00443450e+00
1.00433051e+00
1.00422101e+00
1.00410814e+00
1.00399394e+00
1.00388031e+00
1.00376904e+00
1.00366166e+00
1.00355940e+00
1.00346319e+00
1.00337363e+00
1.00329100e+00
1.00321527e+00
1.00314617e+00
1.00308324e+00
1.00302585e+00
1.00297331e+00
1.00292487e+00
1.00287983e+00
1.00283751e+00
1.00279732e+00
1.00275876e+00
1.00272141e+00
1.00268494e+00
1.00264911e+00
1.00261372e+00
1.00257863e+00
1.00254374e+00
1.00250895e+00
1.00247417e+00
1.00243931e+00
1.00240427e+00
1.00236893e+00
1.00233315e+00
1.00229676e+00
1.00225959e+00
1.00222144e+00
1.00218209e+00
1.00214133e+00
1.00209891e+00
1.00205462e+00
1.00200823e+00
1.00195952e+00
1.00190830e+00
1.00185442e+00
1.00179774e+00
1.00173819e+00
1.00167573e+00
1.00161040e+00
1.00154228e+00
1.00147153e+00
1.00139839e+00
1.00132313e+00
1.00124611e+00
1.00116774e+00
1.00108848e+00
1.00100883e+00
1.00092931e+00
1.00085047e+00
1.00077285e+00
1.00069700e+00
1.00062340e+00
1.00055255e+00
1.00048488e+00
1.00042075e+00
1.00036048e+00
1.00030431e+00
1.00025243e+00
1.00020495e+00
1.00016190e+00
1.00012328e+00
1.00008899e+00
1.00005891e+00
1.00003288e+00
1.00001068e+00
9.99992067e-01
9.99976801e-01
9.99964607e-01
9.99955214e-01
9.99948350e-01
9.99943748e-01
9.99941152e-01
9.99940319e-01
9.99941020e-01
9.99943043e-01
9.99946192e-01
9.99950287e-01
9.99955163e-01
9.99960669e-01
9.99966665e-01
9.99973021e-01
9.99979614e-01
9.99986327e-01
9.99993044e-01
9.99999646e-01
1.00000602e+00
1.00001203e+00
1.00001754e+00
1.00002242e+00
1.00002651e+00
1.00002963e+00
1.00003160e+00
1.00003224e+00
1.00003132e+00
1.00002863e+00
1.00002395e+00
1.00001703e+00
1.00000766e+00
9.99995587e-01
9.99980607e-01
9.99962509e-01
9.99941112e-01
9.99916256e-01
9.99887818e-01
9.99855709e-01
9.99819883e-01
9.99780340e-01
9.99737128e-01
9.99690346e-01
9.99640141e-01
9.99586713e-01
9.99530308e-01
9.99471217e-01
9.99409770e-01
9.99346333e-01
9.99281301e-01
9.99215088e-01
9.99148126e-01
9.99080850e-01
9.99013699e-01
9.98947101e-01
9.98881471e-01
9.98817201e-01
9.98754658e-01
9.98694174e-01
9.98636040e-01
9.98580506e-01
9.98527771e-01
9.98477979e-01
9.98431218e-01
9.98387515e-01
9.98346831e-01
9.98309063e-01
9.98274040e-01
9.98241524e-01
9.98211216e-01
9.98182755e-01
9.98155730e-01
9.98129681e-01
9.98104118e-01
9.98078527e-01
9.98052385e-01
9.98025176e-01
9.97996401e-01
9.97965595e-01
9.97932337e-01
9.97896256e-01
9.97857039e-01
9.97814429e-01
9.97768225e-01
9.97718269e-01
9.97664436e-01
9.97606622e-01
9.97544728e-01
9.97478648e-01
9.97408258e-01
9.97333418e-01
9.97253973e-01
9.97169773e-01
9.97080697e-01
9.96986683e-01
9.96887771e-01
9.96784136e-01
9.96676128e-01
9.96564295e-01
9.96449396e-01
9.96332395e-01
9.96214439e-01
9.96096829e-01
9.95980947e-01
9.95868193e-01
9.95759953e-01
9.95657537e-01
9.95562031e-01
9.95474351e-01
9.95395364e-01
9.95325693e-01
9.95265450e-01
9.95214900e-01
9.95174444e-01
9.95143785e-01
9.95122932e-01
9.95111704e-01
1.00484323e+00
1.00482606e+00
1.00479214e+00
1.00474289e+00
1.00468089e+00
1.00460609e+00
1.00452004e+00
1.00442475e+00
1.00432206e+00
1.00421397e+00
1.00410255e+00
1.00398977e+00
1.00387755e+00
1.00376760e+00
1.00366139e+00
1.00356012e+00
1.00346469e+00
1.00337567e+00
1.00329335e+00
1.00321771e+00
1.00314851e+00
1.00308531e+00
1.00302753e+00
1.00297452e+00
1.00292558e+00
1.00288001e+00
1.00283719e+00
1.00279652e+00
1.00275753e+00
1.00271978e+00
1.00268296e+00
1.00264680e+00
1.00261109e+00
1.00257569e+00
1.00254047e+00
1.00250531e+00
1.00247013e+00
1.00243482e+00
1.00239925e+00
1.00236332e+00
1.00232687e+00
1.00228974e+00
1.00225177e+00
1.00221276e+00
1.00217252e+00
1.00213084e+00
1.00208752e+00
1.00204237e+00
1.00199518e+00
1.00194580e+00
1.00189406e+00
1.00183985e+00
1.00178307e+00
1.00172368e+00
1.00166166e+00
1.00159707e+00
1.00153001e+00
1.00146063e+00
1.00138913e+00
1.00131578e+00
1.00124091e+00
1.00116486e+00
1.00108806e+00
1.00101093e+00
1.00093394e+00
1.00085758e+00
1.00078232e+00
1.00070865e+00
1.00063703e+00
1.00056789e+00
1.00050164e+00
1.00043862e+00
1.00037915e+00
1.00032347e+00
1.00027177e+00
1.00022418e+00
1.00018077e+00
1.00014155e+00
1.00010648e+00
1.00007547e+00
1.00004838e+00
1.00002504e+00
1.00000525e+00
9.99988779e-01
9.99975390e-01
9.99964832e-01
9.99956851e-01
9.99951195e-01
9.99947615e-01
9.99945876e-01
9.99945749e-01
9.99947022e-01
9.99949495e-01
9.99952983e-01
9.99957314e-01
9.99962327e-01
9.99967874e-01
9.99973814e-01
9.99980013e-01
9.99986343e-01
9.99992676e-01
9.99998884e-01
1.00000484e+00
1.00001040e+00
1.00001543e+00
1.00001977e+00
1.00002326e+00
1.00002572e+00
1.00002698e+00
1.00002683e+00
1.00002506e+00
1.00002147e+00
1.00001583e+00
1.00000793e+00
9.99997543e-01
9.99984464e-01
9.99968493e-01
9.99949450e-01
9.99927176e-01
9.99901543e-01
9.99872450e-01
9.99839837e-01
9.99803681e-01
9.99764004e-01
9.99720870e-01
9.99674389e-01
9.99624718e-01
9.99572055e-01
9.99516640e-01
9.99458753e-01
9.99398704e-01
9.99336837e-01
9.99273514e-01
9.99209119e-01
9.99144043e-01
9.99078687e-01
9.99013445e-01
9.98948709e-01
9.98884854e-01
9.98822236e-01
9.98761190e-01
9.98702019e-01
9.98644993e-01
9.98590342e-01
9.98538254e-01
9.98488869e-01
9.98442276e-01
9.98398509e-01
9.98357544e-01
9.98319295e-01
9.98283618e-01
9.98250303e-01
9.98219084e-01
9.98189634e-01
9.98161578e-01
9.98134494e-01
9.98107925e-01
9.98081390e-01
9.98054394e-01
9.98026444e-01
9.97997060e-01
9.97965786e-01
9.97932205e-01
9.97895943e-01
9.97856677e-01
9.97814134e-01
9.97768092e-01
9.97718368e-01
9.97664814e-01
9.97607302e-01
9.97545711e-01
9.97479919e-01
9.97409794e-01
9.97335195e-01
9.97255974e-01
9.97171996e-01
9.97083158e-01
9.96989422e-01
9.96890845e-01
9.96787620e-01
9.96680106e-01
9.96568847e-01
9.96454591e-01
9.96338280e-01
9.96221034e-01
9.96104107e-01
9.95988851e-01
9.95876648e-01
9.95768843e-01
9.95666696e-01
9.95571356e-01
9.95483770e-01
9.95404693e-01
9.95334730e-01
9.95274310e-01
9.95223614e-01
9.95182751e-01
9.95151399e-01
9.95129623e-01
9.95118165e-01
1.00482889e+00
1.00481061e+00
1.00477695e+00
1.00472924e+00
1.00466767e+00
1.00459348e+00
1.00450867e+00
1.00441471e+00
1.00431345e+00
1.00420692e+00
1.00409708e+00
1.00398590e+00
1.00387522e+00
1.00376668e+00
1.00366170e+00
1.00356143e+00
1.00346675e+00
1.00337821e+00
1.00329610e+00
1.00322042e+00
1.00315095e+00
1.00308732e+00
1.00302897e+00
1.00297531e+00
1.00292568e+00
1.00287943e+00
1.00283595e+00
1.00279469e+00
1.00275514e+00
1.00271691e+00
1.00267964e+00
1.00264306e+00
1.00260696e+00
1.00257116e+00
1.00253551e+00
1.00249988e+00
1.00246417e+00
1.00242826e+00
1.00239202e+00
1.00235531e+00
1.00231800e+00
1.00227992e+00
1.00224092e+00
1.00220081e+00
1.00215943e+00
1.00211660e+00
1.00207215e+00
1.00202591e+00
1.00197775e+00
1.00192753e+00
1.00187515e+00
1.00182054e+00
1.00176364e+00
1.00170445e+00
1.00164300e+00
1.00157934e+00
1.00151359e+00
1.00144589e+00
1.00137644e+00
1.00130548e+00
1.00123326e+00
1.00116011e+00
1.00108636e+00
1.00101238e+00
1.00093856e+00
1.00086531e+00
1.00079303e+00
1.00072215e+00
1.00065304e+00
1.00058612e+00
1.00052173e+00
1.00046020e+00
1.00040183e+00
1.00034686e+00
1.00029549e+00
1.00024788e+00
1.00020412e+00
1.00016426e+00
1.00012831e+00
1.00009621e+00
1.00006786e+00
1.00004316e+00
1.00002193e+00
1.00000398e+00
9.99989119e-01
9.99977113e-01
9.99967736e-01
9.99960753e-01
9.99955930e-01
9.99953037e-01
9.99951853e-01
9.99952163e-01
9.99953765e-01
9.99956467e-01
9.99960089e-01
9.99964459e-01
9.99969418e-01
9.99974811e-01
9.99980492e-01
9.99986319e-01
9.99992148e-01
9.99997840e-01
1.00000325e+00
1.00000823e+00
1.00001262e+00
1.00001627e+00
1.00001899e+00
1.00002062e+00
1.00002096e+00
1.00001981e+00
1.00001698e+00
1.00001226e+00
1.00000543e+00
9.99996305e-01
9.99984674e-01
9.99970356e-01
9.99953180e-01
9.99932995e-01
9.99909676e-01
9.99883125e-01
9.99853277e-01
9.99820101e-01
9.99783605e-01
9.99743834e-01
9.99700872e-01
9.99654845e-01
9.99605914e-01
9.99554276e-01
9.99500165e-01
9.99443842e-01
9.99385596e-01
9.99325736e-01
9.99264591e-01
9.99202501e-01
9.99139813e-01
9.99076878e-01
9.99014043e-01
9.98951649e-01
9.98890027e-01
9.98829488e-01
9.98770328e-01
9.98712815e-01
9.98657191e-01
9.98603665e-01
9.98552411e-01
9.98503563e-01
9.98457210e-01
9.98413395e-01
9.98372110e-01
9.98333294e-01
9.98296830e-01
9.98262545e-01
9.98230211e-01
9.98199545e-01
9.98170214e-01
9.98141842e-01
9.98114015e-01
9.98086291e-01
9.98058211e-01
9.98029311e-01
9.97999133e-01
9.97967236e-01
9.97933207e-01
9.97896669e-01
9.97857288e-01
9.97814772e-01
9.97768872e-01
9.97719379e-01
9.97666110e-01
9.97608908e-01
9.97547626e-01
9.97482121e-01
9.97412249e-01
9.97337864e-01
9.97258828e-01
9.97175020e-01
9.97086361e-01
9.96992838e-01
9.96894536e-01
9.96791670e-01
9.96684610e-01
9.96573904e-01
9.96460286e-01
9.96344680e-01
9.96228173e-01
9.96111978e-01
9.95997402e-01
9.95885801e-01
9.95778491e-01
9.95676684e-01
9.95581529e-01
9.95494036e-01
9.95414915e-01
9.95344718e-01
9.95284042e-01
9.95233078e-01
9.95191622e-01
9.95159897e-01
9.95138109e-01
9.95125991e-01
1.00481318e+00
1.00479513e+00
1.00476194e+00
1.00471447e+00
1.00465338e+00
1.00458039e+00
1.00449688e+00
1.00440430e+00
1.00430460e+00
1.00419972e+00
1.00409162e+00
1.00398215e+00
1.00387309e+00
1.00376602e+00
1.00366230e+00
1.00356306e+00
1.00346910e+00
1.00338100e+00
1.00329902e+00
1.00322321e+00
1.00315337e+00
1.00308917e+00
1.00303013e+00
1.00297569e+00
1.00292524e+00
1.00287818e+00
1.00283393e+00
1.00279194e+00
1.00275173e+00
1.00271288e+00
1.00267506e+00
1.00263795e+00
1.00260133e+00
1.00256500e+00
1.00252879e+00
1.00249256e+00
1.00245618e+00
1.00241950e+00
1.00238240e+00
1.00234474e+00
1.00230637e+00
1.00226715e+00
1.00222691e+00
1.00218551e+00
1.00214280e+00
1.00209863e+00
1.00205287e+00
1.00200541e+00
1.00195615e+00
1.00190501e+00
1.00185195e+00
1.00179694e+00
1.00173997e+00
1.00168109e+00
1.00162034e+00
1.00155782e+00
1.00149364e+00
1.00142794e+00
1.00136090e+00
1.00129271e+00
1.00122360e+00
1.00115382e+00
1.00108363e+00
1.00101332e+00
1.00094320e+00
1.00087359e+00
1.00080482e+00
1.00073721e+00
1.00067111e+00
1.00060684e+00
1.00054471e+00
1.00048502e+00
1.00042805e+00
1.00037403e+00
1.00032317e+00
1.00027565e+00
1.00023160e+00
1.00019110e+00
1.00015421e+00
1.00012091e+00
1.00009117e+00
1.00006492e+00
1.00004204e+00
1.00002240e+00
1.00000581e+00
9.99992104e-01
9.99981073e-01
9.99972508e-01
9.99966192e-01
9.99961907e-01
9.99959436e-01
9.99958568e-01
9.99959098e-01
9.99960827e-01
9.99963565e-01
9.99967131e-01
9.99971349e-01
9.99976053e-01
9.99981079e-01
9.99986268e-01
9.99991461e-01
9.99996501e-01
1.00000123e+00
1.00000548e+00
1.00000908e+00
1.00001187e+00
1.00001366e+00
1.00001426e+00
1.00001349e+00
1.00001115e+00
1.00000704e+00
1.00000096e+00
9.99992730e-01
9.99982157e-01
9.99969072e-01
9.99953316e-01
9.99934750e-01
9.99913261e-01
9.99888760e-01
9.99861187e-01
9.99830514e-01
9.99796747e-01
9.99759925e-01
9.99720120e-01
9.99677438e-01
9.99632018e-01
9.99584028e-01
9.99533663e-01
9.99481144e-01
9.99426712e-01
9.99370628e-01
9.99313165e-01
9.99254609e-01
9.99195251e-01
9.99135386e-01
9.99075310e-01
9.99015315e-01
9.98955686e-01
9.98896700e-01
9.98838620e-01
9.98781695e-01
9.98726155e-01
9.98672210e-01
9.98620043e-01
9.98569812e-01
9.98521642e-01
9.98475623e-01
9.98431807e-01
9.98390204e-01
9.98350777e-01
9.98313443e-01
9.98278067e-01
9.98244466e-01
9.98212405e-01
9.98181602e-01
9.98151731e-01
9.98122428e-01
9.98093298e-01
9.98063924e-01
9.98033875e-01
9.98002722e-01
9.97970039e-01
9.97935424e-01
9.97898496e-01
9.97858910e-01
9.97816353e-01
9.97770550e-01
9.97721257e-01
9.97668260e-01
9.97611364e-01
9.97550394e-01
9.97485181e-01
9.97415565e-01
9.97341396e-01
9.97262540e-01
9.97178892e-01
9.97090395e-01
9.96997063e-01
9.96899011e-01
9.96796475e-01
9.96689840e-01
9.96579662e-01
9.96466668e-01
9.96351756e-01
9.96235983e-01
9.96120533e-01
9.96006668e-01
9.95895684e-01
9.95788881e-01
9.95687487e-01
9.95592576e-01
9.95505114e-01
9.95425947e-01
9.95355681e-01
9.95294686e-01
9.95243256e-01
9.95201478e-01
9.95169438e-01
9.95147137e-01
9.95134633e-01
1.00479631e+00
1.00477837e+00
1.00474560e+00
1.00469862e+00
1.00463860e+00
1.00456679e+00
1.00448447e+00
1.00439342e+00
1.00429545e+00
1.00419236e+00
1.00408609e+00
1.00397843e+00
1.00387107e+00
1.00376553e+00
1.00366313e+00
1.00356490e+00
1.00347165e+00
1.00338393e+00
1.00330202e+00
1.00322598e+00
1.00315567e+00
1.00309079e+00
1.00303093e+00
1.00297558e+00
1.00292419e+00
1.00287619e+00
1.00283103e+00
1.00278819e+00
1.00274720e+00
1.00270763e+00
1.00266913e+00
1.00263138e+00
1.00259412e+00
1.00255713e+00
1.00252023e+00
1.00248324e+00
1.00244603e+00
1.00240842e+00
1.00237030e+00
1.00233151e+00
1.00229191e+00
1.00225136e+00
1.00220972e+00
1.00216687e+00
1.00212267e+00
1.00207704e+00
1.00202987e+00
1.00198111e+00
1.00193071e+00
1.00187865e+00
1.00182493e+00
1.00176958e+00
1.00171265e+00
1.00165421e+00
1.00159436e+00
1.00153318e+00
1.00147082e+00
1.00140740e+00
1.00134307e+00
1.00127800e+00
1.00121235e+00
1.00114631e+00
1.00108008e+00
1.00101385e+00
1.00094785e+00
1.00088231e+00
1.00081746e+00
1.00075356e+00
1.00069086e+00
1.00062962e+00
1.00057011e+00
1.00051259e+00
1.00045729e+00
1.00040446e+00
1.00035431e+00
1.00030703e+00
1.00026279e+00
1.00022170e+00
1.00018386e+00
1.00014933e+00
1.00011811e+00
1.00009019e+00
1.00006551e+00
1.00004397e+00
1.00002546e+00
1.00000984e+00
9.99996923e-01
9.99986542e-01
9.99978499e-01
9.99972590e-01
9.99968609e-01
9.99966347e-01
9.99965598e-01
9.99966159e-01
9.99967830e-01
9.99970417e-01
9.99973731e-01
9.99977587e-01
9.99981805e-01
9.99986207e-01
9.99990615e-01
9.99994854e-01
9.99998746e-01
1.00000211e+00
1.00000476e+00
1.00000652e+00
1.00000719e+00
1.00000659e+00
1.00000451e+00
1.00000077e+00
9.99995174e-01
9.99987544e-01
9.99977705e-01
9.99965495e-01
9.99950770e-01
9.99933406e-01
9.99913301e-01
9.99890381e-01
9.99864598e-01
9.99835934e-01
9.99804403e-01
9.99770046e-01
9.99732938e-01
9.99693178e-01
9.99650895e-01
9.99606240e-01
9.99559385e-01
9.99510521e-01
9.99459855e-01
9.99407604e-01
9.99353996e-01
9.99299265e-01
9.99243648e-01
9.99187384e-01
9.99130711e-01
9.99073864e-01
9.99017076e-01
9.98960571e-01
9.98904568e-01
9.98849278e-01
9.98794898e-01
9.98741618e-01
9.98689609e-01
9.98639029e-01
9.98590014e-01
9.98542679e-01
9.98497114e-01
9.98453378e-01
9.98411497e-01
9.98371461e-01
9.98333222e-01
9.98296685e-01
9.98261715e-01
9.98228130e-01
9.98195702e-01
9.98164162e-01
9.98133201e-01
9.98102477e-01
9.98071620e-01
9.98040241e-01
9.98007939e-01
9.97974315e-01
9.97938974e-01
9.97901538e-01
9.97861650e-01
9.97818977e-01
9.97773214e-01
9.97724084e-01
9.97671335e-01
9.97614734e-01
9.97554070e-01
9.97489146e-01
9.97419785e-01
9.97345827e-01
9.97267141e-01
9.97183637e-01
9.97095281e-01
9.97002117e-01
9.96904286e-01
9.96802052e-01
9.96695820e-01
9.96586151e-01
9.96473766e-01
9.96359548e-01
9.96244516e-01
9.96129818e-01
9.96016681e-01
9.95906356e-01
9.95800088e-01
9.95699097e-01
9.95604467e-01
9.95517116e-01
9.95437883e-01
9.95367467e-01
9.95306215e-01
9.95254404e-01
9.95212327e-01
9.95179995e-01
9.95157307e-01
9.95144552e-01
1.00477850e+00
1.00476077e+00
1.00472835e+00
1.00468207e+00
1.00462305e+00
1.00455239e+00
1.00447154e+00
1.00438216e+00
1.00428598e+00
1.00418481e+00
1.00408047e+00
1.00397470e+00
1.00386912e+00
1.00376517e+00
1.00366408e+00
1.00356687e+00
1.00347431e+00
1.00338692e+00
1.00330501e+00
1.00322865e+00
1.00315776e+00
1.00309209e+00
1.00303128e+00
1.00297490e+00
1.00292244e+00
1.00287337e+00
1.00282719e+00
1.00278338e+00
1.00274148e+00
1.00270106e+00
1.00266175e+00
1.00262322e+00
1.00258519e+00
1.00254740e+00
1.00250966e+00
1.00247177e+00
1.00243355e+00
1.00239487e+00
1.00235555e+00
1.00231547e+00
1.00227449e+00
1.00223247e+00
1.00218930e+00
1.00214488e+00
1.00209912e+00
1.00205196e+00
1.00200335e+00
1.00195329e+00
1.00190179e+00
1.00184887e+00
1.00179459e+00
1.00173904e+00
1.00168230e+00
1.00162449e+00
1.00156572e+00
1.00150612e+00
1.00144580e+00
1.00138491e+00
1.00132355e+00
1.00126186e+00
1.00119995e+00
1.00113793e+00
1.00107594e+00
1.00101409e+00
1.00095251e+00
1.00089134e+00
1.00083073e+00
1.00077085e+00
1.00071186e+00
1.00065398e+00
1.00059739e+00
1.00054231e+00
1.00048896e+00
1.00043757e+00
1.00038835e+00
1.00034149e+00
1.00029719e+00
1.00025562e+00
1.00021690e+00
1.00018115e+00
1.00014843e+00
1.00011878e+00
1.00009219e+00
1.00006864e+00
1.00004806e+00
1.00003033e+00
1.00001534e+00
1.00000294e+00
9.99992953e-01
9.99985203e-01
9.99979493e-01
9.99975623e-01
9.99973387e-01
9.99972577e-01
9.99972985e-01
9.99974406e-01
9.99976635e-01
9.99979469e-01
9.99982709e-01
9.99986157e-01
9.99989615e-01
9.99992886e-01
9.99995774e-01
9.99998079e-01
9.99999605e-01
1.00000015e+00
9.99999520e-01
9.99997513e-01
9.99993937e-01
9.99988605e-01
9.99981337e-01
9.99971965e-01
9.99960339e-01
9.99946323e-01
9.99929806e-01
9.99910700e-01
9.99888944e-01
9.99864506e-01
9.99837383e-01
9.99807601e-01
9.99775214e-01
9.99740305e-01
9.99702979e-01
9.99663366e-01
9.99621613e-01
9.99577883e-01
9.99532350e-01
9.99485199e-01
9.99436618e-01
9.99386798e-01
9.99335933e-01
9.99284211e-01
9.99231820e-01
9.99178942e-01
9.99125758e-01
9.99072438e-01
9.99019153e-01
9.98966065e-01
9.98913333e-01
9.98861110e-01
9.98809544e-01
9.98758776e-01
9.98708941e-01
9.98660165e-01
9.98612563e-01
9.98566235e-01
9.98521268e-01
9.98477726e-01
9.98435652e-01
9.98395061e-01
9.98355935e-01
9.98318226e-01
9.98281844e-01
9.98246661e-01
9.98212510e-01
9.98179181e-01
9.98146425e-01
9.98113956e-01
9.98081457e-01
9.98048585e-01
9.98014977e-01
9.97980259e-01
9.97944052e-01
9.97905980e-01
9.97865678e-01
9.97822794e-01
9.97776995e-01
9.97727968e-01
9.97675419e-01
9.97619079e-01
9.97558696e-01
9.97494044e-01
9.97424922e-01
9.97351161e-01
9.97272630e-01
9.97189252e-01
9.97101016e-01
9.97007994e-01
9.96910357e-01
9.96808399e-01
9.96702545e-01
9.96593363e-01
9.96481571e-01
9.96368035e-01
9.96253750e-01
9.96139814e-01
9.96027410e-01
9.95917767e-01
9.95812086e-01
9.95711514e-01
9.95617156e-01
9.95529980e-01
9.95450743e-01
9.95380109e-01
9.95318632e-01
9.95266599e-01
9.95224132e-01
9.95191389e-01
9.95168507e-01
9.95155635e-01
1.00475962e+00
1.00474202e+00
1.00471013e+00
1.00466467e+00
1.00460666e+00
1.00453732e+00
1.00445807e+00
1.00437044e+00
1.00427617e+00
1.00417702e+00
1.00407472e+00
1.00397093e+00
1.00386719e+00
1.00376486e+00
1.00366512e+00
1.00356894e+00
1.00347703e+00
1.00338993e+00
1.00330794e+00
1.00323118e+00
1.00315961e+00
1.00309304e+00
1.00303117e+00
1.00297362e+00
1.00291996e+00
1.00286969e+00
1.00282234e+00
1.00277742e+00
1.00273447e+00
1.00269306e+00
1.00265280e+00
1.00261334e+00
1.00257438e+00
1.00253564e+00
1.00249689e+00
1.00245793e+00
1.00241856e+00
1.00237863e+00
1.00233797e+00
1.00229646e+00
1.00225396e+00
1.00221036e+00
1.00216558e+00
1.00211954e+00
1.00207219e+00
1.00202351e+00
1.00197352e+00
1.00192225e+00
1.00186975e+00
1.00181612e+00
1.00176146e+00
1.00170589e+00
1.00164955e+00
1.00159259e+00
1.00153513e+00
1.00147732e+00
1.00141928e+00
1.00136112e+00
1.00130294e+00
1.00124482e+00
1.00118683e+00
1.00112902e+00
1.00107145e+00
1.00101416e+00
1.00095718e+00
1.00090058e+00
1.00084441e+00
1.00078875e+00
1.00073371e+00
1.00067940e+00
1.00062598e+00
1.00057360e+00
1.00052245e+00
1.00047274e+00
1.00042467e+00
1.00037844e+00
1.00033428e+00
1.00029237e+00
1.00025289e+00
1.00021600e+00
1.00018183e+00
1.00015045e+00
1.00012194e+00
1.00009630e+00
1.00007353e+00
1.00005358e+00
1.00003636e+00
1.00002176e+00
1.00000964e+00
9.99999853e-01
9.99992209e-01
9.99986520e-01
9.99982586e-01
9.99980197e-01
9.99979138e-01
9.99979192e-01
9.99980139e-01
9.99981760e-01
9.99983834e-01
9.99986142e-01
9.99988464e-01
9.99990583e-01
9.99992282e-01
9.99993342e-01
9.99993551e-01
9.99992696e-01
9.99990569e-01
9.99986970e-01
9.99981706e-01
9.99974597e-01
9.99965476e-01
9.99954194e-01
9.99940625e-01
9.99924664e-01
9.99906236e-01
9.99885292e-01
9.99861814e-01
9.99835815e-01
9.99807337e-01
9.99776450e-01
9.99743250e-01
9.99707858e-01
9.99670412e-01
9.99631066e-01
9.99589986e-01
9.99547342e-01
9.99503310e-01
9.99458061e-01
9.99411766e-01
9.99364587e-01
9.99316678e-01
9.99268184e-01
9.99219241e-01
9.99169974e-01
9.99120503e-01
9.99070937e-01
9.99021381e-01
9.98971937e-01
9.98922702e-01
9.98873772e-01
9.98825242e-01
9.98777208e-01
9.98729763e-01
9.98682999e-01
9.98637006e-01
9.98591870e-01
9.98547668e-01
9.98504469e-01
9.98462328e-01
9.98421280e-01
9.98381342e-01
9.98342503e-01
9.98304724e-01
9.98267931e-01
9.98232014e-01
9.98196828e-01
9.98162184e-01
9.98127860e-01
9.98093593e-01
9.98059092e-01
9.98024035e-01
9.97988079e-01
9.97950864e-01
9.97912021e-01
9.97871180e-01
9.97827973e-01
9.97782037e-01
9.97733026e-01
9.97680606e-01
9.97624465e-01
9.97564313e-01
9.97499892e-01
9.97430974e-01
9.97357379e-01
9.97278975e-01
9.97195698e-01
9.97107558e-01
9.97014654e-01
9.96917191e-01
9.96815489e-01
9.96709994e-01
9.96601288e-01
9.96490083e-01
9.96377227e-01
9.96263689e-01
9.96150532e-01
9.96038886e-01
9.95929931e-01
9.95824848e-01
9.95724755e-01
9.95630700e-01
9.95543662e-01
9.95464452e-01
9.95393701e-01
9.95331978e-01
9.95279675e-01
9.95236906e-01
9.95203850e-01
9.95180747e-01
9.95167666e-01
1.00473975e+00
1.00472239e+00
1.00469100e+00
1.00464639e+00
1.00458953e+00
1.00452161e+00
1.00444401e+00
1.00435826e+00
1.00426602e+00
1.00416897e+00
1.00406880e+00
1.00396706e+00
1.00386522e+00
1.00376456e+00
1.00366619e+00
1.00357101e+00
1.00347974e+00
1.00339288e+00
1.00331075e+00
1.00323351e+00
1.00316116e+00
1.00309358e+00
1.00303053e+00
1.00297169e+00
1.00291669e+00
1.00286508e+00
1.00281641e+00
1.00277023e+00
1.00272608e+00
1.00268351e+00
1.00264214e+00
1.00260158e+00
1.00256152e+00
1.00252166e+00
1.00248174e+00
1.00244154e+00
1.00240086e+00
1.00235953e+00
1.00231740e+00
1.00227433e+00
1.00223023e+00
1.00218499e+00
1.00213856e+00
1.00209090e+00
1.00204201e+00
1.00199191e+00
1.00194065e+00
1.00188831e+00
1.00183501e+00
1.00178088e+00
1.00172607e+00
1.00167074e+00
1.00161506e+00
1.00155919e+00
1.00150329e+00
1.00144749e+00
1.00139192e+00
1.00133667e+00
1.00128181e+00
1.00122739e+00
1.00117342e+00
1.00111991e+00
1.00106683e+00
1.00101416e+00
1.00096186e+00
1.00090990e+00
1.00085826e+00
1.00080695e+00
1.00075598e+00
1.00070542e+00
1.00065534e+00
1.00060586e+00
1.00055713e+00
1.00050933e+00
1.00046264e+00
1.00041728e+00
1.00037347e+00
1.00033143e+00
1.00029137e+00
1.00025349e+00
1.00021796e+00
1.00018493e+00
1.00015452e+00
1.00012679e+00
1.00010180e+00
1.00007955e+00
1.00005999e+00
1.00004305e+00
1.00002865e+00
1.00001664e+00
1.00000687e+00
9.99999159e-01
9.99993319e-01
9.99989139e-01
9.99986400e-01
9.99984874e-01
9.99984329e-01
9.99984526e-01
9.99985226e-01
9.99986188e-01
9.99987171e-01
9.99987935e-01
9.99988241e-01
9.99987854e-01
9.99986544e-01
9.99984087e-01
9.99980269e-01
9.99974886e-01
9.99967749e-01
9.99958687e-01
9.99947550e-01
9.99934211e-01
9.99918571e-01
9.99900559e-01
9.99880138e-01
9.99857300e-01
9.99832073e-01
9.99804513e-01
9.99774708e-01
9.99742772e-01
9.99708841e-01
9.99673071e-01
9.99635629e-01
9.99596691e-01
9.99556436e-01
9.99515040e-01
9.99472675e-01
9.99429499e-01
9.99385659e-01
9.99341287e-01
9.99296498e-01
9.99251392e-01
9.99206052e-01
9.99160549e-01
9.99114942e-01
9.99069280e-01
9.99023608e-01
9.98977965e-01
9.98932389e-01
9.98886921e-01
9.98841603e-01
9.98796483e-01
9.98751614e-01
9.98707053e-01
9.98662862e-01
9.98619107e-01
9.98575856e-01
9.98533176e-01
9.98491129e-01
9.98449771e-01
9.98409146e-01
9.98369279e-01
9.98330177e-01
9.98291820e-01
9.98254156e-01
9.98217101e-01
9.98180532e-01
9.98144289e-01
9.98108169e-01
9.98071934e-01
9.98035308e-01
9.97997983e-01
9.97959624e-01
9.97919874e-01
9.97878359e-01
9.97834699e-01
9.97788507e-01
9.97739402e-01
9.97687013e-01
9.97630987e-01
9.97570993e-01
9.97506740e-01
9.97437974e-01
9.97364501e-01
9.97286188e-01
9.97202980e-01
9.97114906e-01
9.97022096e-01
9.96924785e-01
9.96823319e-01
9.96718168e-01
9.96609923e-01
9.96499299e-01
9.96387124e-01
9.96274333e-01