# vtk DataFile Version 2.0
LBM Flow Field - Timestep 900
ASCII
DATASET STRUCTURED_POINTS
DIMENSIONS 200 100 1
ORIGIN 0.0 0.0 0.0
SPACING 1.0 1.0 1.0
POINT_DATA 20000
SCALARS density double 1
LOOKUP_TABLE default
9.93449784e-01
9.93446225e-01
9.93444848e-01
9.93468375e-01
9.93498734e-01
9.93530343e-01
9.93570005e-01
9.93617598e-01
9.93669467e-01
9.93725879e-01
9.93787603e-01
9.93853593e-01
9.93922860e-01
9.93995121e-01
9.94069820e-01
9.94146140e-01
9.94223379e-01
9.94300917e-01
9.94378080e-01
9.94454219e-01
9.94528761e-01
9.94601194e-01
9.94671069e-01
9.94738022e-01
9.94801774e-01
9.94862135e-01
9.94918998e-01
9.94972343e-01
9.95022222e-01
9.95068758e-01
9.95112132e-01
9.95152575e-01
9.95190351e-01
9.95225754e-01
9.95259093e-01
9.95290682e-01
9.95320834e-01
9.95349850e-01
9.95378017e-01
9.95405600e-01
9.95432843e-01
9.95459962e-01
9.95487148e-01
9.95514566e-01
9.95542355e-01
9.95570633e-01
9.95599496e-01
9.95629019e-01
9.95659264e-01
9.95690279e-01
9.95722098e-01
9.95754749e-01
9.95788252e-01
9.95822621e-01
9.95857868e-01
9.95894000e-01
9.95931023e-01
9.95968945e-01
9.96007769e-01
9.96047503e-01
9.96088154e-01
9.96129731e-01
9.96172244e-01
9.96215711e-01
9.96260150e-01
9.96305588e-01
9.96352060e-01
9.96399608e-01
9.96448291e-01
9.96498179e-01
9.96549363e-01
9.96601955e-01
9.96656094e-01
9.96711947e-01
9.96769718e-01
9.96829647e-01
9.96892016e-01
9.96957150e-01
9.97025420e-01
9.97097240e-01
9.97173066e-01
9.97253390e-01
9.97338730e-01
9.97429620e-01
9.97526597e-01
9.97630180e-01
9.97740860e-01
9.97859071e-01
9.97985177e-01
9.98119453e-01
9.98262062e-01
9.98413047e-01
9.98572315e-01
9.98739630e-01
9.98914611e-01
9.99096727e-01
9.99285303e-01
9.99479530e-01
9.99678467e-01
9.99881065e-01
1.00008618e+00
1.00029257e+00
1.00049897e+00
1.00070406e+00
1.00090653e+00
1.00110508e+00
1.00129846e+00
1.00148554e+00
1.00166527e+00
1.00183675e+00
1.00199927e+00
1.00215227e+00
1.00229543e+00
1.00242861e+00
1.00255186e+00
1.00266546e+00
1.00276982e+00
1.00286550e+00
1.00295320e+00
1.00303367e+00
1.00310770e+00
1.00317612e+00
1.00323972e+00
1.00329925e+00
1.00335539e+00
1.00340876e+00
1.00345989e+00
1.00350922e+00
1.00355710e+00
1.00360383e+00
1.00364961e+00
1.00369462e+00
1.00373895e+00
1.00378269e+00
1.00382588e+00
1.00386857e+00
1.00391077e+00
1.00395248e+00
1.00399373e+00
1.00403452e+00
1.00407485e+00
1.00411473e+00
1.00415416e+00
1.00419317e+00
1.00423175e+00
1.00426993e+00
1.00430771e+00
1.00434513e+00
1.00438220e+00
1.00441897e+00
1.00445547e+00
1.00449176e+00
1.00452790e+00
1.00456398e+00
1.00460008e+00
1.00463633e+00
1.00467283e+00
1.00470974e+00
1.00474720e+00
1.00478540e+00
1.00482451e+00
1.00486470e+00
1.00490618e+00
1.00494911e+00
1.00499366e+00
1.00503999e+00
1.00508822e+00
1.00513845e+00
1.00519071e+00
1.00524502e+00
1.00530131e+00
1.00535949e+00
1.00541939e+00
1.00548077e+00
1.00554337e+00
1.00560684e+00
1.00567081e+00
1.00573487e+00
1.00579859e+00
1.00586152e+00
1.00592321e+00
1.00598326e+00
1.00604126e+00
1.00609684e+00
1.00614967e+00
1.00619955e+00
1.00624625e+00
1.00628948e+00
1.00632925e+00
1.00636576e+00
1.00639865e+00
1.00642749e+00
1.00645336e+00
1.00647686e+00
1.00649535e+00
1.00650890e+00
1.00652349e+00
1.00653489e+00
1.00652785e+00
1.00652151e+00
9.93449965e-01
9.93458352e-01
9.93464894e-01
9.93485240e-01
9.93513690e-01
9.93546903e-01
9.93586327e-01
9.93632433e-01
9.93683819e-01
9.93740065e-01
9.93800967e-01
9.93866086e-01
9.93934717e-01
9.94006308e-01
9.94080230e-01
9.94155845e-01
9.94232459e-01
9.94309417e-01
9.94386064e-01
9.94461791e-01
9.94536021e-01
9.94608247e-01
9.94678024e-01
9.94744989e-01
9.94808858e-01
9.94869433e-01
9.94926598e-01
9.94980319e-01
9.95030637e-01
9.95077660e-01
9.95121553e-01
9.95162532e-01
9.95200850e-01
9.95236787e-01
9.95270641e-01
9.95302716e-01
9.95333318e-01
9.95362741e-01
9.95391270e-01
9.95419166e-01
9.95446672e-01
9.95474003e-01
9.95501352e-01
9.95528885e-01
9.95556745e-01
9.95585052e-01
9.95613902e-01
9.95643377e-01
9.95673541e-01
9.95704443e-01
9.95736121e-01
9.95768606e-01
9.95801920e-01
9.95836079e-01
9.95871096e-01
9.95906980e-01
9.95943741e-01
9.95981384e-01
9.96019918e-01
9.96059349e-01
9.96099687e-01
9.96140941e-01
9.96183126e-01
9.96226258e-01
9.96270358e-01
9.96315457e-01
9.96361589e-01
9.96408802e-01
9.96457156e-01
9.96506725e-01
9.96557605e-01
9.96609910e-01
9.96663785e-01
9.96719402e-01
9.96776969e-01
9.96836730e-01
9.96898973e-01
9.96964026e-01
9.97032264e-01
9.97104103e-01
9.97180000e-01
9.97260443e-01
9.97345947e-01
9.97437040e-01
9.97534249e-01
9.97638082e-01
9.97749015e-01
9.97867464e-01
9.97993777e-01
9.98128203e-01
9.98270888e-01
9.98421850e-01
9.98580977e-01
9.98748013e-01
9.98922560e-01
9.99104076e-01
9.99291880e-01
9.99485160e-01
9.99682984e-01
9.99884313e-01
1.00008802e+00
1.00029290e+00
1.00049772e+00
1.00070118e+00
1.00090202e+00
1.00109898e+00
1.00129086e+00
1.00147655e+00
1.00165504e+00
1.00182547e+00
1.00198713e+00
1.00213949e+00
1.00228221e+00
1.00241516e+00
1.00253838e+00
1.00265212e+00
1.00275675e+00
1.00285283e+00
1.00294100e+00
1.00302198e+00
1.00309655e+00
1.00316548e+00
1.00322955e+00
1.00328949e+00
1.00334598e+00
1.00339962e+00
1.00345093e+00
1.00350037e+00
1.00354828e+00
1.00359497e+00
1.00364066e+00
1.00368551e+00
1.00372966e+00
1.00377319e+00
1.00381615e+00
1.00385859e+00
1.00390054e+00
1.00394200e+00
1.00398300e+00
1.00402353e+00
1.00406361e+00
1.00410325e+00
1.00414246e+00
1.00418124e+00
1.00421962e+00
1.00425760e+00
1.00429521e+00
1.00433246e+00
1.00436940e+00
1.00440605e+00
1.00444246e+00
1.00447869e+00
1.00451480e+00
1.00455089e+00
1.00458703e+00
1.00462335e+00
1.00465997e+00
1.00469703e+00
1.00473469e+00
1.00477311e+00
1.00481247e+00
1.00485294e+00
1.00489471e+00
1.00493795e+00
1.00498281e+00
1.00502944e+00
1.00507795e+00
1.00512842e+00
1.00518089e+00
1.00523535e+00
1.00529174e+00
1.00534994e+00
1.00540979e+00
1.00547106e+00
1.00553346e+00
1.00559667e+00
1.00566031e+00
1.00572400e+00
1.00578730e+00
1.00584979e+00
1.00591104e+00
1.00597064e+00
1.00602821e+00
1.00608340e+00
1.00613591e+00
1.00618549e+00
1.00623191e+00
1.00627504e+00
1.00631478e+00
1.00635112e+00
1.00638390e+00
1.00641318e+00
1.00643925e+00
1.00646206e+00
1.00648083e+00
1.00649624e+00
1.00650988e+00
1.00651882e+00
1.00651895e+00
1.00652354e+00
9.93458735e-01
9.93475179e-01
9.93498260e-01
9.93513991e-01
9.93537444e-01
9.93573212e-01
9.93613614e-01
9.93657594e-01
9.93708047e-01
9.93764202e-01
9.93824298e-01
9.93888325e-01
9.93956172e-01
9.94026987e-01
9.94100038e-01
9.94174834e-01
9.94250736e-01
9.94327045e-01
9.94403134e-01
9.94478422e-01
9.94552344e-01
9.94624390e-01
9.94694124e-01
9.94761182e-01
9.94825273e-01
9.94886189e-01
9.94943803e-01
9.94998066e-01
9.95049001e-01
9.95096696e-01
9.95141301e-01
9.95183012e-01
9.95222063e-01
9.95258719e-01
9.95293263e-01
9.95325988e-01
9.95357188e-01
9.95387151e-01
9.95416153e-01
9.95444454e-01
9.95472293e-01
9.95499885e-01
9.95527424e-01
9.95555078e-01
9.95582990e-01
9.95611284e-01
9.95640062e-01
9.95669406e-01
9.95699384e-01
9.95730051e-01
9.95761447e-01
9.95793606e-01
9.95826553e-01
9.95860307e-01
9.95894884e-01
9.95930296e-01
9.95966555e-01
9.96003669e-01
9.96041649e-01
9.96080503e-01
9.96120244e-01
9.96160883e-01
9.96202437e-01
9.96244926e-01
9.96288375e-01
9.96332814e-01
9.96378283e-01
9.96424834e-01
9.96472529e-01
9.96521448e-01
9.96571688e-01
9.96623372e-01
9.96676646e-01
9.96731690e-01
9.96788715e-01
9.96847972e-01
9.96909753e-01
9.96974392e-01
9.97042267e-01
9.97113796e-01
9.97189439e-01
9.97269684e-01
9.97355045e-01
9.97446043e-01
9.97543200e-01
9.97647016e-01
9.97757950e-01
9.97876407e-01
9.98002714e-01
9.98137103e-01
9.98279695e-01
9.98430487e-01
9.98589343e-01
9.98755988e-01
9.98930003e-01
9.99110830e-01
9.99297780e-01
9.99490036e-01
9.99686669e-01
9.99886650e-01
1.00008887e+00
1.00029215e+00
1.00049528e+00
1.00069702e+00
1.00089612e+00
1.00109137e+00
1.00128162e+00
1.00146578e+00
1.00164289e+00
1.00181210e+00
1.00197273e+00
1.00212426e+00
1.00226635e+00
1.00239886e+00
1.00252183e+00
1.00263546e+00
1.00274013e+00
1.00283635e+00
1.00292473e+00
1.00300596e+00
1.00308079e+00
1.00314997e+00
1.00321425e+00
1.00327435e+00
1.00333092e+00
1.00338458e+00
1.00343582e+00
1.00348511e+00
1.00353281e+00
1.00357922e+00
1.00362458e+00
1.00366905e+00
1.00371278e+00
1.00375586e+00
1.00379836e+00
1.00384033e+00
1.00388179e+00
1.00392277e+00
1.00396328e+00
1.00400335e+00
1.00404297e+00
1.00408216e+00
1.00412093e+00
1.00415930e+00
1.00419729e+00
1.00423490e+00
1.00427217e+00
1.00430911e+00
1.00434577e+00
1.00438219e+00
1.00441840e+00
1.00445449e+00
1.00449050e+00
1.00452654e+00
1.00456270e+00
1.00459908e+00
1.00463583e+00
1.00467307e+00
1.00471096e+00
1.00474967e+00
1.00478936e+00
1.00483020e+00
1.00487237e+00
1.00491602e+00
1.00496130e+00
1.00500834e+00
1.00505725e+00
1.00510807e+00
1.00516085e+00
1.00521555e+00
1.00527211e+00
1.00533040e+00
1.00539024e+00
1.00545141e+00
1.00551362e+00
1.00557656e+00
1.00563985e+00
1.00570311e+00
1.00576594e+00
1.00582793e+00
1.00588867e+00
1.00594776e+00
1.00600483e+00
1.00605958e+00
1.00611171e+00
1.00616094e+00
1.00620707e+00
1.00625010e+00
1.00628980e+00
1.00632588e+00
1.00635868e+00
1.00638860e+00
1.00641456e+00
1.00643629e+00
1.00645653e+00
1.00647461e+00
1.00648441e+00
1.00649007e+00
1.00650522e+00
1.00651732e+00
9.93499564e-01
9.93512318e-01
9.93530125e-01
9.93550057e-01
9.93577285e-01
9.93610318e-01
9.93648929e-01
9.93693550e-01
9.93743648e-01
9.93798348e-01
9.93857550e-01
9.93920905e-01
9.93987733e-01
9.94057455e-01
9.94129575e-01
9.94203462e-01
9.94278465e-01
9.94353975e-01
9.94429396e-01
9.94504137e-01
9.94577653e-01
9.94649456e-01
9.94719112e-01
9.94786254e-01
9.94850590e-01
9.94911902e-01
9.94970048e-01
9.95024962e-01
9.95076645e-01
9.95125166e-01
9.95170649e-01
9.95213267e-01
9.95253233e-01
9.95290791e-01
9.95326203e-01
9.95359746e-01
9.95391701e-01
9.95422344e-01
9.95451943e-01
9.95480751e-01
9.95509004e-01
9.95536915e-01
9.95564678e-01
9.95592462e-01
9.95620414e-01
9.95648660e-01
9.95677306e-01
9.95706439e-01
9.95736131e-01
9.95766441e-01
9.95797415e-01
9.95829090e-01
9.95861496e-01
9.95894655e-01
9.95928588e-01
9.95963310e-01
9.95998836e-01
9.96035178e-01
9.96072350e-01
9.96110365e-01
9.96149238e-01
9.96188984e-01
9.96229624e-01
9.96271180e-01
9.96313682e-01
9.96357165e-01
9.96401674e-01
9.96447262e-01
9.96493998e-01
9.96541967e-01
9.96591271e-01
9.96642039e-01
9.96694422e-01
9.96748604e-01
9.96804805e-01
9.96863280e-01
9.96924326e-01
9.96988282e-01
9.97055530e-01
9.97126491e-01
9.97201624e-01
9.97281418e-01
9.97366384e-01
9.97457038e-01
9.97553894e-01
9.97657442e-01
9.97768129e-01
9.97886344e-01
9.98012397e-01
9.98146502e-01
9.98288759e-01
9.98439147e-01
9.98597508e-01
9.98763549e-01
9.98936835e-01
9.99116796e-01
9.99302733e-01
9.99493826e-01
9.99689148e-01
9.99887680e-01
1.00008833e+00
1.00028993e+00
1.00049131e+00
1.00069125e+00
1.00088854e+00
1.00108201e+00
1.00127054e+00
1.00145308e+00
1.00162869e+00
1.00179655e+00
1.00195601e+00
1.00210655e+00
1.00224784e+00
1.00237973e+00
1.00250224e+00
1.00261557e+00
1.00272006e+00
1.00281620e+00
1.00290457e+00
1.00298582e+00
1.00306068e+00
1.00312987e+00
1.00319413e+00
1.00325414e+00
1.00331056e+00
1.00336399e+00
1.00341493e+00
1.00346384e+00
1.00351108e+00
1.00355698e+00
1.00360176e+00
1.00364562e+00
1.00368871e+00
1.00373111e+00
1.00377292e+00
1.00381419e+00
1.00385495e+00
1.00389523e+00
1.00393506e+00
1.00397444e+00
1.00401340e+00
1.00405195e+00
1.00409010e+00
1.00412788e+00
1.00416529e+00
1.00420237e+00
1.00423915e+00
1.00427565e+00
1.00431191e+00
1.00434798e+00
1.00438391e+00
1.00441977e+00
1.00445563e+00
1.00449158e+00
1.00452773e+00
1.00456418e+00
1.00460107e+00
1.00463853e+00
1.00467671e+00
1.00471576e+00
1.00475586e+00
1.00479716e+00
1.00483982e+00
1.00488398e+00
1.00492978e+00
1.00497733e+00
1.00502670e+00
1.00507795e+00
1.00513108e+00
1.00518606e+00
1.00524280e+00
1.00530117e+00
1.00536098e+00
1.00542199e+00
1.00548394e+00
1.00554651e+00
1.00560935e+00
1.00567209e+00
1.00573434e+00
1.00579571e+00
1.00585582e+00
1.00591431e+00
1.00597083e+00
1.00602507e+00
1.00607675e+00
1.00612566e+00
1.00617158e+00
1.00621436e+00
1.00625395e+00
1.00629027e+00
1.00632316e+00
1.00635270e+00
1.00637917e+00
1.00640218e+00
1.00642161e+00
1.00643809e+00
1.00645171e+00
1.00646137e+00
1.00647177e+00
1.00648100e+00
9.93552066e-01
9.93562139e-01
9.93574851e-01
9.93598520e-01
9.93626821e-01
9.93657341e-01
9.93695448e-01
9.93740358e-01
9.93789323e-01
9.93842684e-01
9.93901074e-01
9.93963447e-01
9.94029013e-01
9.94097546e-01
9.94168556e-01
9.94241316e-01
9.94315245e-01
9.94389805e-01
9.94464401e-01
9.94538460e-01
9.94611467e-01
9.94682950e-01
9.94752478e-01
9.94819688e-01
9.94884284e-01
9.94946038e-01
9.95004790e-01
9.95060455e-01
9.95113010e-01
9.95162497e-01
9.95209013e-01
9.95252702e-01
9.95293749e-01
9.95332373e-01
9.95368814e-01
9.95403327e-01
9.95436176e-01
9.95467622e-01
9.95497923e-01
9.95527323e-01
9.95556053e-01
9.95584325e-01
9.95612332e-01
9.95640243e-01
9.95668210e-01
9.95696361e-01
9.95724809e-01
9.95753645e-01
9.95782947e-01
9.95812778e-01
9.95843192e-01
9.95874229e-01
9.95905925e-01
9.95938309e-01
9.95971404e-01
9.96005232e-01
9.96039811e-01
9.96075159e-01
9.96111293e-01
9.96148230e-01
9.96185989e-01
9.96224591e-01
9.96264061e-01
9.96304426e-01
9.96345719e-01
9.96387981e-01
9.96431262e-01
9.96475621e-01
9.96521132e-01
9.96567886e-01
9.96615990e-01
9.96665580e-01
9.96716813e-01
9.96769880e-01
9.96825006e-01
9.96882453e-01
9.96942524e-01
9.97005561e-01
9.97071952e-01
9.97142120e-01
9.97216525e-01
9.97295656e-01
9.97380020e-01
9.97470128e-01
9.97566486e-01
9.97669573e-01
9.97779824e-01
9.97897613e-01
9.98023232e-01
9.98156875e-01
9.98298624e-01
9.98448434e-01
9.98606128e-01
9.98771394e-01
9.98943779e-01
9.99122699e-01
9.99307446e-01
9.99497196e-01
9.99691023e-01
9.99887917e-01
1.00008680e+00
1.00028653e+00
1.00048595e+00
1.00068388e+00
1.00087916e+00
1.00107064e+00
1.00125724e+00
1.00143796e+00
1.00161188e+00
1.00177821e+00
1.00193632e+00
1.00208569e+00
1.00222602e+00
1.00235714e+00
1.00247905e+00
1.00259195e+00
1.00269613e+00
1.00279206e+00
1.00288028e+00
1.00296142e+00
1.00303617e+00
1.00310523e+00
1.00316931e+00
1.00322907e+00
1.00328517e+00
1.00333818e+00
1.00338862e+00
1.00343695e+00
1.00348354e+00
1.00352871e+00
1.00357271e+00
1.00361574e+00
1.00365796e+00
1.00369948e+00
1.00374038e+00
1.00378074e+00
1.00382059e+00
1.00385997e+00
1.00389891e+00
1.00393742e+00
1.00397553e+00
1.00401325e+00
1.00405060e+00
1.00408762e+00
1.00412431e+00
1.00416071e+00
1.00419685e+00
1.00423277e+00
1.00426851e+00
1.00430413e+00
1.00433969e+00
1.00437525e+00
1.00441090e+00
1.00444673e+00
1.00448285e+00
1.00451936e+00
1.00455640e+00
1.00459410e+00
1.00463261e+00
1.00467208e+00
1.00471265e+00
1.00475448e+00
1.00479771e+00
1.00484246e+00
1.00488886e+00
1.00493698e+00
1.00498690e+00
1.00503863e+00
1.00509215e+00
1.00514743e+00
1.00520434e+00
1.00526276e+00
1.00532248e+00
1.00538328e+00
1.00544488e+00
1.00550697e+00
1.00556923e+00
1.00563131e+00
1.00569284e+00
1.00575346e+00
1.00581282e+00
1.00587058e+00
1.00592644e+00
1.00598008e+00
1.00603124e+00
1.00607975e+00
1.00612543e+00
1.00616802e+00
1.00620745e+00
1.00624392e+00
1.00627711e+00
1.00630651e+00
1.00633300e+00
1.00635716e+00
1.00637696e+00
1.00639202e+00
1.00640713e+00
1.00642057e+00
1.00642701e+00
1.00643370e+00
9.93610282e-01
9.93621623e-01
9.93636825e-01
9.93657568e-01
9.93683283e-01
9.93715757e-01
9.93753981e-01
9.93796597e-01
9.93844422e-01
9.93897454e-01
9.93954604e-01
9.94015387e-01
9.94079719e-01
9.94147036e-01
9.94216647e-01
9.94288066e-01
9.94360799e-01
9.94434248e-01
9.94507850e-01
9.94581095e-01
9.94653487e-01
9.94724558e-01
9.94793892e-01
9.94861134e-01
9.94925979e-01
9.94988188e-01
9.95047587e-01
9.95104066e-01
9.95157576e-01
9.95208127e-01
9.95255786e-01
9.95300666e-01
9.95342919e-01
9.95382735e-01
9.95420325e-01
9.95455922e-01
9.95489768e-01
9.95522107e-01
9.95553184e-01
9.95583235e-01
9.95612482e-01
9.95641135e-01
9.95669386e-01
9.95697407e-01
9.95725351e-01
9.95753353e-01
9.95781529e-01
9.95809978e-01
9.95838784e-01
9.95868018e-01
9.95897737e-01
9.95927992e-01
9.95958823e-01
9.95990265e-01
9.96022347e-01
9.96055097e-01
9.96088538e-01
9.96122693e-01
9.96157585e-01
9.96193235e-01
9.96229668e-01
9.96266911e-01
9.96304991e-01
9.96343943e-01
9.96383804e-01
9.96424622e-01
9.96466450e-01
9.96509356e-01
9.96553418e-01
9.96598733e-01
9.96645417e-01
9.96693610e-01
9.96743477e-01
9.96795216e-01
9.96849058e-01
9.96905271e-01
9.96964164e-01
9.97026086e-01
9.97091426e-01
9.97160612e-01
9.97234104e-01
9.97312390e-01
9.97395972e-01
9.97485359e-01
9.97581047e-01
9.97683503e-01
9.97793150e-01
9.97910346e-01
9.98035363e-01
9.98168378e-01
9.98309449e-01
9.98458512e-01
9.98615370e-01
9.98779687e-01
9.98950996e-01
9.99128698e-01
9.99312074e-01
9.99500296e-01
9.99692440e-01
9.99887503e-01
1.00008442e+00
1.00028208e+00
1.00047934e+00
1.00067507e+00
1.00086812e+00
1.00105741e+00
1.00124188e+00
1.00142057e+00
1.00159260e+00
1.00175721e+00
1.00191377e+00
1.00206181e+00
1.00220101e+00
1.00233119e+00
1.00245236e+00
1.00256466e+00
1.00266840e+00
1.00276398e+00
1.00285193e+00
1.00293283e+00
1.00300734e+00
1.00307614e+00
1.00313990e+00
1.00319927e+00
1.00325490e+00
1.00330735e+00
1.00335714e+00
1.00340473e+00
1.00345050e+00
1.00349477e+00
1.00353782e+00
1.00357985e+00
1.00362102e+00
1.00366148e+00
1.00370131e+00
1.00374058e+00
1.00377935e+00
1.00381765e+00
1.00385553e+00
1.00389300e+00
1.00393009e+00
1.00396683e+00
1.00400323e+00
1.00403933e+00
1.00407516e+00
1.00411075e+00
1.00414613e+00
1.00418136e+00
1.00421648e+00
1.00425156e+00
1.00428666e+00
1.00432186e+00
1.00435724e+00
1.00439291e+00
1.00442897e+00
1.00446553e+00
1.00450273e+00
1.00454069e+00
1.00457955e+00
1.00461946e+00
1.00466055e+00
1.00470296e+00
1.00474680e+00
1.00479220e+00
1.00483924e+00
1.00488799e+00
1.00493847e+00
1.00499069e+00
1.00504462e+00
1.00510017e+00
1.00515723e+00
1.00521564e+00
1.00527521e+00
1.00533569e+00
1.00539683e+00
1.00545834e+00
1.00551989e+00
1.00558117e+00
1.00564184e+00
1.00570158e+00
1.00576006e+00
1.00581697e+00
1.00587203e+00
1.00592498e+00
1.00597559e+00
1.00602360e+00
1.00606890e+00
1.00611139e+00
1.00615082e+00
1.00618705e+00
1.00622033e+00
1.00625057e+00
1.00627718e+00
1.00630043e+00
1.00632127e+00
1.00633879e+00
1.00635233e+00
1.00636367e+00
1.00637254e+00
1.00638037e+00
9.93680900e-01
9.93691789e-01
9.93707757e-01
9.93726614e-01
9.93751845e-01
9.93784429e-01
9.93821169e-01
9.93862642e-01
9.93909881e-01
9.93961666e-01
9.94017198e-01
9.94076652e-01
9.94139634e-01
9.94205373e-01
9.94273428e-01
9.94343414e-01
9.94414762e-01
9.94486910e-01
9.94559378e-01
9.94631679e-01
9.94703326e-01
9.94773876e-01
9.94842935e-01
9.94910144e-01
9.94975196e-01
9.95037843e-01
9.95097890e-01
9.95155204e-01
9.95209706e-01
9.95261377e-01
9.95310244e-01
9.95356388e-01
9.95399925e-01
9.95441012e-01
9.95479829e-01
9.95516582e-01
9.95551489e-01
9.95584775e-01
9.95616670e-01
9.95647398e-01
9.95677174e-01
9.95706206e-01
9.95734681e-01
9.95762776e-01
9.95790647e-01
9.95818434e-01
9.95846259e-01
9.95874228e-01
9.95902434e-01
9.95930954e-01
9.95959854e-01
9.95989191e-01
9.96019014e-01
9.96049364e-01
9.96080278e-01
9.96111789e-01
9.96143927e-01
9.96176720e-01
9.96210198e-01
9.96244387e-01
9.96279318e-01
9.96315022e-01
9.96351534e-01
9.96388892e-01
9.96427141e-01
9.96466334e-01
9.96506530e-01
9.96547802e-01
9.96590236e-01
9.96633935e-01
9.96679022e-01
9.96725643e-01
9.96773971e-01
9.96824210e-01
9.96876599e-01
9.96931412e-01
9.96988963e-01
9.97049608e-01
9.97113738e-01
9.97181785e-01
9.97254209e-01
9.97331497e-01
9.97414148e-01
9.97502664e-01
9.97597532e-01
9.97699208e-01
9.97808102e-01
9.97924554e-01
9.98048820e-01
9.98181054e-01
9.98321294e-01
9.98469454e-01
9.98625315e-01
9.98788522e-01
9.98958589e-01
9.99134904e-01
9.99316736e-01
9.99503253e-01
9.99693533e-01
9.99886579e-01
1.00008134e+00
1.00027673e+00
1.00047164e+00
1.00066496e+00
1.00085559e+00
1.00104248e+00
1.00122462e+00
1.00140108e+00
1.00157103e+00
1.00173373e+00
1.00188857e+00
1.00203511e+00
1.00217301e+00
1.00230210e+00
1.00242238e+00
1.00253397e+00
1.00263713e+00
1.00273224e+00
1.00281979e+00
1.00290034e+00
1.00297450e+00
1.00304292e+00
1.00310624e+00
1.00316512e+00
1.00322015e+00
1.00327192e+00
1.00332093e+00
1.00336764e+00
1.00341245e+00
1.00345569e+00
1.00349764e+00
1.00353852e+00
1.00357851e+00
1.00361776e+00
1.00365636e+00
1.00369441e+00
1.00373195e+00
1.00376904e+00
1.00380572e+00
1.00384201e+00
1.00387796e+00
1.00391358e+00
1.00394890e+00
1.00398397e+00
1.00401881e+00
1.00405347e+00
1.00408799e+00
1.00412243e+00
1.00415684e+00
1.00419130e+00
1.00422587e+00
1.00426065e+00
1.00429572e+00
1.00433119e+00
1.00436716e+00
1.00440375e+00
1.00444110e+00
1.00447931e+00
1.00451854e+00
1.00455891e+00
1.00460053e+00
1.00464354e+00
1.00468803e+00
1.00473409e+00
1.00478178e+00
1.00483115e+00
1.00488219e+00
1.00493489e+00
1.00498917e+00
1.00504495e+00
1.00510209e+00
1.00516041e+00
1.00521972e+00
1.00527978e+00
1.00534034e+00
1.00540112e+00
1.00546182e+00
1.00552216e+00
1.00558183e+00
1.00564053e+00
1.00569799e+00
1.00575393e+00
1.00580809e+00
1.00586023e+00
1.00591017e+00
1.00595768e+00
1.00600255e+00
1.00604475e+00
1.00608418e+00
1.00612049e+00
1.00615366e+00
1.00618410e+00
1.00621139e+00
1.00623478e+00
1.00625537e+00
1.00627386e+00
1.00628773e+00
1.00629796e+00
1.00630772e+00
1.00631530e+00
9.93763496e-01
9.93772645e-01
9.93786391e-01
9.93805915e-01
9.93831421e-01
9.93861690e-01
9.93897305e-01
9.93938726e-01
9.93984576e-01
9.94034478e-01
9.94088764e-01
9.94146890e-01
9.94208083e-01
9.94272071e-01
9.94338541e-01
9.94406909e-01
9.94476653e-01
9.94547356e-01
9.94618552e-01
9.94689749e-01
9.94760508e-01
9.94830419e-01
9.94899092e-01
9.94966172e-01
9.95031354e-01
9.95094378e-01
9.95155031e-01
9.95213153e-01
9.95268637e-01
9.95321427e-01
9.95371517e-01
9.95418945e-01
9.95463794e-01
9.95506182e-01
9.95546257e-01
9.95584194e-01
9.95620185e-01
9.95654435e-01
9.95687156e-01
9.95718559e-01
9.95748852e-01
9.95778235e-01
9.95806899e-01
9.95835018e-01
9.95862755e-01
9.95890254e-01
9.95917645e-01
9.95945043e-01
9.95972546e-01
9.96000243e-01
9.96028209e-01
9.96056508e-01
9.96085198e-01
9.96114327e-01
9.96143941e-01
9.96174079e-01
9.96204778e-01
9.96236073e-01
9.96267999e-01
9.96300590e-01
9.96333880e-01
9.96367908e-01
9.96402714e-01
9.96438342e-01
9.96474843e-01
9.96512275e-01
9.96550704e-01
9.96590209e-01
9.96630882e-01
9.96672833e-01
9.96716192e-01
9.96761111e-01
9.96807772e-01
9.96856384e-01
9.96907193e-01
9.96960481e-01
9.97016566e-01
9.97075810e-01
9.97138607e-01
9.97205392e-01
9.97276626e-01
9.97352793e-01
9.97434389e-01
9.97521909e-01
9.97615831e-01
9.97716600e-01
9.97824610e-01
9.97940186e-01
9.98063564e-01
9.98194878e-01
9.98334145e-01
9.98481257e-01
9.98635972e-01
9.98797917e-01
9.98966588e-01
9.99141357e-01
9.99321484e-01
9.99506132e-01
9.99694379e-01
9.99885238e-01
1.00007767e+00
1.00027062e+00
1.00046300e+00
1.00065373e+00
1.00084175e+00
1.00102606e+00
1.00120569e+00
1.00137975e+00
1.00154744e+00
1.00170806e+00
1.00186103e+00
1.00200590e+00
1.00214235e+00
1.00227022e+00
1.00238948e+00
1.00250022e+00
1.00260268e+00
1.00269722e+00
1.00278427e+00
1.00286436e+00
1.00293807e+00
1.00300601e+00
1.00306880e+00
1.00312707e+00
1.00318141e+00
1.00323239e+00
1.00328052e+00
1.00332625e+00
1.00336999e+00
1.00341209e+00
1.00345283e+00
1.00349246e+00
1.00353116e+00
1.00356908e+00
1.00360635e+00
1.00364305e+00
1.00367926e+00
1.00371502e+00
1.00375040e+00
1.00378541e+00
1.00382010e+00
1.00385450e+00
1.00388865e+00
1.00392259e+00
1.00395636e+00
1.00399000e+00
1.00402358e+00
1.00405715e+00
1.00409078e+00
1.00412455e+00
1.00415854e+00
1.00419284e+00
1.00422756e+00
1.00426278e+00
1.00429864e+00
1.00433525e+00
1.00437272e+00
1.00441119e+00
1.00445077e+00
1.00449158e+00
1.00453374e+00
1.00457734e+00
1.00462246e+00
1.00466916e+00
1.00471748e+00
1.00476743e+00
1.00481898e+00
1.00487209e+00
1.00492666e+00
1.00498258e+00
1.00503968e+00
1.00509780e+00
1.00515673e+00
1.00521623e+00
1.00527605e+00
1.00533595e+00
1.00539565e+00
1.00545489e+00
1.00551340e+00
1.00557093e+00
1.00562722e+00
1.00568204e+00
1.00573519e+00
1.00578642e+00
1.00583555e+00
1.00588246e+00
1.00592695e+00
1.00596877e+00
1.00600792e+00
1.00604442e+00
1.00607787e+00
1.00610804e+00
1.00613544e+00
1.00615999e+00
1.00618070e+00
1.00619813e+00
1.00621298e+00
1.00622435e+00
1.00623251e+00
1.00623874e+00
9.93854057e-01
9.93862591e-01
9.93875386e-01
9.93894568e-01
9.93918960e-01
9.93948141e-01
9.93983209e-01
9.94023251e-01
9.94067418e-01
9.94116087e-01
9.94168927e-01
9.94225153e-01
9.94284511e-01
9.94346784e-01
9.94411419e-01
9.94477925e-01
9.94545948e-01
9.94615062e-01
9.94684794e-01
9.94754720e-01
9.94824446e-01
9.94893570e-01
9.94961714e-01
9.95028540e-01
9.95093739e-01
9.95157038e-01
9.95218207e-01
9.95277063e-01
9.95333467e-01
9.95387327e-01
9.95438598e-01
9.95487281e-01
9.95533418e-01
9.95577088e-01
9.95618405e-01
9.95657512e-01
9.95694572e-01
9.95729767e-01
9.95763289e-01
9.95795337e-01
9.95826110e-01
9.95855802e-01
9.95884601e-01
9.95912685e-01
9.95940219e-01
9.95967355e-01
9.95994230e-01
9.96020968e-01
9.96047677e-01
9.96074454e-01
9.96101385e-01
9.96128544e-01
9.96155996e-01
9.96183800e-01
9.96212008e-01
9.96240668e-01
9.96269824e-01
9.96299519e-01
9.96329792e-01
9.96360684e-01
9.96392236e-01
9.96424492e-01
9.96457498e-01
9.96491303e-01
9.96525964e-01
9.96561545e-01
9.96598118e-01
9.96635768e-01
9.96674593e-01
9.96714710e-01
9.96756255e-01
9.96799387e-01
9.96844295e-01
9.96891195e-01
9.96940339e-01
9.96992015e-01
9.97046549e-01
9.97104304e-01
9.97165682e-01
9.97231116e-01
9.97301069e-01
9.97376024e-01
9.97456471e-01
9.97542900e-01
9.97635778e-01
9.97735538e-01
9.97842561e-01
9.97957153e-01
9.98079531e-01
9.98209810e-01
9.98347985e-01
9.98493924e-01
9.98647367e-01
9.98807918e-01
9.98975055e-01
9.99148136e-01
9.99326413e-01
9.99509041e-01
9.99695101e-01
9.99883615e-01
1.00007356e+00
1.00026390e+00
1.00045357e+00
1.00064155e+00
1.00082680e+00
1.00100836e+00
1.00118531e+00
1.00135681e+00
1.00152208e+00
1.00168046e+00
1.00183141e+00
1.00197447e+00
1.00210936e+00
1.00223588e+00
1.00235399e+00
1.00246379e+00
1.00256546e+00
1.00265933e+00
1.00274580e+00
1.00282535e+00
1.00289853e+00
1.00296592e+00
1.00302811e+00
1.00308571e+00
1.00313929e+00
1.00318941e+00
1.00323658e+00
1.00328126e+00
1.00332386e+00
1.00336474e+00
1.00340419e+00
1.00344248e+00
1.00347980e+00
1.00351632e+00
1.00355217e+00
1.00358745e+00
1.00362225e+00
1.00365661e+00
1.00369060e+00
1.00372425e+00
1.00375762e+00
1.00379073e+00
1.00382363e+00
1.00385637e+00
1.00388900e+00
1.00392156e+00
1.00395414e+00
1.00398678e+00
1.00401958e+00
1.00405262e+00
1.00408598e+00
1.00411977e+00
1.00415409e+00
1.00418905e+00
1.00422476e+00
1.00426135e+00
1.00429894e+00
1.00433763e+00
1.00437754e+00
1.00441878e+00
1.00446144e+00
1.00450559e+00
1.00455130e+00
1.00459859e+00
1.00464747e+00
1.00469793e+00
1.00474990e+00
1.00480332e+00
1.00485806e+00
1.00491398e+00
1.00497092e+00
1.00502868e+00
1.00508706e+00
1.00514583e+00
1.00520476e+00
1.00526360e+00
1.00532213e+00
1.00538010e+00
1.00543728e+00
1.00549348e+00
1.00554846e+00
1.00560202e+00
1.00565400e+00
1.00570422e+00
1.00575248e+00
1.00579862e+00
1.00584256e+00
1.00588409e+00
1.00592298e+00
1.00595925e+00
1.00599287e+00
1.00602339e+00
1.00605072e+00
1.00607536e+00
1.00609674e+00
1.00611424e+00
1.00612892e+00
1.00614060e+00
1.00614831e+00
1.00615412e+00
9.93952599e-01
9.93960930e-01
9.93973696e-01
9.93991489e-01
9.94014612e-01
9.94043533e-01
9.94077392e-01
9.94115580e-01
9.94158524e-01
9.94205827e-01
9.94256681e-01
9.94310971e-01
9.94368542e-01
9.94428823e-01
9.94491367e-01
9.94555911e-01
9.94622065e-01
9.94689373e-01
9.94757455e-01
9.94825949e-01
9.94894463e-01
9.94962618e-01
9.95030066e-01
9.95096476e-01
9.95161534e-01
9.95224960e-01
9.95286510e-01
9.95345974e-01
9.95403182e-01
9.95458008e-01
9.95510368e-01
9.95560223e-01
9.95607573e-01
9.95652460e-01
9.95694959e-01
9.95735179e-01
9.95773255e-01
9.95809344e-01
9.95843617e-01
9.95876257e-01
9.95907454e-01
9.95937396e-01
9.95966269e-01
9.95994253e-01
9.96021515e-01
9.96048216e-01
9.96074499e-01
9.96100499e-01
9.96126334e-01
9.96152111e-01
9.96177926e-01
9.96203863e-01
9.96229998e-01
9.96256399e-01
9.96283126e-01
9.96310235e-01
9.96337779e-01
9.96365805e-01
9.96394361e-01
9.96423494e-01
9.96453251e-01
9.96483680e-01
9.96514833e-01
9.96546765e-01
9.96579539e-01
9.96613222e-01
9.96647895e-01
9.96683646e-01
9.96720580e-01
9.96758820e-01
9.96798507e-01
9.96839810e-01
9.96882920e-01
9.96928063e-01
9.96975497e-01
9.97025515e-01
9.97078448e-01
9.97134666e-01
9.97194571e-01
9.97258600e-01
9.97327216e-01
9.97400898e-01
9.97480134e-01
9.97565403e-01
9.97657167e-01
9.97755844e-01
9.97861799e-01
9.97975322e-01
9.98096612e-01
9.98225762e-01
9.98362744e-01
9.98507407e-01
9.98659467e-01
9.98818508e-01
9.98983992e-01
9.99155263e-01
9.99331560e-01
9.99512036e-01
9.99695774e-01
9.99881803e-01
1.00006912e+00
1.00025670e+00
1.00044353e+00
1.00062860e+00
1.00081093e+00
1.00098960e+00
1.00116373e+00
1.00133252e+00
1.00149524e+00
1.00165126e+00
1.00180005e+00
1.00194120e+00
1.00207440e+00
1.00219947e+00
1.00231635e+00
1.00242511e+00
1.00252592e+00
1.00261905e+00
1.00270488e+00
1.00278384e+00
1.00285644e+00
1.00292323e+00
1.00298478e+00
1.00304165e+00
1.00309443e+00
1.00314365e+00
1.00318982e+00
1.00323340e+00
1.00327482e+00
1.00331443e+00
1.00335256e+00
1.00338946e+00
1.00342536e+00
1.00346043e+00
1.00349481e+00
1.00352862e+00
1.00356195e+00
1.00359486e+00
1.00362742e+00
1.00365967e+00
1.00369166e+00
1.00372344e+00
1.00375506e+00
1.00378656e+00
1.00381800e+00
1.00384946e+00
1.00388099e+00
1.00391269e+00
1.00394462e+00
1.00397689e+00
1.00400960e+00
1.00404285e+00
1.00407675e+00
1.00411142e+00
1.00414697e+00
1.00418351e+00
1.00422118e+00
1.00426006e+00
1.00430027e+00
1.00434189e+00
1.00438500e+00
1.00442964e+00
1.00447586e+00
1.00452365e+00
1.00457300e+00
1.00462385e+00
1.00467612e+00
1.00472970e+00
1.00478446e+00
1.00484022e+00
1.00489682e+00
1.00495404e+00
1.00501169e+00
1.00506954e+00
1.00512737e+00
1.00518497e+00
1.00524214e+00
1.00529866e+00
1.00535435e+00
1.00540903e+00
1.00546254e+00
1.00551470e+00
1.00556537e+00
1.00561440e+00
1.00566168e+00