# vtk DataFile Version 2.0
LBM Flow Field - Timestep 150
ASCII
DATASET STRUCTURED_POINTS
DIMENSIONS 64 64 1
ORIGIN 0.0 0.0 0.0
SPACING 1.0 1.0 1.0
POINT_DATA 4096
SCALARS density double 1
LOOKUP_TABLE default
9.93397630e-01
9.93513066e-01
9.93681921e-01
9.93901915e-01
9.94181891e-01
9.94511978e-01
9.94883716e-01
9.95284226e-01
9.95700295e-01
9.96117693e-01
9.96522933e-01
9.96904431e-01
9.97253254e-01
9.97564054e-01
9.97835176e-01
9.98068001e-01
9.98266612e-01
9.98436768e-01
9.98584670e-01
9.98716205e-01
9.98836471e-01
9.98949396e-01
9.99057686e-01
9.99163034e-01
9.99266370e-01
9.99368132e-01
9.99468498e-01
9.99567561e-01
9.99665431e-01
9.99762281e-01
9.99858351e-01
9.99953931e-01
1.00004934e+00
1.00014489e+00
1.00024087e+00
1.00033749e+00
1.00043494e+00
1.00053332e+00
1.00063273e+00
1.00073335e+00
1.00083554e+00
1.00094013e+00
1.00104855e+00
1.00116312e+00
1.00128716e+00
1.00142512e+00
1.00158233e+00
1.00176455e+00
1.00197736e+00
1.00222544e+00
1.00251147e+00
1.00283536e+00
1.00319413e+00
1.00358153e+00
1.00398845e+00
1.00440380e+00
1.00481515e+00
1.00520964e+00
1.00557527e+00
1.00590007e+00
1.00617646e+00
1.00639437e+00
1.00656376e+00
1.00668079e+00
9.93514105e-01
9.93624537e-01
9.93791094e-01
9.94007978e-01
9.94282370e-01
9.94600622e-01
9.94955527e-01
9.95334315e-01
9.95725448e-01
9.96116810e-01
9.96497432e-01
9.96857972e-01
9.97191488e-01
9.97493502e-01
9.97762458e-01
9.97998958e-01
9.98205543e-01
9.98386075e-01
9.98545058e-01
9.98686998e-01
9.98816024e-01
9.98935616e-01
9.99048510e-01
9.99156719e-01
9.99261642e-01
9.99364209e-01
9.99465023e-01
9.99564479e-01
9.99662860e-01
9.99760399e-01
9.99857312e-01
9.99953819e-01
1.00005014e+00
1.00014652e+00
1.00024316e+00
1.00034031e+00
1.00043820e+00
1.00053713e+00
1.00063747e+00
1.00073977e+00
1.00084483e+00
1.00095384e+00
1.00106850e+00
1.00119113e+00
1.00132476e+00
1.00147309e+00
1.00164030e+00
1.00183079e+00
1.00204868e+00
1.00229718e+00
1.00257800e+00
1.00289074e+00
1.00323292e+00
1.00359933e+00
1.00398272e+00
1.00437387e+00
1.00476233e+00
1.00513684e+00
1.00548673e+00
1.00580019e+00
1.00607100e+00
1.00628496e+00
1.00645101e+00
1.00656183e+00
9.93687034e-01
9.93793991e-01
9.93951242e-01
9.94164012e-01
9.94424245e-01
9.94722815e-01
9.95050926e-01
9.95397531e-01
9.95752467e-01
9.96106819e-01
9.96452778e-01
9.96784001e-01
9.97095920e-01
9.97385324e-01
9.97650410e-01
9.97890898e-01
9.98107569e-01
9.98301939e-01
9.98476276e-01
9.98633266e-01
9.98775679e-01
9.98906232e-01
9.99027466e-01
9.99141608e-01
9.99250519e-01
9.99355690e-01
9.99458261e-01
9.99559058e-01
9.99658661e-01
9.99757461e-01
9.99855726e-01
9.99953650e-01
1.00005140e+00
1.00014915e+00
1.00024710e+00
1.00034556e+00
1.00044492e+00
1.00054576e+00
1.00064884e+00
1.00075518e+00
1.00086608e+00
1.00098313e+00
1.00110822e+00
1.00124351e+00
1.00139145e+00
1.00155462e+00
1.00173567e+00
1.00193717e+00
1.00216128e+00
1.00240939e+00
1.00268206e+00
1.00297867e+00
1.00329700e+00
1.00363340e+00
1.00398285e+00
1.00433875e+00
1.00469331e+00
1.00503778e+00
1.00536259e+00
1.00565725e+00
1.00591373e+00
1.00612335e+00
1.00627870e+00
1.00638531e+00
9.93916030e-01
9.94017433e-01
9.94168245e-01
9.94367439e-01
9.94605018e-01
9.94873884e-01
9.95164111e-01
9.95467256e-01
9.95775571e-01
9.96083570e-01
9.96387065e-01
9.96682887e-01
9.96968623e-01
9.97242359e-01
9.97502161e-01
9.97746406e-01
9.97973882e-01
9.98183845e-01
9.98376195e-01
9.98551515e-01
9.98711047e-01
9.98856553e-01
9.98990116e-01
9.99113939e-01
9.99230166e-01
9.99340727e-01
9.99447245e-01
9.99550999e-01
9.99652938e-01
9.99753731e-01
9.99853826e-01
9.99953536e-01
1.00005310e+00
1.00015277e+00
1.00025287e+00
1.00035383e+00
1.00045632e+00
1.00056123e+00
1.00066973e+00
1.00078326e+00
1.00090353e+00
1.00103238e+00
1.00117172e+00
1.00132340e+00
1.00148905e+00
1.00167000e+00
1.00186720e+00
1.00208112e+00
1.00231178e+00
1.00255874e+00
1.00282120e+00
1.00309785e+00
1.00338691e+00
1.00368638e+00
1.00399343e+00
1.00430440e+00
1.00461459e+00
1.00491801e+00
1.00520694e+00
1.00547307e+00
1.00570718e+00
1.00590311e+00
1.00605152e+00
1.00615221e+00
9.94202542e-01
9.94295368e-01
9.94431657e-01
9.94608727e-01
9.94816454e-01
9.95047038e-01
9.95291775e-01
9.95544357e-01
9.95800111e-01
9.96056814e-01
9.96313609e-01
9.96570265e-01
9.96826130e-01
9.97080154e-01
9.97330539e-01
9.97574652e-01
9.97809623e-01
9.98032848e-01
9.98242217e-01
9.98436402e-01
9.98615062e-01
9.98778734e-01
9.98928655e-01
9.99066571e-01
9.99194483e-01
9.99314420e-01
9.99428271e-01
9.99537679e-01
9.99643987e-01
9.99748248e-01
9.99851265e-01
9.99953661e-01
1.00005596e+00
1.00015869e+00
1.00026243e+00
1.00036796e+00
1.00047622e+00
1.00058845e+00
1.00070612e+00
1.00083093e+00
1.00096466e+00
1.00110909e+00
1.00126581e+00
1.00143601e+00
1.00162034e+00
1.00181880e+00
1.00203071e+00
1.00225470e+00
1.00248896e+00
1.00273147e+00
1.00298013e+00
1.00323309e+00
1.00348911e+00
1.00374736e+00
1.00400698e+00
1.00426715e+00
1.00452612e+00
1.00478088e+00
1.00502612e+00
1.00525533e+00
1.00546048e+00
1.00563438e+00
1.00576776e+00
1.00585948e+00
9.94532912e-01
9.94613253e-01
9.94730571e-01
9.94877801e-01
9.95047102e-01
9.95232228e-01
9.95426277e-01
9.95624960e-01
9.95827016e-01
9.96032805e-01
9.96243603e-01
9.96461069e-01
9.96685873e-01
9.96917306e-01
9.97153510e-01
9.97391491e-01
9.97627594e-01
9.97858072e-01
9.98079574e-01
9.98289500e-01
9.98486151e-01
9.98668759e-01
9.98837438e-01
9.98993021e-01
9.99136847e-01
9.99270564e-01
9.99395952e-01
9.99514772e-01
9.99628657e-01
9.99739065e-01
9.99847268e-01
9.99954385e-01
1.00006144e+00
1.00016942e+00
1.00027939e+00
1.00039250e+00
1.00051005e+00
1.00063350e+00
1.00076442e+00
1.00090441e+00
1.00105499e+00
1.00121741e+00
1.00139255e+00
1.00158069e+00
1.00178144e+00
1.00199360e+00
1.00221525e+00
1.00244383e+00
1.00267634e+00
1.00290968e+00
1.00314101e+00
1.00336826e+00
1.00359034e+00
1.00380699e+00
1.00401894e+00
1.00422737e+00
1.00443266e+00
1.00463431e+00
1.00483009e+00
1.00501519e+00
1.00518294e+00
1.00532767e+00
1.00544234e+00
1.00552127e+00
9.94896617e-01
9.94961496e-01
9.95053704e-01
9.95163777e-01
9.95288458e-01
9.95423371e-01
9.95564204e-01
9.95709511e-01
9.95860355e-01
9.96018758e-01
9.96187198e-01
9.96367700e-01
9.96561431e-01
9.96767903e-01
9.96985209e-01
9.97210440e-01
9.97440002e-01
9.97669977e-01
9.97896646e-01
9.98116750e-01
9.98327626e-01
9.98527371e-01
9.98714880e-01
9.98889783e-01
9.99052387e-01
9.99203569e-01
9.99344626e-01
9.99477129e-01
9.99602794e-01
9.99723372e-01
9.99840585e-01
9.99956094e-01
1.00007150e+00
1.00018838e+00
1.00030830e+00
1.00043281e+00
1.00056351e+00
1.00070192e+00
1.00084946e+00
1.00100735e+00
1.00117646e+00
1.00135723e+00
1.00154956e+00
1.00175270e+00
1.00196526e+00
1.00218516e+00
1.00240973e+00
1.00263584e+00
1.00286009e+00
1.00307909e+00
1.00328987e+00
1.00349027e+00
1.00367909e+00
1.00385639e+00
1.00402356e+00
1.00418255e+00
1.00433527e+00
1.00448297e+00
1.00462573e+00
1.00476158e+00
1.00488584e+00
1.00499463e+00
1.00508490e+00
1.00514816e+00
9.95281360e-01
9.95327844e-01
9.95390547e-01
9.95458575e-01
9.95534401e-01
9.95616577e-01
9.95704652e-01
9.95799798e-01
9.95904292e-01
9.96020776e-01
9.96152014e-01
9.96299377e-01
9.96463472e-01
9.96643710e-01
9.96838422e-01
9.97045120e-01
9.97260825e-01
9.97482277e-01
9.97706119e-01
9.97929038e-01
9.98147968e-01
9.98360248e-01
9.98563717e-01
9.98756849e-01
9.98938832e-01
9.99109560e-01
9.99269570e-01
9.99419948e-01
9.99562202e-01
9.99698128e-01
9.99829698e-01
9.99958966e-01
1.00008801e+00
1.00021886e+00
1.00035351e+00
1.00049379e+00
1.00064138e+00
1.00079769e+00
1.00096378e+00
1.00114026e+00
1.00132719e+00
1.00152408e+00
1.00172984e+00
1.00194278e+00
1.00216073e+00
1.00238112e+00
1.00260105e+00
1.00281744e+00
1.00302718e+00
1.00322728e+00
1.00341509e+00
1.00358849e+00
1.00374627e+00
1.00388832e+00
1.00401564e+00
1.00412982e+00
1.00423362e+00
1.00432932e+00
1.00441853e+00
1.00450196e+00
1.00457835e+00
1.00464674e+00
1.00470862e+00
1.00475349e+00
9.95676682e-01
9.95703551e-01
9.95733733e-01
9.95757081e-01
9.95782737e-01
9.95812902e-01
9.95850980e-01
9.95900287e-01
9.95964270e-01
9.96044992e-01
9.96144243e-01
9.96262375e-01
9.96398967e-01
9.96552936e-01
9.96722884e-01
9.96907003e-01
9.97103263e-01
9.97309410e-01
9.97522887e-01
9.97740883e-01
9.97960456e-01
9.98178644e-01
9.98392681e-01
9.98600244e-01
9.98799599e-01
9.98989704e-01
9.99170259e-01
9.99341667e-01
9.99504945e-01
9.99661601e-01
9.99813511e-01
9.99962781e-01
1.00011163e+00
1.00026225e+00
1.00041674e+00
1.00057694e+00
1.00074440e+00
1.00092017e+00
1.00110483e+00
1.00129831e+00
1.00149995e+00
1.00170841e+00
1.00192185e+00
1.00213797e+00
1.00235419e+00
1.00256782e+00
1.00277619e+00
1.00297676e+00
1.00316711e+00
1.00334504e+00
1.00350850e+00
1.00365568e+00
1.00378529e+00
1.00389650e+00
1.00398935e+00
1.00406468e+00
1.00412475e+00
1.00417188e+00
1.00420948e+00
1.00424051e+00
1.00426734e+00
1.00429262e+00
1.00432354e+00
1.00434936e+00
9.96075064e-01
9.96082503e-01
9.96079523e-01
9.96058699e-01
9.96035890e-01
9.96017062e-01
9.96009384e-01
9.96017732e-01
9.96046382e-01
9.96096491e-01
9.96168216e-01
9.96260494e-01
9.96371875e-01
9.96500713e-01
9.96645651e-01
9.96805527e-01
9.96979255e-01
9.97165573e-01
9.97362890e-01
9.97569205e-01
9.97782077e-01
9.97998777e-01
9.98216529e-01
9.98432725e-01
9.98645126e-01
9.98852054e-01
9.99052492e-01
9.99246106e-01
9.99433222e-01
9.99614748e-01
9.99792063e-01
9.99966876e-01
1.00014107e+00
1.00031656e+00
1.00049512e+00
1.00067825e+00
1.00086705e+00
1.00106211e+00
1.00126343e+00
1.00147040e+00
1.00168178e+00
1.00189580e+00
1.00211022e+00
1.00232259e+00
1.00253038e+00
1.00273116e+00
1.00292278e+00
1.00310345e+00
1.00327164e+00
1.00342597e+00
1.00356509e+00
1.00368754e+00
1.00379175e+00
1.00387608e+00
1.00393942e+00
1.00398139e+00
1.00400301e+00
1.00400622e+00
1.00399588e+00
1.00397694e+00
1.00395557e+00
1.00393775e+00
1.00393715e+00
1.00394468e+00
9.96473591e-01
9.96463115e-01
9.96428405e-01
9.96367053e-01
9.96300194e-01
9.96237054e-01
9.96188464e-01
9.96160541e-01
9.96157699e-01
9.96180423e-01
9.96227514e-01
9.96296447e-01
9.96384762e-01
9.96490299e-01
9.96611583e-01
9.96747791e-01
9.96898437e-01
9.97063042e-01
9.97240886e-01
9.97430795e-01
9.97631099e-01
9.97839747e-01
9.98054434e-01
9.98272778e-01
9.98492545e-01
9.98711816e-01
9.98929104e-01
9.99143440e-01
9.99354409e-01
9.99562118e-01
9.99767126e-01
9.99970333e-01
1.00017285e+00
1.00037582e+00
1.00058031e+00
1.00078712e+00
1.00099669e+00
1.00120901e+00
1.00142357e+00
1.00163936e+00
1.00185489e+00
1.00206830e+00
1.00227747e+00
1.00248020e+00
1.00267440e+00
1.00285823e+00
1.00303022e+00
1.00318932e+00
1.00333478e+00
1.00346591e+00
1.00358187e+00
1.00368135e+00
1.00376246e+00
1.00382284e+00
1.00386025e+00
1.00387282e+00
1.00386046e+00
1.00382482e+00
1.00377138e+00
1.00370675e+00
1.00364112e+00
1.00358309e+00
1.00355215e+00
1.00354333e+00
9.96873867e-01
9.96847406e-01
9.96784387e-01
9.96688695e-01
9.96584270e-01
9.96482833e-01
9.96398005e-01
9.96337362e-01
9.96305358e-01
9.96302070e-01
9.96325598e-01
9.96372541e-01
9.96439568e-01
9.96523994e-01
9.96624068e-01
9.96738884e-01
9.96868104e-01
9.97011657e-01
9.97169383e-01
9.97340826e-01
9.97525172e-01
9.97721221e-01
9.97927422e-01
9.98142019e-01
9.98363171e-01
9.98589070e-01
9.98818065e-01
9.99048770e-01
9.99280120e-01
9.99511389e-01
9.99742178e-01
9.99972351e-01
1.00020194e+00
1.00043105e+00
1.00065973e+00
1.00088788e+00
1.00111514e+00
1.00134090e+00
1.00156421e+00
1.00178385e+00
1.00199835e+00
1.00220609e+00
1.00240540e+00
1.00259468e+00
1.00277252e+00
1.00293780e+00
1.00308978e+00
1.00322798e+00
1.00335216e+00
1.00346199e+00
1.00355676e+00
1.00363509e+00
1.00369474e+00
1.00373275e+00
1.00374588e+00
1.00373131e+00
1.00368826e+00
1.00361814e+00
1.00352673e+00
1.00342231e+00
1.00331838e+00
1.00322543e+00
1.00316687e+00
1.00314368e+00
9.97280243e-01
9.97239933e-01
9.97153742e-01
9.97031455e-01
9.96896887e-01
9.96763872e-01
9.96647370e-01
9.96556402e-01
9.96496027e-01
9.96466673e-01
9.96466386e-01
9.96491604e-01
9.96538555e-01
9.96604046e-01
9.96685782e-01
9.96782402e-01
9.96893301e-01
9.97018353e-01
9.97157611e-01
9.97311130e-01
9.97478789e-01
9.97660171e-01
9.97854558e-01
9.98060947e-01
9.98278063e-01
9.98504446e-01
9.98738544e-01
9.98978790e-01
9.99223667e-01
9.99471766e-01
9.99721810e-01
9.99972643e-01
1.00022321e+00
1.00047250e+00
1.00071953e+00
1.00096326e+00
1.00120259e+00
1.00143634e+00
1.00166325e+00
1.00188205e+00
1.00209145e+00
1.00229024e+00
1.00247734e+00
1.00265187e+00
1.00281316e+00
1.00296078e+00
1.00309454e+00
1.00321437e+00
1.00332014e+00
1.00341147e+00
1.00348744e+00
1.00354629e+00
1.00358537e+00
1.00360123e+00
1.00359021e+00
1.00354922e+00
1.00347731e+00
1.00337611e+00
1.00325196e+00
1.00311458e+00
1.00297929e+00
1.00285833e+00
1.00277613e+00
1.00274015e+00
9.97697777e-01
9.97645642e-01
9.97542216e-01
9.97401893e-01
9.97245115e-01
9.97087223e-01
9.96943406e-01
9.96824009e-01
9.96735228e-01
9.96678870e-01
9.96653742e-01
9.96656803e-01
9.96684299e-01
9.96732589e-01
9.96798674e-01
9.96880463e-01
9.96976697e-01
9.97086819e-01
9.97210778e-01
9.97348803e-01
9.97501153e-01
9.97667987e-01
9.97849247e-01
9.98044553e-01
9.98253188e-01
9.98474126e-01
9.98706057e-01
9.98947432e-01
9.99196537e-01
9.99451542e-01
9.99710551e-01
9.99971641e-01
1.00023290e+00
1.00049243e+00
1.00074840e+00
1.00099903e+00
1.00124264e+00
1.00147766e+00
1.00170264e+00
1.00191634e+00
1.00211771e+00
1.00230596e+00
1.00248056e+00
1.00264122e+00
1.00278787e+00
1.00292058e+00
1.00303945e+00
1.00314450e+00
1.00323541e+00
1.00331137e+00
1.00337086e+00
1.00341156e+00
1.00343030e+00
1.00342344e+00
1.00338740e+00
1.00331961e+00
1.00321962e+00
1.00309015e+00
1.00293834e+00
1.00277491e+00
1.00261575e+00
1.00247464e+00
1.00237347e+00
1.00232563e+00
9.98129424e-01
9.98067354e-01
9.97952799e-01
9.97802946e-01
9.97632038e-01
9.97455806e-01
9.97288968e-01
9.97143211e-01
9.97026151e-01
9.96941790e-01
9.96890626e-01
9.96870780e-01
9.96878864e-01
9.96910977e-01
9.96963418e-01
9.97033168e-01
9.97118068e-01
9.97216885e-01
9.97329137e-01
9.97454853e-01
9.97594352e-01
9.97748031e-01
9.97916152e-01
9.98098727e-01
9.98295454e-01
9.98505671e-01
9.98728341e-01
9.98962084e-01
9.99205211e-01
9.99455765e-01
9.99711583e-01
9.99970363e-01
1.00022973e+00
1.00048731e+00
1.00074079e+00
1.00098798e+00
1.00122690e+00
1.00145578e+00
1.00167315e+00
1.00187784e+00
1.00206901e+00
1.00224617e+00
1.00240914e+00
1.00255799e+00
1.00269293e+00
1.00281425e+00
1.00292204e+00
1.00301604e+00
1.00309547e+00
1.00315879e+00
1.00320367e+00
1.00322703e+00
1.00322527e+00
1.00319477e+00
1.00313256e+00
1.00303727e+00
1.00290989e+00
1.00275486e+00
1.00258020e+00
1.00239758e+00
1.00222233e+00
1.00206911e+00
1.00195401e+00
1.00189480e+00
9.98573470e-01
9.98503590e-01
9.98384231e-01
9.98232406e-01
9.98054966e-01
9.97867024e-01
9.97681936e-01
9.97512542e-01
9.97368218e-01
9.97255650e-01
9.97177644e-01
9.97134030e-01
9.97122222e-01
9.97138338e-01
9.97178063e-01
9.97237435e-01
9.97313333e-01
9.97403638e-01
9.97507149e-01
9.97623410e-01
9.97752465e-01
9.97894569e-01
9.98049988e-01
9.98218866e-01
9.98401093e-01
9.98596233e-01
9.98803501e-01
9.99021750e-01
9.99249474e-01
9.99484849e-01
9.99725787e-01
9.99970004e-01
1.00021510e+00
1.00045865e+00
1.00069829e+00
1.00093180e+00
1.00115718e+00
1.00137272e+00
1.00157702e+00
1.00176904e+00
1.00194809e+00
1.00211379e+00
1.00226610e+00
1.00240515e+00
1.00253114e+00
1.00264416e+00
1.00274401e+00
1.00282989e+00
1.00290025e+00
1.00295269e+00
1.00298393e+00
1.00299015e+00
1.00296740e+00
1.00291241e+00
1.00282328e+00
1.00270042e+00
1.00254692e+00
1.00236939e+00
1.00217697e+00
1.00198207e+00
1.00179832e+00
1.00164051e+00
1.00151725e+00
1.00144755e+00
9.99023014e-01
9.98947886e-01
9.98829713e-01
9.98682227e-01
9.98505253e-01
9.98312233e-01
9.98114370e-01
9.97925241e-01
9.97756086e-01
9.97616321e-01
9.97511379e-01
9.97443268e-01
9.97410665e-01
9.97410034e-01
9.97436715e-01
9.97485989e-01
9.97553764e-01
9.97636906e-01
9.97733332e-01
9.97841867e-01
9.97961967e-01
9.98093481e-01
9.98236442e-01
9.98390881e-01
9.98556684e-01
9.98733525e-01
9.98920803e-01
9.99117605e-01
9.99322706e-01
9.99534590e-01
9.99751488e-01
9.99971442e-01
1.00019237e+00
1.00041217e+00
1.00062876e+00
1.00084021e+00
1.00104476e+00
1.00124093e+00
1.00142751e+00
1.00160358e+00
1.00176856e+00
1.00192209e+00
1.00206402e+00
1.00219432e+00
1.00231288e+00
1.00241935e+00
1.00251291e+00
1.00259202e+00
1.00265422e+00
1.00269610e+00
1.00271350e+00
1.00270200e+00
1.00265756e+00
1.00257755e+00
1.00246156e+00
1.00231224e+00
1.00213509e+00
1.00193905e+00
1.00173451e+00
1.00153425e+00
1.00134937e+00
1.00119374e+00
1.00106854e+00
1.00099030e+00
9.99466596e-01
9.99389195e-01
9.99277271e-01
9.99139217e-01
9.98969010e-01
9.98777237e-01
9.98572755e-01
9.98369183e-01
9.98179137e-01
9.98014475e-01
9.97883405e-01
9.97790377e-01
9.97735732e-01
9.97716773e-01
9.97728937e-01
9.97766989e-01
9.97825955e-01
9.97901704e-01
9.97991170e-01
9.98092263e-01
9.98203692e-01
9.98324748e-01
9.98455058e-01
9.98594390e-01
9.98742522e-01
9.98899140e-01
9.99063754e-01
9.99235668e-01
9.99413964e-01
9.99597510e-01
9.99784985e-01
9.99974921e-01
1.00016576e+00
1.00035590e+00
1.00054377e+00
1.00072790e+00
1.00090694e+00
1.00107973e+00
1.00124532e+00
1.00140295e+00
1.00155206e+00
1.00169227e+00
1.00182322e+00
1.00194454e+00
1.00205566e+00
1.00215560e+00
1.00224274e+00
1.00231460e+00
1.00236776e+00
1.00239787e+00
1.00240002e+00
1.00236943e+00
1.00230238e+00
1.00219728e+00
1.00205552e+00
1.00188215e+00
1.00168526e+00
1.00147592e+00
1.00126548e+00
1.00106658e+00
1.00088762e+00
1.00074018e+00
1.00061912e+00
1.00053566e+00
9.99889894e-01
9.99813549e-01
9.99711798e-01
9.99586841e-01
9.99428605e-01
9.99243971e-01
9.99039451e-01
9.98827701e-01
9.98621940e-01
9.98435938e-01
9.98280462e-01
9.98162478e-01
9.98084445e-01
9.98045076e-01
9.98040370e-01
9.98064925e-01
9.98113130e-01
9.98179933e-01
9.98261228e-01
9.98353956e-01
9.98456027e-01
9.98566085e-01
9.98683278e-01
9.98807070e-01
9.98937077e-01
9.99072931e-01
9.99214216e-01
9.99360420e-01
9.99510910e-01
9.99664930e-01
9.99821618e-01
9.99980024e-01
1.00013914e+00
1.00029794e+00
1.00045539e+00
1.00061052e+00
1.00076243e+00
1.00091033e+00
1.00105350e+00
1.00119136e+00
1.00132340e+00
1.00144912e+00
1.00156795e+00
1.00167914e+00
1.00178156e+00
1.00187351e+00
1.00195251e+00
1.00201510e+00
1.00205688e+00
1.00207271e+00
1.00205719e+00
1.00200560e+00
1.00191495e+00
1.00178514e+00
1.00161967e+00
1.00142595e+00
1.00121446e+00
1.00099796e+00
1.00078829e+00
1.00059708e+00
1.00043028e+00
1.00029598e+00
1.00018454e+00
1.00010035e+00
1.00027857e+00
1.00020656e+00
1.00011755e+00
1.00000782e+00
9.99865372e-01
9.99693035e-01
9.99494859e-01
9.99281538e-01
9.99066076e-01
9.98863259e-01
9.98685893e-01
9.98543478e-01
9.98440978e-01
9.98378999e-01
9.98354632e-01
9.98362796e-01
9.98397534e-01
9.98453001e-01
9.98524131e-01
9.98606939e-01
9.98698506e-01
9.98796819e-01
9.98900558e-01
9.99008879e-01
9.99121211e-01
9.99237123e-01
9.99356246e-01
9.99478209e-01
9.99602612e-01
9.99729019e-01
9.99856955e-01
9.99985914e-01
1.00011536e+00
1.00024476e+00
1.00037356e+00
1.00050122e+00
1.00062724e+00
1.00075113e+00
1.00087242e+00
1.00099066e+00
1.00110536e+00
1.00121595e+00
1.00132162e+00
1.00142126e+00
1.00151318e+00
1.00159494e+00
1.00166319e+00
1.00171356e+00
1.00174077e+00
1.00173907e+00
1.00170297e+00
1.00162829e+00
1.00151327e+00
1.00135970e+00
1.00117338e+00
1.00096402e+00
1.00074393e+00
1.00052681e+00
1.00032439e+00
1.00014656e+00
9.99996831e-01
9.99879169e-01
9.99781584e-01
9.99701547e-01
1.00062109e+00
1.00055602e+00
1.00048075e+00
1.00038698e+00
1.00026260e+00
1.00010647e+00
9.99920162e-01
9.99711646e-01
9.99492742e-01
9.99278178e-01
9.99082190e-01
9.98916656e-01
9.98789192e-01
9.98702741e-01
9.98656063e-01
9.98644887e-01
9.98663253e-01
9.98704784e-01
9.98763623e-01
9.98834909e-01
9.98914927e-01
9.99001041e-01
9.99091482e-01
9.99185090e-01
9.99281119e-01
9.99379077e-01
9.99478616e-01
9.99579464e-01
9.99681394e-01
9.99784200e-01
9.99887688e-01
9.99991668e-01
1.00009595e+00
1.00020034e+00
1.00030464e+00
1.00040863e+00
1.00051209e+00
1.00061476e+00
1.00071636e+00
1.00081653e+00
1.00091480e+00
1.00101050e+00
1.00110264e+00
1.00118970e+00
1.00126949e+00
1.00133889e+00
1.00139369e+00
1.00142871e+00
1.00143802e+00
1.00141556e+00
1.00135615e+00
1.00125664e+00
1.00111705e+00
1.00094137e+00
1.00073778e+00
1.00051802e+00
1.00029561e+00
1.00008428e+00
9.99894848e-01
9.99734810e-01
9.99605366e-01
9.99506227e-01
9.99424859e-01
9.99353107e-01
1.00091050e+00
1.00085393e+00
1.00079195e+00
1.00071362e+00
1.00060791e+00
1.00047034e+00
1.00030011e+00
1.00010193e+00
9.99885486e-01
9.99664474e-01
9.99453833e-01
9.99267365e-01
9.99115321e-01
9.99003336e-01
9.98932314e-01
9.98899262e-01
9.98898678e-01
9.98923997e-01
9.98968753e-01
9.99027315e-01
9.99095244e-01
9.99169295e-01
9.99247233e-01
9.99327597e-01
9.99409464e-01
9.99492267e-01
9.99575656e-01
9.99659420e-01
9.99743437e-01
9.99827645e-01
9.99912017e-01
9.99996552e-01
1.00008126e+00
1.00016616e+00
1.00025124e+00
1.00033650e+00
1.00042186e+00
1.00050724e+00
1.00059244e+00
1.00067716e+00
1.00076091e+00
1.00084294e+00
1.00092201e+00
1.00099627e+00
1.00106299e+00
1.00111838e+00
1.00115754e+00
1.00117457e+00
1.00116313e+00
1.00111727e+00
1.00103256e+00
1.00090735e+00
1.00074386e+00
1.00054856e+00
1.00033191e+00
1.00010720e+00
9.99888500e-01
9.99688629e-01
9.99516656e-01
9.99377204e-01
9.99269320e-01
9.99188916e-01
9.99124082e-01
9.99063190e-01
1.00114510e+00
1.00109741e+00
1.00104711e+00
1.00098267e+00
1.00089476e+00
1.00077650e+00
1.00062492e+00
1.00044128e+00
1.00023246e+00
1.00001026e+00
9.99789449e-01
9.99585134e-01
9.99409998e-01
9.99272487e-01
9.99175992e-01
9.99119301e-01
9.99097862e-01
9.99105286e-01
9.99134741e-01
9.99179984e-01
9.99235899e-01
9.99298620e-01
9.99365432e-01
9.99434552e-01
9.99504859e-01
9.99575679e-01
9.99646637e-01
9.99717543e-01
9.99788323e-01
9.99858978e-01
9.99929560e-01
1.00000015e+00
1.00007085e+00
1.00014177e+00
1.00021298e+00
1.00028456e+00
1.00035654e+00
1.00042886e+00
1.00050139e+00
1.00057383e+00
1.00064565e+00
1.00071591e+00
1.00078317e+00
1.00084517e+00
1.00089865e+00
1.00093919e+00
1.00096123e+00
1.00095842e+00
1.00092428e+00
1.00085335e+00
1.00074243e+00
1.00059186e+00
1.00040626e+00
1.00019470e+00
9.99969652e-01
9.99745413e-01
9.99535760e-01
9.99351823e-01
9.99200233e-01
9.99082465e-01
9.98995557e-01
9.98932533e-01
9.98882782e-01
9.98833496e-01
1.00132788e+00
1.00128845e+00
1.00124758e+00
1.00119477e+00
1.00112263e+00
1.00102297e+00
1.00089093e+00
1.00072455e+00
1.00052750e+00
1.00030904e+00
1.00008285e+00
9.99864608e-01
9.99668979e-01
9.99507082e-01
9.99385040e-01
9.99303878e-01
9.99260445e-01
9.99248934e-01
9.99262467e-01
9.99294335e-01
9.99338781e-01
9.99391319e-01
9.99448723e-01
9.99508826e-01
9.99570264e-01
9.99632234e-01
9.99694290e-01
9.99756222e-01
9.99817959e-01
9.99879512e-01
9.99940946e-01
1.00000236e+00
1.00006387e+00
1.00012558e+00
1.00018761e+00
1.00025003e+00
1.00031288e+00
1.00037611e+00
1.00043959e+00
1.00050295e+00
1.00056556e+00
1.00062632e+00
1.00068345e+00
1.00073425e+00
1.00077490e+00
1.00080038e+00
1.00080458e+00
1.00078088e+00
1.00072304e+00
1.00062648e+00
1.00048969e+00
1.00031529e+00
1.00011054e+00
9.99886868e-01
9.99658372e-01
9.99439687e-01
9.99243509e-01
9.99078583e-01
9.98948654e-01
9.98852094e-01
9.98784113e-01
9.98735959e-01
9.98698628e-01
9.98660071e-01
1.00146523e+00
1.00143274e+00
1.00139886e+00
1.00135517e+00
1.00129609e+00
1.00121314e+00
1.00110009e+00
1.00095220e+00
1.00076996e+00
1.00055955e+00
1.00033283e+00
1.00010519e+00
9.99892583e-01
9.99708509e-01
9.99561886e-01
9.99456295e-01
9.99390437e-01
9.99359519e-01
9.99356927e-01
9.99375670e-01
9.99409417e-01
9.99453051e-01
9.99502783e-01
9.99556006e-01
9.99611051e-01
9.99666934e-01
9.99723106e-01
9.99779291e-01
9.99835386e-01
9.99891383e-01
9.99947324e-01
1.00000328e+00
1.00005934e+00
1.00011560e+00
1.00017213e+00
1.00022899e+00
1.00028619e+00
1.00034364e+00
1.00040116e+00
1.00045830e+00
1.00051425e+00
1.00056766e+00
1.00061638e+00
1.00065719e+00
1.00068570e+00
1.00069628e+00
1.00068241e+00
1.00063743e+00
1.00055571e+00
1.00043399e+00
1.00027278e+00
1.00007725e+00
9.99857236e-01
9.99626202e-01
9.99399266e-01
9.99190657e-01
9.99011294e-01
9.98867055e-01
9.98758590e-01
9.98681481e-01
9.98629449e-01
9.98593048e-01
9.98564954e-01
9.98535177e-01
1.00156519e+00
1.00153807e+00
1.00150898e+00
1.00147196e+00
1.00142303e+00
1.00135418e+00
1.00125844e+00
1.00112903e+00
1.00096343e+00
1.00076462e+00
1.00054198e+00
1.00030973e+00
1.00008432e+00
9.99881145e-01
9.99711788e-01
9.99582562e-01
9.99494424e-01
9.99444019e-01
9.99425304e-01
9.99431228e-01
9.99455002e-01
9.99490869e-01
9.99534423e-01
9.99582567e-01
9.99633266e-01
9.99685282e-01
9.99737922e-01
9.99790825e-01
9.99843821e-01
9.99896858e-01
9.99949946e-01
1.00000312e+00
1.00005642e+00
1.00010990e+00
1.00016361e+00
1.00021755e+00
1.00027168e+00
1.00032589e+00
1.00037986e+00
1.00043303e+00
1.00048439e+00
1.00053225e+00
1.00057400e+00
1.00060588e+00
1.00062286e+00
1.00061877e+00
1.00058684e+00
1.00052067e+00
1.00041555e+00
1.00026994e+00
1.00008670e+00
9.99873610e-01
9.99642866e-01
9.99409508e-01
9.99188925e-01
9.98994183e-01
9.98833839e-01
9.98710664e-01
9.98622284e-01
9.98562023e-01
9.98522577e-01
9.98494725e-01
9.98472789e-01
9.98449438e-01
1.00163597e+00
1.00161276e+00
1.00158674e+00
1.00155430e+00
1.00151273e+00
1.00145513e+00
1.00137432e+00
1.00126233e+00
1.00111413e+00
1.00092957e+00
1.00071507e+00
1.00048294e+00
1.00024924e+00
1.00003063e+00
9.99841049e-01
9.99689604e-01
9.99579766e-01
9.99509999e-01
9.99475206e-01
9.99468503e-01
9.99482776e-01
9.99511685e-01
9.99550170e-01
9.99594571e-01
9.99642435e-01
9.99692221e-01
9.99743031e-01
9.99794388e-01
9.99846049e-01
9.99897902e-01
9.99949912e-01
1.00000208e+00
1.00005441e+00
1.00010691e+00
1.00015959e+00
1.00021241e+00
1.00026528e+00
1.00031799e+00
1.00037014e+00
1.00042099e+00
1.00046924e+00
1.00051282e+00
1.00054861e+00
1.00057223e+00
1.00057802e+00
1.00055937e+00
1.00050946e+00
1.00042243e+00
1.00029487e+00
1.00012729e+00
9.99925084e-01
9.99698584e-01
9.99462002e-01
9.99231289e-01
9.99021352e-01
9.98843403e-01
9.98703189e-01
9.98600354e-01
9.98529851e-01
9.98483419e-01
9.98453269e-01
9.98431097e-01
9.98412763e-01
9.98393628e-01
1.00168493e+00
1.00166443e+00
1.00164031e+00
1.00161084e+00
1.00157431e+00
1.00152517e+00
1.00145663e+00
1.00136029e+00
1.00122930e+00
1.00106065e+00
1.00085760e+00
1.00062989e+00
1.00039246e+00
1.00016241e+00
9.99955595e-01
9.99783810e-01
9.99653190e-01
9.99564320e-01
9.99513424e-01
9.99494087e-01
9.99499013e-01
9.99521360e-01
9.99555442e-01
9.99596967e-01
9.99642995e-01
9.99691641e-01
9.99741763e-01
9.99792721e-01
9.99844190e-01
9.99895997e-01
9.99948056e-01
1.00000033e+00
1.00005281e+00
1.00010546e+00
1.00015825e+00
1.00021110e+00
1.00026387e+00
1.00031625e+00
1.00036770e+00
1.00041727e+00
1.00046334e+00
1.00050338e+00
1.00053371e+00
1.00054929e+00
1.00054390e+00
1.00051062e+00
1.00044278e+00
1.00033540e+00
1.00018673e+00
9.99999578e-01
9.99781923e-01
9.99546473e-01
9.99308949e-01
9.99085486e-01
9.98889776e-01
9.98730593e-01
9.98610612e-01
9.98526558e-01
9.98471257e-01
9.98435577e-01
9.98411825e-01
9.98393047e-01
9.98376475e-01
9.98359800e-01
1.00171798e+00
1.00169935e+00
1.00167646e+00
1.00164888e+00
1.00161559e+00
1.00157246e+00
1.00151357e+00
1.00143073e+00
1.00131596e+00
1.00116392e+00
1.00097472e+00
1.00075514e+00
1.00051825e+00
1.00028085e+00
1.00006011e+00
9.99870197e-01
9.99719984e-01
9.99612412e-01
9.99545324e-01
9.99513122e-01
9.99508564e-01
9.99524381e-01
9.99554292e-01
9.99593389e-01
9.99638159e-01
9.99686312e-01
9.99736443e-01
9.99787722e-01
9.99839699e-01
9.99892147e-01
9.99944941e-01
9.99998007e-01
1.00005130e+00
1.00010477e+00
1.00015836e+00
1.00021194e+00
1.00026530e+00
1.00031805e+00
1.00036947e+00
1.00041834e+00
1.00046268e+00
1.00049947e+00
1.00052437e+00
1.00053174e+00
1.00051488e+00
1.00046669e+00
1.00038097e+00
1.00025394e+00
1.00008580e+00
9.99881819e-01
9.99652535e-01
9.99412667e-01
9.99178817e-01
9.98966620e-01
9.98787869e-01
9.98648445e-01
9.98547936e-01
9.98480551e-01
9.98437615e-01
9.98409835e-01
9.98390146e-01
9.98373136e-01
9.98357191e-01
9.98341787e-01
1.00173952e+00
1.00172222e+00
1.00170024e+00
1.00167388e+00
1.00164261e+00
1.00160356e+00
1.00155194e+00
1.00148031e+00
1.00138024e+00
1.00124462e+00
1.00107074e+00
1.00086222e+00
1.00062966e+00
1.00038891e+00
1.00015771e+00
9.99952162e-01
9.99783768e-01
9.99658040e-01
9.99574705e-01
9.99529257e-01
9.99514826e-01
9.99523872e-01
9.99549528e-01
9.99586281e-01
9.99630049e-01
9.99678053e-01
9.99728569e-01
9.99780578e-01
9.99833486e-01
9.99886981e-01
9.99940907e-01
9.99995158e-01
1.00004966e+00
1.00010435e+00
1.00015914e+00
1.00021385e+00
1.00026821e+00
1.00032171e+00
1.00037342e+00
1.00042183e+00
1.00046455e+00
1.00049797e+00
1.00051714e+00
1.00051585e+00
1.00048698e+00
1.00042352e+00
1.00032005e+00
1.00017429e+00
9.99988597e-01
9.99770829e-01
9.99533885e-01
9.99293970e-01
9.99067967e-01
9.98870315e-01
9.98710303e-01
9.98590721e-01
9.98508272e-01
9.98455129e-01
9.98421803e-01
9.98399496e-01
9.98382152e-01
9.98365874e-01
9.98349995e-01
9.98335191e-01
1.00175260e+00
1.00173629e+00
1.00171511e+00
1.00168964e+00
1.00165965e+00
1.00162330e+00
1.00157695e+00
1.00151430e+00
1.00142708e+00
1.00130701e+00
1.00114898e+00
1.00095362e+00
1.00072865e+00
1.00048820e+00
1.00025001e+00
1.00003156e+00
9.99846662e-01
9.99703471e-01
9.99603927e-01
9.99544865e-01
9.99520008e-01
9.99521820e-01
9.99542942e-01
9.99577203e-01
9.99619962e-01
9.99667952e-01
9.99719045e-01
9.99771988e-01
9.99826063e-01
9.99880854e-01
9.99936141e-01
9.99991807e-01
1.00004776e+00
1.00010391e+00
1.00016012e+00
1.00021620e+00
1.00027178e+00
1.00032618e+00
1.00037829e+00
1.00042625e+00
1.00046717e+00
1.00049686e+00
1.00050978e+00
1.00049915e+00
1.00045764e+00
1.00037861e+00
1.00025767e+00
1.00009431e+00
9.99893314e-01
9.99665052e-01
9.99424382e-01
9.99188523e-01
9.98973983e-01
9.98793290e-01
9.98652869e-01
9.98552464e-01
9.98486185e-01
9.98444755e-01
9.98418582e-01
9.98399833e-01
9.98383664e-01
9.98367573e-01
9.98351597e-01
9.98337071e-01
1.00175921e+00
1.00174365e+00