# vtk DataFile Version 2.0
LBM Flow Field - Timestep 500
ASCII
DATASET STRUCTURED_POINTS
DIMENSIONS 64 64 1
ORIGIN 0.0 0.0 0.0
SPACING 1.0 1.0 1.0
POINT_DATA 4096
SCALARS density double 1
LOOKUP_TABLE default
9.99018633e-01
9.99017225e-01
9.99013982e-01
9.99000950e-01
9.98986297e-01
9.98973083e-01
9.98958454e-01
9.98943301e-01
9.98930063e-01
9.98919272e-01
9.98911427e-01
9.98907887e-01
9.98909919e-01
9.98918513e-01
9.98934694e-01
9.98959347e-01
9.98993074e-01
9.99036131e-01
9.99088351e-01
9.99149101e-01
9.99217306e-01
9.99291487e-01
9.99369850e-01
9.99450426e-01
9.99531228e-01
9.99610407e-01
9.99686408e-01
9.99758093e-01
9.99824837e-01
9.99886567e-01
9.99943763e-01
9.99997408e-01
1.00004889e+00
1.00009987e+00
1.00015213e+00
1.00020740e+00
1.00026714e+00
1.00033242e+00
1.00040375e+00
1.00048097e+00
1.00056322e+00
1.00064897e+00
1.00073614e+00
1.00082223e+00
1.00090462e+00
1.00098077e+00
1.00104848e+00
1.00110611e+00
1.00115271e+00
1.00118810e+00
1.00121281e+00
1.00122799e+00
1.00123518e+00
1.00123603e+00
1.00123247e+00
1.00122645e+00
1.00121873e+00
1.00120996e+00
1.00120213e+00
1.00119560e+00
1.00118784e+00
1.00118105e+00
1.00117718e+00
1.00117389e+00
9.99018286e-01
9.99012426e-01
9.99007077e-01
9.98996979e-01
9.98983786e-01
9.98970440e-01
9.98956773e-01
9.98943144e-01
9.98930854e-01
9.98920939e-01
9.98914320e-01
9.98912000e-01
9.98915110e-01
9.98924693e-01
9.98941728e-01
9.98966976e-01
9.99000982e-01
9.99043954e-01
9.99095714e-01
9.99155645e-01
9.99222716e-01
9.99295523e-01
9.99372373e-01
9.99451404e-01
9.99530735e-01
9.99608610e-01
9.99683550e-01
9.99754473e-01
9.99820779e-01
9.99882401e-01
9.99939801e-01
9.99993923e-01
1.00004610e+00
1.00009793e+00
1.00015111e+00
1.00020727e+00
1.00026778e+00
1.00033362e+00
1.00040521e+00
1.00048233e+00
1.00056409e+00
1.00064899e+00
1.00073499e+00
1.00081973e+00
1.00090072e+00
1.00097558e+00
1.00104226e+00
1.00109924e+00
1.00114568e+00
1.00118140e+00
1.00120689e+00
1.00122317e+00
1.00123167e+00
1.00123403e+00
1.00123195e+00
1.00122694e+00
1.00122007e+00
1.00121256e+00
1.00120533e+00
1.00119849e+00
1.00119110e+00
1.00118615e+00
1.00118124e+00
1.00117628e+00
9.99014461e-01
9.99005906e-01
9.98994293e-01
9.98986831e-01
9.98976916e-01
9.98963190e-01
9.98949838e-01
9.98938034e-01
9.98927163e-01
9.98918405e-01
9.98913286e-01
9.98912614e-01
9.98917301e-01
9.98928421e-01
9.98946865e-01
9.98973318e-01
9.99008255e-01
9.99051813e-01
9.99103771e-01
9.99163520e-01
9.99230048e-01
9.99301988e-01
9.99377719e-01
9.99455459e-01
9.99533408e-01
9.99609890e-01
9.99683498e-01
9.99753206e-01
9.99818460e-01
9.99879223e-01
9.99935973e-01
9.99989658e-01
1.00004161e+00
1.00009339e+00
1.00014667e+00
1.00020304e+00
1.00026383e+00
1.00032992e+00
1.00040170e+00
1.00047890e+00
1.00056059e+00
1.00064527e+00
1.00073094e+00
1.00081529e+00
1.00089592e+00
1.00097055e+00
1.00103723e+00
1.00109453e+00
1.00114165e+00
1.00117840e+00
1.00120523e+00
1.00122306e+00
1.00123323e+00
1.00123733e+00
1.00123678e+00
1.00123279e+00
1.00122712e+00
1.00122096e+00
1.00121357e+00
1.00120605e+00
1.00120082e+00
1.00119660e+00
1.00118884e+00
1.00118217e+00
9.98995518e-01
9.98988749e-01
9.98980689e-01
9.98972062e-01
9.98961334e-01
9.98949717e-01
9.98938170e-01
9.98927251e-01
9.98917862e-01
9.98911205e-01
9.98908122e-01
9.98909548e-01
9.98916530e-01
9.98929999e-01
9.98950697e-01
9.98979238e-01
9.99015988e-01
9.99060999e-01
9.99113971e-01
9.99174238e-01
9.99240777e-01
9.99312247e-01
9.99387068e-01
9.99463531e-01
9.99539922e-01
9.99614662e-01
9.99686437e-01
9.99754309e-01
9.99817801e-01
9.99876939e-01
9.99932250e-01
9.99984713e-01
1.00003567e+00
1.00008669e+00
1.00013942e+00
1.00019542e+00
1.00025597e+00
1.00032194e+00
1.00039363e+00
1.00047075e+00
1.00055239e+00
1.00063704e+00
1.00072274e+00
1.00080726e+00
1.00088826e+00
1.00096356e+00
1.00103127e+00
1.00109000e+00
1.00113892e+00
1.00117781e+00
1.00120701e+00
1.00122736e+00
1.00123998e+00
1.00124625e+00
1.00124766e+00
1.00124550e+00
1.00124089e+00
1.00123495e+00
1.00122833e+00
1.00122172e+00
1.00121570e+00
1.00120995e+00
1.00120406e+00
1.00119807e+00
9.98970515e-01
9.98965272e-01
9.98959839e-01
9.98950216e-01
9.98940001e-01
9.98930721e-01
9.98920721e-01
9.98911162e-01
9.98904038e-01
9.98899940e-01
9.98899412e-01
9.98903678e-01
9.98913723e-01
9.98930264e-01
9.98953976e-01
9.98985365e-01
9.99024642e-01
9.99071744e-01
9.99126280e-01
9.99187510e-01
9.99254382e-01
9.99325569e-01
9.99399532e-01
9.99474635e-01
9.99549261e-01
9.99621939e-01
9.99691461e-01
9.99756999e-01
9.99818173e-01
9.99875094e-01
9.99928358e-01
9.99978999e-01
1.00002839e+00
1.00007812e+00
1.00012984e+00
1.00018507e+00
1.00024508e+00
1.00031067e+00
1.00038213e+00
1.00045915e+00
1.00054077e+00
1.00062553e+00
1.00071150e+00
1.00079653e+00
1.00087835e+00
1.00095485e+00
1.00102423e+00
1.00108510e+00
1.00113661e+00
1.00117849e+00
1.00121091e+00
1.00123459e+00
1.00125049e+00
1.00125970e+00
1.00126359e+00
1.00126367e+00
1.00126064e+00
1.00125526e+00
1.00124933e+00
1.00124354e+00
1.00123678e+00
1.00122996e+00
1.00122544e+00
1.00122020e+00
9.98942343e-01
9.98936319e-01
9.98929928e-01
9.98922611e-01
9.98914691e-01
9.98905872e-01
9.98897433e-01
9.98890783e-01
9.98886341e-01
9.98884825e-01
9.98887484e-01
9.98895295e-01
9.98908926e-01
9.98929098e-01
9.98956431e-01
9.98991252e-01
9.99033623e-01
9.99083348e-01
9.99139921e-01
9.99202529e-01
9.99270070e-01
9.99341206e-01
9.99414437e-01
9.99488197e-01
9.99560961e-01
9.99631368e-01
9.99698334e-01
9.99761151e-01
9.99819556e-01
9.99873764e-01
9.99924464e-01
9.99972760e-01
1.00002008e+00
1.00006805e+00
1.00011832e+00
1.00017242e+00
1.00023158e+00
1.00029658e+00
1.00036768e+00
1.00044453e+00
1.00052620e+00
1.00061121e+00
1.00069772e+00
1.00078360e+00
1.00086669e+00
1.00094494e+00
1.00101658e+00
1.00108025e+00
1.00113505e+00
1.00118061e+00
1.00121696e+00
1.00124457e+00
1.00126430e+00
1.00127716e+00
1.00128412e+00
1.00128638e+00
1.00128530e+00
1.00128172e+00
1.00127626e+00
1.00126991e+00
1.00126382e+00
1.00125802e+00
1.00125210e+00
1.00124597e+00
9.98907321e-01
9.98901490e-01
9.98895103e-01
9.98889548e-01
9.98883053e-01
9.98875852e-01
9.98870101e-01
9.98866202e-01
9.98864505e-01
9.98866381e-01
9.98872872e-01
9.98884559e-01
9.98902223e-01
9.98926596e-01
9.98958054e-01
9.98996757e-01
9.99042665e-01
9.99095433e-01
9.99154421e-01
9.99218726e-01
9.99287192e-01
9.99358468e-01
9.99431082e-01
9.99503531e-01
9.99574381e-01
9.99642387e-01
9.99706591e-01
9.99766417e-01
9.99821728e-01
9.99872863e-01
9.99920614e-01
9.99966178e-01
1.00001105e+00
1.00005690e+00
1.00010540e+00
1.00015809e+00
1.00021618e+00
1.00028042e+00
1.00035105e+00
1.00042771e+00
1.00050944e+00
1.00059482e+00
1.00068202e+00
1.00076901e+00
1.00085368e+00
1.00093406e+00
1.00100842e+00
1.00107539e+00
1.00113401e+00
1.00118379e+00
1.00122466e+00
1.00125687e+00
1.00128094e+00
1.00129783e+00
1.00130848e+00
1.00131369e+00
1.00131466e+00
1.00131276e+00
1.00130848e+00
1.00130247e+00
1.00129664e+00
1.00129124e+00
1.00128459e+00
1.00127823e+00
9.98864954e-01
9.98860079e-01
9.98855602e-01
9.98850854e-01
9.98845731e-01
9.98841520e-01
9.98838559e-01
9.98837335e-01
9.98839203e-01
9.98845120e-01
9.98855644e-01
9.98871611e-01
9.98893850e-01
9.98922811e-01
9.98958728e-01
9.99001678e-01
9.99051460e-01
9.99107572e-01
9.99169255e-01
9.99235504e-01
9.99305106e-01
9.99376694e-01
9.99448814e-01
9.99520019e-01
9.99588967e-01
9.99654527e-01
9.99715867e-01
9.99772546e-01
9.99824567e-01
9.99872395e-01
9.99916943e-01
9.99959506e-01
1.00000166e+00
1.00004513e+00
1.00009164e+00
1.00014270e+00
1.00019953e+00
1.00026288e+00
1.00033294e+00
1.00040934e+00
1.00049113e+00
1.00057692e+00
1.00066493e+00
1.00075319e+00
1.00083966e+00
1.00092245e+00
1.00099985e+00
1.00107049e+00
1.00113337e+00
1.00118783e+00
1.00123365e+00
1.00127094e+00
1.00129998e+00
1.00132134e+00
1.00133596e+00
1.00134477e+00
1.00134850e+00
1.00134826e+00
1.00134545e+00
1.00134088e+00
1.00133509e+00
1.00132934e+00
1.00132375e+00
1.00131785e+00
9.98817177e-01
9.98813104e-01
9.98809992e-01
9.98806753e-01
9.98804086e-01
9.98802672e-01
9.98802574e-01
9.98805011e-01
9.98811014e-01
9.98821073e-01
9.98836045e-01
9.98856857e-01
9.98883996e-01
9.98917774e-01
9.98958428e-01
9.99005879e-01
9.99059729e-01
9.99119355e-01
9.99183890e-01
9.99252232e-01
9.99323110e-01
9.99395133e-01
9.99466868e-01
9.99536921e-01
9.99604037e-01
9.99667189e-01
9.99725674e-01
9.99779185e-01
9.99827861e-01
9.99872301e-01
9.99913540e-01
9.99952982e-01
9.99992289e-01
1.00003325e+00
1.00007761e+00
1.00012693e+00
1.00018239e+00
1.00024474e+00
1.00031415e+00
1.00039024e+00
1.00047206e+00
1.00055825e+00
1.00064709e+00
1.00073668e+00
1.00082506e+00
1.00091039e+00
1.00099101e+00
1.00106555e+00
1.00113293e+00
1.00119243e+00
1.00124357e+00
1.00128625e+00
1.00132067e+00
1.00134716e+00
1.00136622e+00
1.00137883e+00
1.00138595e+00
1.00138829e+00
1.00138713e+00
1.00138394e+00
1.00137916e+00
1.00137382e+00
1.00136882e+00
1.00136327e+00
9.98763919e-01
9.98760595e-01
9.98758780e-01
9.98757937e-01
9.98758057e-01
9.98759425e-01
9.98762970e-01
9.98769644e-01
9.98779898e-01
9.98794552e-01
9.98814552e-01
9.98840451e-01
9.98872656e-01
9.98911520e-01
9.98957104e-01
9.99009140e-01
9.99067133e-01
9.99130348e-01
9.99197794e-01
9.99268292e-01
9.99340518e-01
9.99413065e-01
9.99484518e-01
9.99553536e-01
9.99618940e-01
9.99679807e-01
9.99735552e-01
9.99785997e-01
9.99831413e-01
9.99872531e-01
9.99910506e-01
9.99946850e-01
9.99983312e-01
1.00002175e+00
1.00006394e+00
1.00011146e+00
1.00016550e+00
1.00022678e+00
1.00029547e+00
1.00037116e+00
1.00045295e+00
1.00053948e+00
1.00062909e+00
1.00071997e+00
1.00081025e+00
1.00089815e+00
1.00098206e+00
1.00106060e+00
1.00113264e+00
1.00119733e+00
1.00125409e+00
1.00130253e+00
1.00134261e+00
1.00137457e+00
1.00139874e+00
1.00141570e+00
1.00142646e+00
1.00143207e+00
1.00143334e+00
1.00143163e+00
1.00142835e+00
1.00142432e+00
1.00141985e+00
1.00141468e+00
9.98705119e-01
9.98703039e-01
9.98703046e-01
9.98704601e-01
9.98707570e-01
9.98712508e-01
9.98720262e-01
9.98731279e-01
9.98746233e-01
9.98766062e-01
9.98791331e-01
9.98822486e-01
9.98860018e-01
9.98904124e-01
9.98954656e-01
9.99011273e-01
9.99073395e-01
9.99140152e-01
9.99210461e-01
9.99283083e-01
9.99356658e-01
9.99429771e-01
9.99501030e-01
9.99569141e-01
9.99633002e-01
9.99691782e-01
9.99745006e-01
9.99792612e-01
9.99834996e-01
9.99873007e-01
9.99907915e-01
9.99941331e-01
9.99975088e-01
1.00001110e+00
1.00005119e+00
1.00009695e+00
1.00014957e+00
1.00020975e+00
1.00027765e+00
1.00035287e+00
1.00043451e+00
1.00052127e+00
1.00061154e+00
1.00070360e+00
1.00079567e+00
1.00088604e+00
1.00097318e+00
1.00105570e+00
1.00113243e+00
1.00120240e+00
1.00126488e+00
1.00131936e+00
1.00136546e+00
1.00140318e+00
1.00143284e+00
1.00145484e+00
1.00146982e+00
1.00147898e+00
1.00148340e+00
1.00148408e+00
1.00148250e+00
1.00147987e+00
1.00147658e+00
1.00147235e+00
9.98641569e-01
9.98640879e-01
9.98643014e-01
9.98647125e-01
9.98653403e-01
9.98662404e-01
9.98674527e-01
9.98690305e-01
9.98710531e-01
9.98735766e-01
9.98766472e-01
9.98803182e-01
9.98846200e-01
9.98895524e-01
9.98950971e-01
9.99012119e-01
9.99078242e-01
9.99148387e-01
9.99221424e-01
9.99296066e-01
9.99370929e-01
9.99444606e-01
9.99515736e-01
9.99583077e-01
9.99645597e-01
9.99702553e-01
9.99753563e-01
9.99798672e-01
9.99838379e-01
9.99873638e-01
9.99905818e-01
9.99936616e-01
9.99967939e-01
1.00000175e+00
1.00003991e+00
1.00008402e+00
1.00013527e+00
1.00019435e+00
1.00026142e+00
1.00033606e+00
1.00041742e+00
1.00050423e+00
1.00059498e+00
1.00068802e+00
1.00078169e+00
1.00087437e+00
1.00096458e+00
1.00105096e+00
1.00113231e+00
1.00120757e+00
1.00127584e+00
1.00133642e+00
1.00138883e+00
1.00143273e+00
1.00146819e+00
1.00149563e+00
1.00151557e+00
1.00152885e+00
1.00153677e+00
1.00154054e+00
1.00154126e+00
1.00154033e+00
1.00153865e+00
1.00153560e+00
9.98574106e-01
9.98574838e-01
9.98579139e-01
9.98586153e-01
9.98596123e-01
9.98609357e-01
9.98626188e-01
9.98647224e-01
9.98672970e-01
9.98703803e-01
9.98740245e-01
9.98782671e-01
9.98831169e-01
9.98885692e-01
9.98945987e-01
9.99011490e-01
9.99081396e-01
9.99154714e-01
9.99230269e-01
9.99306748e-01
9.99382775e-01
9.99456971e-01
9.99528013e-01
9.99594722e-01
9.99656132e-01
9.99711578e-01
9.99760761e-01
9.99803811e-01
9.99841312e-01
9.99874302e-01
9.99904225e-01
9.99932847e-01
9.99962129e-01
9.99994076e-01
1.00003057e+00
1.00007321e+00
1.00012320e+00
1.00018121e+00
1.00024739e+00
1.00032136e+00
1.00040227e+00
1.00048894e+00
1.00057993e+00
1.00067372e+00
1.00076873e+00
1.00086346e+00
1.00095651e+00
1.00104655e+00
1.00113236e+00
1.00121282e+00
1.00128688e+00
1.00135365e+00
1.00141245e+00
1.00146283e+00
1.00150453e+00
1.00153776e+00
1.00156310e+00
1.00158123e+00
1.00159321e+00
1.00160042e+00
1.00160405e+00
1.00160535e+00
1.00160541e+00
1.00160362e+00
9.98503330e-01
9.98505551e-01
9.98512170e-01
9.98522316e-01
9.98536132e-01
9.98553833e-01
9.98575763e-01
9.98602282e-01
9.98633702e-01
9.98670419e-01
9.98712781e-01
9.98760930e-01
9.98814909e-01
9.98874589e-01
9.98939559e-01
9.99009177e-01
9.99082612e-01
9.99158826e-01
9.99236619e-01
9.99314697e-01
9.99391718e-01
9.99466346e-01
9.99537320e-01
9.99603527e-01
9.99664072e-01
9.99718360e-01
9.99766162e-01
9.99807673e-01
9.99843538e-01
9.99874850e-01
9.99903105e-01
9.99930109e-01
9.99957855e-01
9.99988367e-01
1.00002354e+00
1.00006497e+00
1.00011384e+00
1.00017084e+00
1.00023612e+00
1.00030930e+00
1.00038961e+00
1.00047591e+00
1.00056689e+00
1.00066113e+00
1.00075718e+00
1.00085367e+00
1.00094928e+00
1.00104273e+00
1.00113278e+00
1.00121826e+00
1.00129803e+00
1.00137103e+00
1.00143632e+00
1.00149329e+00
1.00154156e+00
1.00158105e+00
1.00161213e+00
1.00163554e+00
1.00165220e+00
1.00166332e+00
1.00167021e+00
1.00167415e+00
1.00167625e+00
1.00167587e+00
9.98430043e-01
9.98433839e-01
9.98442845e-01
9.98456188e-01
9.98473990e-01
9.98496387e-01
9.98523573e-01
9.98555700e-01
9.98593012e-01
9.98635760e-01
9.98684062e-01
9.98737957e-01
9.98797394e-01
9.98862078e-01
9.98931503e-01
9.99004987e-01
9.99081647e-01
9.99160421e-01
9.99240135e-01
9.99319536e-01
9.99397339e-01
9.99472281e-01
9.99543183e-01
9.99609008e-01
9.99668940e-01
9.99722448e-01
9.99769359e-01
9.99809912e-01
9.99844787e-01
9.99875104e-01
9.99902375e-01
9.99928418e-01
9.99955228e-01
9.99984827e-01
1.00001910e+00
1.00005964e+00
1.00010761e+00
1.00016370e+00
1.00022806e+00
1.00030038e+00
1.00037991e+00
1.00046563e+00
1.00055632e+00
1.00065071e+00
1.00074749e+00
1.00084542e+00
1.00094326e+00
1.00103981e+00
1.00113386e+00
1.00122416e+00
1.00130946e+00
1.00138859e+00
1.00146044e+00
1.00152411e+00
1.00157908e+00
1.00162512e+00
1.00166236e+00
1.00169139e+00
1.00171313e+00
1.00172863e+00
1.00173915e+00
1.00174597e+00
1.00175030e+00
1.00175151e+00
9.98355128e-01
9.98360481e-01
9.98371876e-01
9.98388445e-01
9.98410313e-01
9.98437470e-01
9.98469943e-01
9.98507781e-01
9.98551078e-01
9.98599851e-01
9.98654088e-01
9.98713713e-01
9.98778482e-01
9.98847977e-01
9.98921632e-01
9.98998694e-01
9.99078238e-01
9.99159223e-01
9.99240520e-01
9.99320941e-01
9.99399289e-01
9.99474404e-01
9.99545208e-01
9.99610762e-01
9.99670330e-01
9.99723446e-01
9.99769980e-01
9.99810196e-01
9.99844784e-01
9.99874853e-01
9.99901900e-01
9.99927717e-01
9.99954273e-01
9.99983560e-01
1.00001743e+00
1.00005745e+00
1.00010479e+00
1.00016011e+00
1.00022360e+00
1.00029498e+00
1.00037360e+00
1.00045852e+00
1.00054868e+00
1.00064293e+00
1.00074013e+00
1.00083916e+00
1.00093891e+00
1.00103825e+00
1.00113599e+00
1.00123085e+00
1.00132149e+00
1.00140658e+00
1.00148488e+00
1.00155531e+00
1.00161707e+00
1.00166978e+00
1.00171344e+00
1.00174841e+00
1.00177548e+00
1.00179566e+00
1.00181011e+00
1.00182002e+00
1.00182671e+00
1.00182957e+00
9.98279487e-01
9.98286335e-01
9.98300053e-01
9.98319794e-01
9.98345667e-01
9.98377525e-01
9.98415261e-01
9.98458778e-01
9.98507984e-01
9.98562723e-01
9.98622837e-01
9.98688055e-01
9.98757979e-01
9.98832086e-01
9.98909710e-01
9.98990030e-01
9.99072117e-01
9.99154962e-01
9.99237494e-01
9.99318622e-01
9.99397271e-01
9.99472407e-01
9.99543077e-01
9.99608457e-01
9.99667903e-01
9.99721013e-01
9.99767694e-01
9.99808216e-01
9.99843246e-01
9.99873857e-01
9.99901491e-01
9.99927879e-01
9.99954926e-01
9.99984563e-01
1.00001860e+00
1.00005855e+00
1.00010556e+00
1.00016032e+00
1.00022302e+00
1.00029346e+00
1.00037106e+00
1.00045502e+00
1.00054442e+00
1.00063827e+00
1.00073559e+00
1.00083541e+00
1.00093676e+00
1.00103856e+00
1.00113965e+00
1.00123876e+00
1.00133446e+00
1.00142530e+00
1.00150987e+00
1.00158693e+00
1.00165548e+00
1.00171491e+00
1.00176505e+00
1.00180611e+00
1.00183870e+00
1.00186373e+00
1.00188226e+00
1.00189539e+00
1.00190450e+00
1.00190899e+00
9.98204021e-01
9.98212249e-01
9.98228152e-01
9.98250923e-01
9.98280633e-01
9.98317023e-01
9.98359865e-01
9.98408888e-01
9.98463833e-01
9.98524388e-01
9.98590197e-01
9.98660804e-01
9.98735671e-01
9.98814144e-01
9.98895444e-01
9.98978707e-01
9.99063005e-01
9.99147361e-01
9.99230790e-01
9.99312327e-01
9.99391038e-01
9.99466041e-01
9.99536537e-01
9.99601833e-01
9.99661388e-01
9.99714870e-01
9.99762215e-01
9.99803682e-01
9.99839895e-01
9.99871855e-01
9.99900914e-01
9.99928706e-01
9.99957035e-01
9.99987742e-01
1.00002255e+00
1.00006295e+00
1.00011003e+00
1.00016448e+00
1.00022655e+00
1.00029609e+00
1.00037264e+00
1.00045554e+00
1.00054401e+00
1.00063725e+00
1.00073444e+00
1.00083477e+00
1.00093739e+00
1.00104132e+00
1.00114543e+00
1.00124843e+00
1.00134886e+00
1.00144514e+00
1.00153571e+00
1.00161916e+00
1.00169432e+00
1.00176037e+00
1.00181694e+00
1.00186407e+00
1.00190223e+00
1.00193215e+00
1.00195479e+00
1.00197116e+00
1.00198265e+00
1.00198871e+00
9.98129616e-01
9.98139068e-01
9.98156936e-01
9.98182498e-01
9.98215783e-01
9.98256419e-01
9.98304067e-01
9.98358305e-01
9.98418714e-01
9.98484802e-01
9.98556027e-01
9.98631759e-01
9.98711297e-01
9.98793838e-01
9.98878513e-01
9.98964408e-01
9.99050586e-01
9.99136127e-01
9.99220147e-01
9.99301818e-01
9.99380371e-01
9.99455107e-01
9.99525393e-01
9.99590691e-01
9.99650578e-01
9.99704795e-01
9.99753302e-01
9.99796338e-01
9.99834461e-01
9.99868573e-01
9.99899903e-01
9.99929948e-01
9.99960379e-01
9.99992916e-01
1.00002918e+00
1.00007058e+00
1.00011818e+00
1.00017267e+00
1.00023434e+00
1.00030312e+00
1.00037867e+00
1.00046047e+00
1.00054793e+00
1.00064041e+00
1.00073727e+00
1.00083787e+00
1.00094146e+00
1.00104718e+00
1.00115394e+00
1.00126045e+00
1.00136518e+00
1.00146648e+00
1.00156267e+00
1.00165216e+00
1.00173361e+00
1.00180602e+00
1.00186882e+00
1.00192187e+00
1.00196547e+00
1.00200018e+00
1.00202686e+00
1.00204640e+00
1.00206014e+00
1.00206766e+00
9.98057094e-01
9.98067567e-01
9.98087133e-01
9.98115160e-01
9.98151648e-01
9.98196134e-01
9.98248171e-01
9.98307211e-01
9.98372680e-01
9.98443910e-01
9.98520181e-01
9.98600688e-01
9.98684553e-01
9.98770834e-01
9.98858565e-01
9.98946773e-01
9.99034523e-01
9.99120954e-01
9.99205293e-01
9.99286861e-01
9.99365078e-01
9.99439436e-01
9.99509498e-01
9.99574891e-01
9.99635325e-01
9.99690620e-01
9.99740764e-01
9.99785963e-01
9.99826696e-01
9.99863739e-01
9.99898169e-01
9.99931316e-01
9.99964685e-01
9.99999840e-01
1.00003828e+00
1.00008132e+00
1.00012998e+00
1.00018493e+00
1.00024652e+00
1.00031477e+00
1.00038947e+00
1.00047024e+00
1.00055668e+00
1.00064832e+00
1.00074471e+00
1.00084536e+00
1.00094966e+00
1.00105682e+00
1.00116583e+00
1.00127539e+00
1.00138395e+00
1.00148978e+00
1.00159109e+00
1.00168614e+00
1.00177343e+00
1.00185179e+00
1.00192047e+00
1.00197912e+00
1.00202789e+00
1.00206718e+00
1.00209770e+00
1.00212022e+00
1.00213604e+00
1.00214481e+00
9.97987209e-01
9.97998460e-01
9.98019399e-01
9.98049495e-01
9.98088724e-01
9.98136558e-01
9.98192462e-01
9.98255772e-01
9.98325779e-01
9.98401655e-01
9.98482504e-01
9.98567343e-01
9.98655130e-01
9.98744780e-01
9.98835220e-01
9.98925423e-01
9.99014456e-01
9.99101515e-01
9.99185942e-01
9.99267225e-01
9.99344971e-01
9.99418885e-01
9.99488736e-01
9.99554334e-01
9.99615528e-01
9.99672231e-01
9.99724457e-01
9.99772377e-01
9.99816378e-01
9.99857095e-01
9.99895426e-01
9.99932507e-01
9.99969648e-01
1.00000823e+00
1.00004961e+00
1.00009498e+00
1.00014530e+00
1.00020125e+00
1.00026319e+00
1.00033125e+00
1.00040534e+00
1.00048526e+00
1.00057075e+00
1.00066156e+00
1.00075740e+00
1.00085792e+00
1.00096266e+00
1.00107093e+00
1.00118175e+00
1.00129386e+00
1.00140568e+00
1.00151544e+00
1.00162124e+00
1.00172124e+00
1.00181379e+00
1.00189755e+00
1.00197160e+00
1.00203541e+00
1.00208896e+00
1.00213248e+00
1.00216655e+00
1.00219179e+00
1.00220944e+00
1.00221925e+00
9.97920600e-01
9.97932351e-01
9.97954293e-01
9.97986010e-01
9.98027450e-01
9.98078043e-01
9.98137193e-01
9.98204143e-01
9.98278062e-01
9.98357981e-01
9.98442841e-01
9.98531490e-01
9.98622723e-01
9.98715319e-01
9.98808094e-01
9.98899967e-01
9.98990007e-01
9.99077466e-01
9.99161802e-01
9.99242666e-01
9.99319867e-01
9.99393322e-01
9.99463017e-01
9.99528954e-01
9.99591132e-01
9.99649561e-01
9.99704288e-01
9.99755450e-01
9.99803331e-01
9.99848414e-01
9.99891407e-01
9.99933228e-01
9.99974965e-01
1.00001780e+00
1.00006291e+00
1.00011136e+00
1.00016403e+00
1.00022158e+00
1.00028442e+00
1.00035274e+00
1.00042658e+00
1.00050591e+00
1.00059064e+00
1.00068069e+00
1.00077593e+00
1.00087619e+00
1.00098112e+00
1.00109012e+00
1.00120229e+00
1.00131638e+00
1.00143084e+00
1.00154383e+00
1.00165341e+00
1.00175764e+00
1.00185475e+00
1.00194324e+00
1.00202204e+00
1.00209046e+00
1.00214829e+00
1.00219560e+00
1.00223283e+00
1.00226047e+00
1.00227965e+00
1.00229021e+00
9.97857765e-01
9.97869729e-01
9.97892278e-01
9.97925125e-01
9.97968194e-01
9.98020895e-01
9.98082596e-01
9.98152473e-01
9.98229590e-01
9.98312856e-01
9.98401071e-01
9.98492924e-01
9.98587056e-01
9.98682115e-01
9.98776819e-01
9.98870026e-01
9.98960803e-01
9.99048464e-01
9.99132574e-01
9.99212943e-01
9.99289582e-01
9.99362625e-01
9.99432268e-01
9.99498712e-01
9.99562117e-01
9.99622590e-01
9.99680216e-01
9.99735101e-01
9.99787430e-01
9.99837525e-01
9.99885891e-01
9.99933218e-01
9.99980357e-01
1.00002827e+00
1.00007792e+00
1.00013025e+00
1.00018603e+00
1.00024589e+00
1.00031026e+00
1.00037939e+00
1.00045346e+00
1.00053256e+00
1.00061678e+00
1.00070620e+00
1.00080087e+00
1.00090074e+00
1.00100559e+00
1.00111493e+00
1.00122793e+00
1.00134340e+00
1.00145977e+00
1.00157523e+00
1.00168778e+00
1.00179541e+00
1.00189627e+00
1.00198872e+00
1.00207156e+00
1.00214393e+00
1.00220546e+00
1.00225606e+00
1.00229600e+00
1.00232567e+00
1.00234605e+00
1.00235709e+00
9.97799052e-01
9.97810937e-01
9.97833696e-01
9.97867163e-01
9.97911249e-01
9.97965375e-01
9.98028884e-01
9.98100909e-01
9.98180442e-01
9.98266288e-01
9.98357118e-01
9.98451490e-01
9.98547908e-01
9.98644893e-01
9.98741072e-01
9.98835255e-01
9.98926503e-01
9.99014181e-01
9.99097968e-01
9.99177823e-01
9.99253942e-01
9.99326675e-01
9.99396429e-01
9.99463595e-01
9.99528492e-01
9.99591336e-01
9.99652250e-01
9.99711311e-01
9.99768611e-01
9.99824315e-01
9.99878718e-01
9.99932277e-01
9.99985597e-01
1.00003939e+00
1.00009443e+00
1.00015147e+00
1.00021119e+00
1.00027413e+00
1.00034074e+00
1.00041134e+00
1.00048618e+00
1.00056550e+00
1.00064953e+00
1.00073851e+00
1.00083264e+00
1.00093201e+00
1.00103653e+00
1.00114579e+00
1.00125907e+00
1.00137523e+00
1.00149276e+00
1.00160985e+00
1.00172449e+00
1.00183465e+00
1.00193837e+00
1.00203397e+00
1.00212006e+00
1.00219568e+00
1.00226028e+00
1.00231360e+00
1.00235578e+00
1.00238708e+00
1.00240833e+00
1.00241954e+00
9.97744662e-01
9.97756187e-01
9.97778765e-01
9.97812351e-01
9.97856844e-01
9.97911697e-01
9.97976251e-01
9.98049617e-01
9.98130736e-01
9.98218335e-01
9.98310982e-01
9.98407120e-01
9.98505142e-01
9.98603458e-01
9.98700614e-01
9.98795382e-01
9.98886824e-01
9.98974349e-01
9.99057738e-01
9.99137099e-01
9.99212799e-01
9.99285380e-01
9.99355461e-01
9.99423613e-01
9.99490304e-01
9.99555859e-01
9.99620447e-01
9.99684120e-01
9.99746880e-01
9.99808743e-01
9.99869804e-01
9.99930278e-01
9.99990521e-01
1.00005100e+00
1.00011226e+00
1.00017487e+00
1.00023936e+00
1.00030622e+00
1.00037586e+00
1.00044863e+00
1.00052487e+00
1.00060491e+00
1.00068913e+00
1.00077788e+00
1.00087153e+00
1.00097028e+00
1.00107417e+00
1.00118292e+00
1.00129590e+00
1.00141203e+00
1.00152990e+00
1.00164772e+00
1.00176354e+00
1.00187527e+00
1.00198096e+00
1.00207881e+00
1.00216735e+00
1.00224548e+00
1.00231249e+00
1.00236797e+00
1.00241191e+00
1.00244444e+00
1.00246623e+00
1.00247733e+00
9.97694650e-01
9.97705560e-01
9.97727596e-01
9.97760831e-01
9.97805146e-01
9.97860046e-01
9.97924891e-01
9.97998790e-01
9.98080644e-01
9.98169135e-01
9.98262758e-01
9.98359860e-01
9.98458740e-01
9.98557738e-01
9.98655330e-01
9.98750251e-01
9.98841582e-01
9.98928783e-01
9.99011716e-01
9.99090625e-01
9.99166046e-01
9.99238692e-01
9.99309360e-01
9.99378805e-01
9.99447634e-01
9.99516264e-01
9.99584916e-01
9.99653629e-01
9.99722315e-01
9.99790852e-01
9.99859144e-01
9.99927175e-01
9.99995046e-01
1.00006298e+00
1.00013128e+00
1.00020030e+00
1.00027045e+00
1.00034208e+00
1.00041556e+00
1.00049126e+00
1.00056954e+00
1.00065084e+00
1.00073562e+00
1.00082438e+00
1.00091759e+00
1.00101560e+00
1.00111858e+00
1.00122636e+00
1.00133841e+00
1.00145379e+00
1.00157116e+00
1.00168883e+00
1.00180487e+00
1.00191726e+00
1.00202400e+00
1.00212324e+00
1.00221344e+00
1.00229335e+00
1.00236212e+00
1.00241921e+00
1.00246443e+00
1.00249781e+00
1.00251982e+00
1.00253055e+00
9.97648952e-01
9.97659046e-01
9.97680226e-01
9.97712684e-01
9.97756290e-01
9.97810608e-01
9.97875022e-01
9.97948664e-01
9.98030419e-01
9.98118935e-01
9.98212663e-01
9.98309894e-01
9.98408851e-01
9.98507822e-01
9.98605258e-01
9.98699869e-01
9.98790748e-01
9.98877425e-01
9.98959848e-01
9.99038363e-01
9.99113660e-01
9.99186620e-01
9.99258188e-01
9.99329267e-01
9.99400606e-01
9.99472708e-01
9.99545828e-01
9.99619998e-01
9.99695062e-01
9.99770761e-01
9.99846817e-01
9.99922998e-01
9.99999158e-01
1.00007526e+00
1.00015138e+00
1.00022765e+00
1.00030429e+00
1.00038154e+00
1.00045968e+00
1.00053904e+00
1.00062003e+00
1.00070310e+00
1.00078883e+00
1.00087782e+00
1.00097064e+00
1.00106777e+00
1.00116951e+00
1.00127584e+00
1.00138634e+00
1.00150022e+00
1.00161627e+00
1.00173288e+00
1.00184824e+00
1.00196035e+00
1.00206723e+00
1.00216702e+00
1.00225809e+00
1.00233909e+00
1.00240902e+00
1.00246720e+00
1.00251328e+00
1.00254716e+00
1.00256912e+00
1.00257930e+00
9.97607439e-01
9.97616573e-01
9.97636649e-01
9.97667973e-01
9.97710406e-01
9.97763586e-01
9.97826915e-01
9.97899557e-01
9.97980412e-01
9.98068112e-01
9.98161073e-01
9.98257571e-01
9.98355802e-01
9.98454008e-01
9.98550636e-01
9.98644428e-01
9.98734490e-01
9.98820405e-01
9.98902229e-01
9.98980415e-01
9.99055752e-01
9.99129277e-01
9.99202080e-01
9.99275174e-01
9.99349415e-01
9.99425400e-01
9.99503412e-01
9.99583459e-01
9.99665333e-01
9.99748655e-01
9.99832971e-01
9.99917844e-01
1.00000290e+00
1.00008784e+00
1.00017249e+00
1.00025678e+00
1.00034071e+00
1.00042436e+00
1.00050792e+00
1.00059166e+00
1.00067595e+00
1.00076131e+00
1.00084834e+00
1.00093773e+00
1.00103017e+00
1.00112628e+00
1.00122647e+00
1.00133085e+00
1.00143921e+00
1.00155089e+00
1.00166480e+00
1.00177952e+00
1.00189334e+00
1.00200432e+00
1.00211053e+00
1.00221011e+00
1.00230134e+00
1.00238280e+00
1.00245334e+00
1.00251215e+00
1.00255870e+00
1.00259279e+00
1.00261449e+00
1.00262393e+00
9.97569981e-01
9.97578073e-01
9.97596868e-01
9.97626796e-01
9.97667678e-01
9.97719241e-01
9.97780922e-01
9.97851904e-01
9.97931103e-01
9.98017183e-01
9.98108546e-01
9.98203451e-01
9.98300121e-01
9.98396811e-01
9.98491957e-01
9.98584354e-01
9.98673189e-01
9.98758085e-01
9.98839176e-01
9.98917050e-01
9.98992596e-01
9.99066934e-01
9.99141290e-01
9.99216791e-01
9.99294353e-01
9.99374631e-01
9.99457956e-01
9.99544309e-01
9.99633406e-01
9.99724773e-01
9.99817804e-01
9.99911857e-01
1.00000633e+00
1.00010069e+00
1.00019452e+00
1.00028749e+00
1.00037940e+00
1.00047017e+00
1.00055983e+00
1.00064856e+00
1.00073670e+00
1.00082476e+00
1.00091338e+00
1.00100332e+00
1.00109538e+00
1.00119028e+00
1.00128857e+00
1.00139057e+00
1.00149620e+00
1.00160498e+00
1.00171603e+00
1.00182809e+00
1.00193955e+00
1.00204861e+00
1.00215341e+00
1.00225205e+00
1.00234281e+00
1.00242417e+00
1.00249485e+00
1.00255389e+00
1.00260060e+00
1.00263468e+00
1.00265596e+00
1.00266464e+00
9.97536495e-01
9.97543551e-01
9.97560966e-01
9.97589318e-01
9.97628384e-01
9.97677951e-01
9.97737503e-01
9.97806265e-01
9.97883143e-01
9.97966840e-01
9.98055812e-01
9.98148316e-01
9.98242587e-01
9.98336971e-01
9.98429959e-01
9.98520363e-01
9.98607481e-01
9.98691054e-01
9.98771262e-01
9.98848780e-01
9.98924642e-01
9.99000040e-01
9.99076251e-01
9.99154511e-01
9.99235806e-01
9.99320798e-01
9.99409833e-01
9.99502890e-01
9.99599610e-01
9.99699406e-01
9.99801540e-01
9.99905185e-01
1.00000952e+00
1.00011377e+00
1.00021729e+00
1.00031949e+00
1.00041995e+00
1.00051840e+00
1.00061471e+00
1.00070893e+00
1.00080136e+00
1.00089245e+00
1.00098287e+00
1.00107345e+00
1.00116507e+00
1.00125857e+00
1.00135468e+00
1.00145388e+00
1.00155625e+00
1.00166155e+00
1.00176912e+00
1.00187783e+00
1.00198626e+00
1.00209277e+00
1.00219552e+00
1.00229265e+00
1.00238242e+00
1.00246322e+00
1.00253364e+00
1.00259258e+00
1.00263921e+00
1.00267309e+00
1.00269385e+00
1.00270172e+00
9.97507034e-01
9.97513154e-01
9.97529180e-01
9.97555843e-01
9.97592925e-01
9.97640249e-01
9.97697286e-01
9.97763335e-01
9.97837340e-01
9.97917987e-01
9.98003794e-01
9.98093125e-01
9.98184229e-01
9.98275502e-01
9.98365603e-01
9.98453430e-01
9.98538317e-01
9.98620164e-01
9.98699290e-01
9.98776394e-01
9.98852595e-01
9.98929221e-01
9.99007578e-01
9.99088912e-01
9.99174286e-01
9.99264387e-01
9.99359513e-01
9.99459618e-01
9.99564304e-01
9.99672863e-01
9.99784407e-01
9.99897954e-01
1.00001248e+00
1.00012697e+00
1.00024053e+00
1.00035235e+00
1.00046177e+00
1.00056830e+00
1.00067162e+00
1.00077170e+00
1.00086869e+00
1.00096302e+00
1.00105538e+00
1.00114663e+00
1.00123771e+00
1.00132964e+00
1.00142329e+00
1.00151928e+00
1.00161795e+00
1.00171930e+00
1.00182281e+00
1.00192759e+00
1.00203246e+00
1.00213584e+00
1.00223597e+00
1.00233111e+00
1.00241944e+00
1.00249927e+00
1.00256911e+00
1.00262772e+00
1.00267410e+00
1.00270766e+00
1.00272787e+00
1.00273508e+00
9.97481879e-01
9.97487201e-01