# vtk DataFile Version 2.0
LBM Flow Field - Timestep 300
ASCII
DATASET STRUCTURED_POINTS
DIMENSIONS 64 64 1
ORIGIN 0.0 0.0 0.0
SPACING 1.0 1.0 1.0
POINT_DATA 4096
SCALARS density double 1
LOOKUP_TABLE default
9.95911948e-01
9.95907850e-01
9.95904722e-01
9.95911124e-01
9.95921240e-01
9.95933501e-01
9.95949638e-01
9.95969690e-01
9.95992629e-01
9.96018575e-01
9.96047820e-01
9.96080186e-01
9.96115524e-01
9.96153922e-01
9.96195471e-01
9.96240319e-01
9.96288893e-01
9.96342091e-01
9.96401470e-01
9.96469490e-01
9.96549695e-01
9.96646719e-01
9.96766077e-01
9.96913774e-01
9.97095709e-01
9.97316967e-01
9.97581110e-01
9.97889588e-01
9.98241330e-01
9.98632586e-01
9.99057028e-01
9.99506101e-01
9.99969568e-01
1.00043622e+00
1.00089470e+00
1.00133432e+00
1.00174588e+00
1.00212228e+00
1.00245896e+00
1.00275401e+00
1.00300799e+00
1.00322345e+00
1.00340431e+00
1.00355518e+00
1.00368072e+00
1.00378521e+00
1.00387229e+00
1.00394490e+00
1.00400536e+00
1.00405560e+00
1.00409715e+00
1.00413132e+00
1.00415935e+00
1.00418238e+00
1.00420118e+00
1.00421636e+00
1.00422877e+00
1.00423885e+00
1.00424631e+00
1.00425140e+00
1.00425498e+00
1.00425618e+00
1.00425121e+00
1.00424628e+00
9.95909921e-01
9.95910114e-01
9.95910437e-01
9.95916931e-01
9.95926600e-01
9.95939360e-01
9.95955523e-01
9.95975245e-01
9.95998076e-01
9.96024016e-01
9.96053075e-01
9.96085220e-01
9.96120397e-01
9.96158665e-01
9.96200165e-01
9.96245214e-01
9.96294414e-01
9.96348827e-01
9.96410144e-01
9.96480865e-01
9.96564415e-01
9.96665150e-01
9.96788185e-01
9.96939057e-01
9.97123222e-01
9.97345425e-01
9.97609062e-01
9.97915586e-01
9.98264084e-01
9.98651059e-01
9.99070475e-01
9.99514051e-01
9.99971802e-01
1.00043275e+00
1.00088576e+00
1.00132042e+00
1.00172776e+00
1.00210098e+00
1.00243567e+00
1.00273001e+00
1.00298443e+00
1.00320125e+00
1.00338403e+00
1.00353699e+00
1.00366448e+00
1.00377057e+00
1.00385885e+00
1.00393230e+00
1.00399341e+00
1.00404418e+00
1.00408629e+00
1.00412112e+00
1.00414991e+00
1.00417367e+00
1.00419322e+00
1.00420920e+00
1.00422226e+00
1.00423277e+00
1.00424076e+00
1.00424645e+00
1.00425011e+00
1.00425207e+00
1.00425026e+00
1.00424883e+00
9.95908289e-01
9.95911501e-01
9.95917749e-01
9.95923058e-01
9.95931658e-01
9.95945314e-01
9.95961835e-01
9.95980999e-01
9.96003643e-01
9.96029606e-01
9.96058444e-01
9.96090257e-01
9.96125189e-01
9.96163266e-01
9.96204692e-01
9.96249969e-01
9.96299883e-01
9.96355635e-01
9.96419016e-01
9.96492531e-01
9.96579452e-01
9.96683826e-01
9.96810371e-01
9.96964181e-01
9.97150302e-01
9.97373190e-01
9.97636118e-01
9.97940585e-01
9.98285862e-01
9.98668719e-01
9.99083411e-01
9.99521922e-01
9.99974488e-01
1.00043032e+00
1.00087847e+00
1.00130869e+00
1.00171225e+00
1.00208252e+00
1.00241526e+00
1.00270868e+00
1.00296315e+00
1.00318079e+00
1.00336486e+00
1.00351930e+00
1.00364818e+00
1.00375540e+00
1.00384447e+00
1.00391846e+00
1.00397996e+00
1.00403108e+00
1.00407362e+00
1.00410911e+00
1.00413870e+00
1.00416329e+00
1.00418380e+00
1.00420093e+00
1.00421483e+00
1.00422584e+00
1.00423478e+00
1.00424160e+00
1.00424514e+00
1.00424690e+00
1.00424983e+00
1.00425122e+00
9.95913304e-01
9.95915499e-01
9.95921018e-01
9.95927906e-01
9.95938002e-01
9.95951004e-01
9.95967080e-01
9.95986481e-01
9.96009046e-01
9.96034542e-01
9.96063023e-01
9.96094524e-01
9.96129046e-01
9.96166758e-01
9.96208056e-01
9.96253568e-01
9.96304260e-01
9.96361551e-01
9.96427380e-01
9.96504268e-01
9.96595373e-01
9.96704462e-01
9.96835804e-01
9.96993958e-01
9.97183432e-01
9.97408225e-01
9.97671300e-01
9.97974042e-01
9.98315799e-01
9.98693578e-01
9.99101975e-01
9.99533381e-01
9.99978465e-01
1.00042688e+00
1.00086809e+00
1.00129226e+00
1.00169099e+00
1.00205788e+00
1.00238878e+00
1.00268181e+00
1.00293712e+00
1.00315643e+00
1.00334261e+00
1.00349919e+00
1.00362994e+00
1.00373861e+00
1.00382871e+00
1.00390339e+00
1.00396538e+00
1.00401700e+00
1.00406015e+00
1.00409636e+00
1.00412687e+00
1.00415260e+00
1.00417425e+00
1.00419238e+00
1.00420744e+00
1.00421968e+00
1.00422923e+00
1.00423640e+00
1.00424161e+00
1.00424497e+00
1.00424798e+00
1.00424906e+00
9.95918884e-01
9.95920667e-01
9.95924732e-01
9.95932883e-01
9.95943558e-01
9.95955999e-01
9.95972026e-01
9.95991522e-01
9.96013730e-01
9.96038776e-01
9.96066913e-01
9.96097987e-01
9.96132017e-01
9.96169374e-01
9.96210604e-01
9.96256507e-01
9.96308305e-01
9.96367665e-01
9.96436682e-01
9.96517894e-01
9.96614298e-01
9.96729299e-01
9.96866624e-01
9.97030185e-01
9.97223840e-01
9.97451037e-01
9.97714369e-01
9.98015082e-01
9.98352610e-01
9.98724239e-01
9.99124980e-01
9.99547721e-01
9.99983661e-01
1.00042299e+00
1.00085569e+00
1.00127243e+00
1.00166519e+00
1.00202787e+00
1.00235643e+00
1.00264892e+00
1.00290519e+00
1.00312656e+00
1.00331541e+00
1.00347476e+00
1.00360804e+00
1.00371878e+00
1.00381043e+00
1.00388621e+00
1.00394902e+00
1.00400140e+00
1.00404539e+00
1.00408258e+00
1.00411422e+00
1.00414132e+00
1.00416439e+00
1.00418381e+00
1.00420015e+00
1.00421375e+00
1.00422431e+00
1.00423207e+00
1.00423846e+00
1.00424322e+00
1.00424568e+00
1.00424671e+00
9.95923574e-01
9.95925565e-01
9.95930251e-01
9.95937757e-01
9.95947800e-01
9.95960917e-01
9.95977073e-01
9.95995935e-01
9.96017788e-01
9.96042674e-01
9.96070360e-01
9.96100876e-01
9.96134525e-01
9.96171693e-01
9.96213031e-01
9.96259624e-01
9.96312958e-01
9.96374890e-01
9.96447658e-01
9.96533824e-01
9.96636201e-01
9.96757803e-01
9.96901801e-01
9.97071433e-01
9.97269856e-01
9.97499900e-01
9.97763719e-01
9.98062346e-01
9.98395254e-01
9.98759989e-01
9.99152006e-01
9.99564760e-01
9.99990092e-01
1.00041885e+00
1.00084169e+00
1.00124983e+00
1.00163574e+00
1.00199362e+00
1.00231952e+00
1.00261135e+00
1.00286865e+00
1.00309225e+00
1.00328399e+00
1.00344643e+00
1.00358259e+00
1.00369577e+00
1.00378935e+00
1.00386665e+00
1.00393070e+00
1.00398417e+00
1.00402926e+00
1.00406773e+00
1.00410079e+00
1.00412930e+00
1.00415392e+00
1.00417505e+00
1.00419283e+00
1.00420748e+00
1.00421939e+00
1.00422866e+00
1.00423549e+00
1.00424046e+00
1.00424365e+00
1.00424487e+00
9.95929266e-01
9.95930865e-01
9.95935534e-01
9.95942478e-01
9.95952381e-01
9.95965610e-01
9.95981385e-01
9.95999915e-01
9.96021558e-01
9.96046015e-01
9.96073156e-01
9.96103244e-01
9.96136579e-01
9.96173621e-01
9.96215277e-01
9.96262888e-01
9.96318157e-01
9.96383155e-01
9.96460256e-01
9.96552005e-01
9.96661004e-01
9.96789858e-01
9.96941149e-01
9.97117405e-01
9.97321047e-01
9.97554248e-01
9.97818672e-01
9.98115099e-01
9.98443006e-01
9.98800197e-01
9.99182593e-01
9.99584268e-01
9.99997779e-01
1.00041473e+00
1.00082652e+00
1.00122501e+00
1.00160321e+00
1.00195563e+00
1.00227842e+00
1.00256935e+00
1.00282761e+00
1.00305354e+00
1.00324842e+00
1.00341429e+00
1.00355377e+00
1.00366988e+00
1.00376591e+00
1.00384518e+00
1.00391088e+00
1.00396580e+00
1.00401228e+00
1.00405219e+00
1.00408681e+00
1.00411694e+00
1.00414318e+00
1.00416596e+00
1.00418534e+00
1.00420134e+00
1.00421446e+00
1.00422495e+00
1.00423255e+00
1.00423779e+00
1.00424128e+00
1.00424245e+00
9.95935224e-01
9.95936007e-01
9.95939989e-01
9.95947025e-01
9.95956919e-01
9.95969455e-01
9.95984870e-01
9.96003349e-01
9.96024537e-01
9.96048381e-01
9.96075118e-01
9.96104874e-01
9.96137931e-01
9.96175049e-01
9.96217373e-01
9.96266400e-01
9.96324066e-01
9.96392668e-01
9.96474665e-01
9.96572535e-01
9.96688658e-01
9.96825226e-01
9.96984223e-01
9.97167467e-01
9.97376639e-01
9.97613233e-01
9.97878382e-01
9.98172565e-01
9.98495222e-01
9.98844386e-01
9.99216442e-01
9.99606124e-01
1.00000677e+00
1.00041083e+00
1.00081051e+00
1.00119841e+00
1.00156810e+00
1.00191444e+00
1.00223367e+00
1.00252341e+00
1.00278249e+00
1.00301075e+00
1.00320893e+00
1.00337852e+00
1.00352172e+00
1.00364128e+00
1.00374032e+00
1.00382214e+00
1.00388998e+00
1.00394679e+00
1.00399503e+00
1.00403658e+00
1.00407283e+00
1.00410473e+00
1.00413270e+00
1.00415700e+00
1.00417791e+00
1.00419556e+00
1.00420987e+00
1.00422108e+00
1.00422961e+00
1.00423562e+00
1.00423915e+00
1.00423998e+00
9.95940084e-01
9.95940486e-01
9.95944030e-01
9.95950753e-01
9.95960210e-01
9.95972322e-01
9.95987481e-01
9.96005485e-01
9.96026118e-01
9.96049562e-01
9.96075913e-01
9.96105310e-01
9.96138308e-01
9.96175845e-01
9.96219200e-01
9.96270112e-01
9.96330755e-01
9.96403553e-01
9.96491002e-01
9.96595495e-01
9.96719157e-01
9.96863746e-01
9.97030669e-01
9.97221058e-01
9.97435874e-01
9.97675934e-01
9.97941833e-01
9.98233719e-01
9.98550955e-01
9.98891769e-01
9.99253003e-01
9.99630057e-01
1.00001709e+00
1.00040745e+00
1.00079420e+00
1.00117074e+00
1.00153122e+00
1.00187085e+00
1.00218600e+00
1.00247415e+00
1.00273378e+00
1.00296425e+00
1.00316576e+00
1.00333932e+00
1.00348666e+00
1.00361020e+00
1.00371288e+00
1.00379791e+00
1.00386852e+00
1.00392771e+00
1.00397806e+00
1.00402156e+00
1.00405963e+00
1.00409323e+00
1.00412291e+00
1.00414885e+00
1.00417124e+00
1.00419023e+00
1.00420578e+00
1.00421796e+00
1.00422723e+00
1.00423372e+00
1.00423741e+00
1.00423824e+00
9.95943511e-01
9.95943519e-01
9.95946848e-01
9.95952948e-01
9.95961844e-01
9.95973683e-01
9.95988353e-01
9.96005713e-01
9.96025929e-01
9.96049000e-01
9.96074936e-01
9.96104167e-01
9.96137429e-01
9.96175728e-01
9.96220561e-01
9.96273930e-01
9.96338153e-01
9.96415722e-01
9.96509139e-01
9.96620670e-01
9.96752152e-01
9.96904916e-01
9.97079822e-01
9.97277364e-01
9.97497816e-01
9.97741347e-01
9.98008016e-01
9.98297610e-01
9.98609376e-01
9.98941696e-01
9.99291836e-01
9.99655862e-01
1.00002877e+00
1.00040483e+00
1.00077803e+00
1.00114257e+00
1.00149323e+00
1.00182560e+00
1.00213617e+00
1.00242230e+00
1.00268215e+00
1.00291465e+00
1.00311951e+00
1.00329722e+00
1.00344910e+00
1.00357719e+00
1.00368416e+00
1.00377309e+00
1.00384714e+00
1.00390929e+00
1.00396216e+00
1.00400789e+00
1.00404796e+00
1.00408332e+00
1.00411461e+00
1.00414216e+00
1.00416600e+00
1.00418614e+00
1.00420280e+00
1.00421602e+00
1.00422589e+00
1.00423266e+00
1.00423673e+00
1.00423749e+00
9.95945228e-01
9.95944563e-01
9.95947361e-01
9.95952900e-01
9.95961293e-01
9.95972556e-01
9.95986598e-01
9.96003479e-01
9.96023245e-01
9.96045850e-01
9.96071560e-01
9.96100921e-01
9.96134722e-01
9.96174200e-01
9.96221101e-01
9.96277554e-01
9.96345975e-01
9.96428914e-01
9.96528804e-01
9.96647716e-01
9.96787186e-01
9.96948142e-01
9.97130935e-01
9.97335472e-01
9.97561413e-01
9.97808328e-01
9.98075749e-01
9.98363096e-01
9.98669459e-01
9.98993328e-01
9.99332352e-01
9.99683233e-01
1.00004180e+00
1.00040325e+00
1.00076253e+00
1.00111464e+00
1.00145502e+00
1.00177964e+00
1.00208514e+00
1.00236879e+00
1.00262848e+00
1.00286277e+00
1.00307090e+00
1.00325292e+00
1.00340970e+00
1.00354290e+00
1.00365488e+00
1.00374844e+00
1.00382663e+00
1.00389237e+00
1.00394829e+00
1.00399653e+00
1.00403874e+00
1.00407597e+00
1.00410887e+00
1.00413781e+00
1.00416295e+00
1.00418427e+00
1.00420186e+00
1.00421583e+00
1.00422628e+00
1.00423335e+00
1.00423746e+00
1.00423788e+00
9.95944123e-01
9.95942591e-01
9.95944700e-01
9.95949645e-01
9.95957404e-01
9.95967925e-01
9.95981377e-01
9.95997763e-01
9.96017012e-01
9.96039287e-01
9.96065008e-01
9.96094744e-01
9.96129470e-01
9.96170681e-01
9.96220262e-01
9.96280441e-01
9.96353713e-01
9.96442608e-01
9.96549411e-01
9.96675963e-01
9.96823495e-01
9.96992548e-01
9.97183014e-01
9.97394294e-01
9.97625509e-01
9.97875683e-01
9.98143856e-01
9.98429073e-01
9.98730234e-01
9.99045882e-01
9.99373997e-01
9.99711877e-01
1.00005616e+00
1.00040297e+00
1.00074817e+00
1.00108763e+00
1.00141740e+00
1.00173390e+00
1.00203390e+00
1.00231465e+00
1.00257383e+00
1.00280964e+00
1.00302098e+00
1.00320744e+00
1.00336946e+00
1.00350831e+00
1.00362597e+00
1.00372494e+00
1.00380801e+00
1.00387799e+00
1.00393749e+00
1.00398865e+00
1.00403318e+00
1.00407234e+00
1.00410686e+00
1.00413710e+00
1.00416334e+00
1.00418567e+00
1.00420406e+00
1.00421853e+00
1.00422939e+00
1.00423665e+00
1.00424057e+00
1.00424038e+00
9.95938903e-01
9.95936394e-01
9.95937737e-01
9.95941865e-01
9.95948833e-01
9.95958653e-01
9.95971484e-01
9.95987268e-01
9.96006104e-01
9.96028265e-01
9.96054186e-01
9.96084626e-01
9.96120808e-01
9.96164346e-01
9.96217244e-01
9.96281848e-01
9.96360650e-01
9.96456051e-01
9.96570151e-01
9.96704538e-01
9.96860120e-01
9.97037076e-01
9.97234910e-01
9.97452604e-01
9.97688820e-01
9.97942110e-01
9.98211063e-01
9.98494348e-01
9.98790645e-01
9.99098497e-01
9.99416154e-01
9.99741453e-01
1.00007179e+00
1.00040420e+00
1.00073546e+00
1.00106226e+00
1.00138131e+00
1.00168944e+00
1.00198364e+00
1.00226113e+00
1.00251945e+00
1.00275656e+00
1.00297100e+00
1.00316200e+00
1.00332959e+00
1.00347461e+00
1.00359861e+00
1.00370373e+00
1.00379246e+00
1.00386738e+00
1.00393101e+00
1.00398553e+00
1.00403271e+00
1.00407388e+00
1.00410996e+00
1.00414148e+00
1.00416870e+00
1.00419176e+00
1.00421074e+00
1.00422560e+00
1.00423658e+00
1.00424369e+00
1.00424726e+00
1.00424624e+00
9.95928152e-01
9.95924421e-01
9.95924858e-01
9.95928050e-01
9.95934162e-01
9.95943238e-01
9.95955388e-01
9.95970635e-01
9.95989218e-01
9.96011434e-01
9.96037858e-01
9.96069478e-01
9.96107667e-01
9.96154161e-01
9.96211097e-01
9.96280850e-01
9.96365819e-01
9.96468239e-01
9.96589976e-01
9.96732322e-01
9.96895867e-01
9.97080474e-01
9.97285332e-01
9.97509084e-01
9.97750027e-01
9.98006317e-01
9.98276136e-01
9.98557786e-01
9.98849697e-01
9.99150363e-01
9.99458235e-01
9.99771624e-01
1.00008863e+00
1.00040715e+00
1.00072484e+00
1.00103921e+00
1.00134761e+00
1.00164731e+00
1.00193553e+00
1.00220953e+00
1.00246675e+00
1.00270497e+00
1.00292244e+00
1.00311808e+00
1.00329153e+00
1.00344319e+00
1.00357416e+00
1.00368615e+00
1.00378129e+00
1.00386188e+00
1.00393027e+00
1.00398862e+00
1.00403878e+00
1.00408219e+00
1.00411989e+00
1.00415260e+00
1.00418069e+00
1.00420431e+00
1.00422364e+00
1.00423866e+00
1.00424951e+00
1.00425621e+00
1.00425915e+00
1.00425693e+00
9.95910133e-01
9.95904934e-01
9.95904276e-01
9.95906483e-01
9.95911698e-01
9.95919969e-01
9.95931484e-01
9.95946350e-01
9.95964835e-01
9.95987366e-01
9.96014735e-01
9.96048069e-01
9.96088870e-01
9.96139042e-01
9.96200782e-01
9.96276397e-01
9.96368152e-01
9.96478070e-01
9.96607723e-01
9.96758086e-01
9.96929457e-01
9.97121431e-01
9.97332946e-01
9.97562402e-01
9.97807824e-01
9.98067045e-01
9.98337887e-01
9.98618298e-01
9.98906438e-01
9.99200698e-01
9.99499662e-01
9.99802044e-01
1.00010659e+00
1.00041197e+00
1.00071672e+00
1.00101912e+00
1.00131717e+00
1.00160857e+00
1.00189079e+00
1.00216120e+00
1.00241718e+00
1.00265638e+00
1.00287686e+00
1.00307724e+00
1.00325680e+00
1.00341552e+00
1.00355404e+00
1.00367359e+00
1.00377585e+00
1.00386284e+00
1.00393667e+00
1.00399942e+00
1.00405297e+00
1.00409890e+00
1.00413840e+00
1.00417230e+00
1.00420117e+00
1.00422526e+00
1.00424474e+00
1.00425962e+00
1.00427012e+00
1.00427620e+00
1.00427816e+00
1.00427433e+00
9.95882813e-01
9.95875972e-01
9.95874107e-01
9.95875292e-01
9.95879596e-01
9.95887127e-01
9.95898138e-01
9.95912795e-01
9.95931453e-01
9.95954717e-01
9.95983539e-01
9.96019188e-01
9.96063333e-01
9.96117973e-01
9.96185284e-01
9.96267474e-01
9.96366619e-01
9.96484459e-01
9.96622240e-01
9.96780631e-01
9.96959659e-01
9.97158701e-01
9.97376522e-01
9.97611366e-01
9.97861070e-01
9.98123218e-01
9.98395317e-01
9.98674978e-01
9.98960071e-01
9.99248838e-01
9.99539934e-01
9.99832397e-01
1.00012554e+00
1.00041877e+00
1.00071142e+00
1.00100252e+00
1.00129069e+00
1.00157411e+00
1.00185050e+00
1.00211736e+00
1.00237209e+00
1.00261226e+00
1.00283576e+00
1.00304097e+00
1.00322687e+00
1.00339300e+00
1.00353956e+00
1.00366727e+00
1.00377737e+00
1.00387147e+00
1.00395145e+00
1.00401925e+00
1.00407674e+00
1.00412558e+00
1.00416714e+00
1.00420240e+00
1.00423206e+00
1.00425654e+00
1.00427605e+00
1.00429065e+00
1.00430056e+00
1.00430580e+00
1.00430650e+00
1.00430078e+00
9.95844113e-01
9.95835560e-01
9.95832446e-01
9.95832639e-01
9.95836114e-01
9.95843085e-01
9.95853811e-01
9.95868546e-01
9.95887801e-01
9.95912331e-01
9.95943224e-01
9.95981930e-01
9.96030248e-01
9.96090187e-01
9.96163866e-01
9.96253347e-01
9.96360442e-01
9.96486562e-01
9.96632630e-01
9.96799014e-01
9.96985501e-01
9.97191309e-01
9.97415112e-01
9.97655074e-01
9.97908919e-01
9.98174048e-01
9.98447700e-01
9.98727162e-01
9.99010002e-01
9.99294273e-01
9.99578639e-01
9.99862392e-01
1.00014533e+00
1.00042754e+00
1.00070909e+00
1.00098972e+00
1.00126869e+00
1.00154459e+00
1.00181548e+00
1.00207898e+00
1.00233256e+00
1.00257374e+00
1.00280031e+00
1.00301046e+00
1.00320285e+00
1.00337668e+00
1.00353168e+00
1.00366808e+00
1.00378665e+00
1.00388860e+00
1.00397546e+00
1.00404903e+00
1.00411112e+00
1.00416343e+00
1.00420745e+00
1.00424437e+00
1.00427502e+00
1.00429994e+00
1.00431948e+00
1.00433377e+00
1.00434298e+00
1.00434723e+00
1.00434650e+00
1.00433869e+00
9.95792090e-01
9.95781893e-01
9.95777587e-01
9.95776972e-01
9.95779839e-01
9.95786538e-01
9.95797342e-01
9.95812635e-01
9.95833057e-01
9.95859519e-01
9.95893277e-01
9.95935924e-01
9.95989315e-01
9.96055448e-01
9.96136328e-01
9.96233789e-01
9.96349332e-01
9.96484034e-01
9.96638485e-01
9.96812772e-01
9.97006495e-01
9.97218775e-01
9.97448261e-01
9.97693108e-01
9.97950997e-01
9.98219198e-01
9.98494720e-01
9.98774544e-01
9.99055929e-01
9.99336707e-01
9.99615498e-01
9.99891780e-01
1.00016577e+00
1.00043816e+00
1.00070969e+00
1.00098079e+00
1.00125130e+00
1.00152029e+00
1.00178609e+00
1.00204653e+00
1.00229915e+00
1.00254146e+00
1.00277116e+00
1.00298630e+00
1.00318529e+00
1.00336699e+00
1.00353071e+00
1.00367623e+00
1.00380384e+00
1.00391431e+00
1.00400885e+00
1.00408898e+00
1.00415645e+00
1.00421294e+00
1.00426005e+00
1.00429911e+00
1.00433112e+00
1.00435677e+00
1.00437651e+00
1.00439059e+00
1.00439916e+00
1.00440249e+00
1.00440029e+00
1.00439040e+00
9.95725201e-01
9.95713660e-01
9.95708377e-01
9.95707296e-01
9.95709948e-01
9.95716842e-01
9.95728281e-01
9.95744797e-01
9.95767142e-01
9.95796404e-01
9.95833991e-01
9.95881587e-01
9.95941059e-01
9.96014341e-01
9.96103253e-01
9.96209339e-01
9.96333772e-01
9.96477277e-01
9.96640124e-01
9.96822163e-01
9.97022860e-01
9.97241304e-01
9.97476176e-01
9.97725687e-01
9.97987528e-01
9.98258880e-01
9.98536552e-01
9.98817238e-01
9.99097885e-01
9.99376081e-01
9.99650364e-01
9.99920340e-01
1.00018658e+00
1.00045030e+00
1.00071288e+00
1.00097540e+00
1.00123825e+00
1.00150094e+00
1.00176214e+00
1.00201986e+00
1.00227173e+00
1.00251527e+00
1.00274815e+00
1.00296827e+00
1.00317384e+00
1.00336345e+00
1.00353604e+00
1.00369097e+00
1.00382808e+00
1.00394771e+00
1.00405069e+00
1.00413828e+00
1.00421203e+00
1.00427361e+00
1.00432463e+00
1.00436655e+00
1.00440053e+00
1.00442743e+00
1.00444780e+00
1.00446202e+00
1.00447025e+00
1.00447293e+00
1.00446942e+00
1.00445778e+00
9.95642668e-01
9.95630370e-01
9.95624543e-01
9.95623524e-01
9.95626554e-01
9.95634336e-01
9.95647185e-01
9.95665794e-01
9.95691043e-01
9.95724183e-01
9.95766726e-01
9.95820407e-01
9.95887063e-01
9.95968478e-01
9.96066222e-01
9.96181523e-01
9.96315195e-01
9.96467616e-01
9.96638771e-01
9.96828325e-01
9.97035669e-01
9.97259919e-01
9.97499849e-01
9.97753769e-01
9.98019416e-01
9.98293917e-01
9.98573904e-01
9.98855799e-01
9.99136244e-01
9.99412576e-01
9.99683216e-01
9.99947858e-01
1.00020737e+00
1.00046344e+00
1.00071802e+00
1.00097279e+00
1.00122869e+00
1.00148566e+00
1.00174269e+00
1.00199799e+00
1.00224929e+00
1.00249413e+00
1.00273014e+00
1.00295511e+00
1.00316713e+00
1.00336452e+00
1.00354595e+00
1.00371041e+00
1.00385734e+00
1.00398667e+00
1.00409884e+00
1.00419480e+00
1.00427586e+00
1.00434357e+00
1.00439955e+00
1.00444532e+00
1.00448216e+00
1.00451109e+00
1.00453279e+00
1.00454780e+00
1.00455625e+00
1.00455883e+00
1.00455448e+00
1.00454179e+00
9.95544911e-01
9.95532740e-01
9.95527034e-01
9.95526816e-01
9.95531046e-01
9.95540629e-01
9.95555892e-01
9.95577697e-01
9.95607048e-01
9.95645328e-01
9.95694107e-01
9.95755125e-01
9.95830108e-01
9.95920623e-01
9.96027940e-01
9.96152939e-01
9.96296064e-01
9.96457369e-01
9.96636607e-01
9.96833315e-01
9.97046871e-01
9.97276477e-01
9.97521047e-01
9.97779022e-01
9.98048208e-01
9.98325698e-01
9.98607964e-01
9.98891173e-01
9.99171674e-01
9.99446553e-01
9.99714107e-01
9.99974084e-01
1.00022761e+00
1.00047678e+00
1.00072408e+00
1.00097176e+00
1.00122125e+00
1.00147294e+00
1.00172612e+00
1.00197919e+00
1.00222997e+00
1.00247605e+00
1.00271499e+00
1.00294454e+00
1.00316265e+00
1.00336750e+00
1.00355752e+00
1.00373142e+00
1.00388831e+00
1.00402774e+00
1.00414976e+00
1.00425498e+00
1.00434442e+00
1.00441946e+00
1.00448162e+00
1.00453246e+00
1.00457331e+00
1.00460535e+00
1.00462938e+00
1.00464610e+00
1.00465565e+00
1.00465894e+00
1.00465455e+00
1.00464190e+00
9.95433895e-01
9.95423018e-01
9.95418324e-01
9.95419856e-01
9.95426326e-01
9.95438827e-01
9.95457720e-01
9.95484035e-01
9.95518864e-01
9.95563690e-01
9.95620093e-01
9.95689739e-01
9.95774166e-01
9.95874670e-01
9.95992174e-01
9.96127178e-01
9.96279778e-01
9.96449747e-01
9.96636654e-01
9.96839979e-01
9.97059155e-01
9.97293522e-01
9.97542163e-01
9.97803675e-01
9.98075942e-01
9.98356026e-01
9.98640256e-01
9.98924559e-01
9.99205012e-01
9.99478467e-01
9.99743098e-01
9.99998694e-01
1.00024660e+00
1.00048929e+00
1.00072973e+00
1.00097069e+00
1.00121409e+00
1.00146072e+00
1.00171016e+00
1.00196101e+00
1.00221116e+00
1.00245822e+00
1.00269972e+00
1.00293336e+00
1.00315700e+00
1.00336872e+00
1.00356682e+00
1.00374982e+00
1.00391656e+00
1.00406626e+00
1.00419863e+00
1.00431390e+00
1.00441278e+00
1.00449638e+00
1.00456608e+00
1.00462335e+00
1.00466959e+00
1.00470607e+00
1.00473367e+00
1.00475330e+00
1.00476510e+00
1.00477020e+00
1.00476684e+00
1.00475569e+00
9.95313400e-01
9.95305203e-01
9.95302616e-01
9.95306996e-01
9.95316919e-01
9.95333619e-01
9.95357517e-01
9.95389787e-01
9.95431577e-01
9.95484421e-01
9.95549837e-01
9.95629341e-01
9.95724211e-01
9.95835414e-01
9.95963491e-01
9.96108561e-01
9.96270398e-01
9.96448547e-01
9.96642465e-01
9.96851645e-01
9.97075640e-01
9.97313969e-01
9.97565910e-01
9.97830218e-01
9.98104858e-01
9.98386856e-01
9.98672400e-01
9.98957206e-01
9.99237101e-01
9.99508733e-01
9.99770171e-01
1.00002125e+00
1.00026350e+00
1.00049975e+00
1.00073343e+00
1.00096774e+00
1.00120509e+00
1.00144663e+00
1.00169223e+00
1.00194063e+00
1.00218982e+00
1.00243739e+00
1.00268085e+00
1.00291784e+00
1.00314618e+00
1.00336393e+00
1.00356931e+00
1.00376075e+00
1.00393691e+00
1.00409677e+00
1.00423973e+00
1.00436564e+00
1.00447485e+00
1.00456818e+00
1.00464675e+00
1.00471191e+00
1.00476501e+00
1.00480739e+00
1.00484000e+00
1.00486390e+00
1.00487931e+00
1.00488747e+00
1.00488647e+00
1.00487852e+00
9.95189125e-01
9.95185091e-01
9.95185840e-01
9.95194238e-01
9.95208910e-01
9.95231166e-01
9.95261498e-01
9.95301187e-01
9.95351411e-01
9.95413676e-01
9.95489359e-01
9.95579755e-01
9.95685817e-01
9.95808125e-01
9.95946824e-01
9.96101677e-01
9.96272171e-01
9.96457690e-01
9.96657663e-01
9.96871666e-01
9.97099422e-01
9.97340673e-01
9.97594903e-01
9.97861016e-01
9.98137039e-01
9.98419960e-01
9.98705831e-01
9.98990169e-01
9.99268597e-01
9.99537596e-01
9.99795159e-01
1.00004117e+00
1.00027737e+00
1.00050690e+00
1.00073357e+00
1.00096104e+00
1.00119212e+00
1.00142831e+00
1.00166973e+00
1.00191526e+00
1.00216294e+00
1.00241033e+00
1.00265491e+00
1.00289427e+00
1.00312623e+00
1.00334886e+00
1.00356040e+00
1.00375927e+00
1.00394407e+00
1.00411360e+00
1.00426700e+00
1.00440380e+00
1.00452396e+00
1.00462794e+00
1.00471655e+00
1.00479095e+00
1.00485235e+00
1.00490209e+00
1.00494117e+00
1.00497076e+00
1.00499119e+00
1.00500372e+00
1.00500652e+00
1.00500352e+00
9.95068558e-01
9.95070104e-01
9.95075430e-01
9.95088989e-01
9.95109667e-01
9.95138769e-01
9.95176880e-01
9.95225331e-01
9.95285277e-01
9.95358126e-01
9.95445033e-01
9.95546994e-01
9.95664582e-01
9.95797966e-01
9.95946889e-01
9.96110795e-01
9.96288953e-01
9.96480655e-01
9.96685380e-01
9.96902867e-01
9.97133060e-01
9.97375936e-01
9.97631195e-01
9.97897873e-01
9.98174028e-01
9.98456598e-01
9.98741503e-01
9.99024086e-01
9.99299803e-01
9.99565021e-01
9.99817702e-01
1.00005781e+00
1.00028728e+00
1.00050953e+00
1.00072875e+00
1.00094898e+00
1.00117339e+00
1.00140381e+00
1.00164055e+00
1.00188261e+00
1.00212805e+00
1.00237440e+00
1.00261906e+00
1.00285960e+00
1.00309386e+00
1.00331994e+00
1.00353620e+00
1.00374113e+00
1.00393336e+00
1.00411161e+00
1.00427484e+00
1.00442229e+00
1.00455356e+00
1.00466870e+00
1.00476818e+00
1.00485286e+00
1.00492376e+00
1.00498213e+00
1.00502899e+00
1.00506555e+00
1.00509228e+00
1.00511037e+00
1.00511835e+00
1.00512188e+00
9.94960567e-01
9.94968863e-01
9.94979885e-01
9.94999577e-01
9.95027337e-01
9.95064353e-01
9.95111332e-01
9.95169579e-01
9.95240169e-01
9.95324330e-01
9.95422936e-01
9.95536604e-01
9.95665489e-01
9.95809348e-01
9.95967549e-01
9.96139256e-01
9.96323607e-01
9.96519896e-01
9.96727721e-01
9.96947046e-01
9.97178090e-01
9.97421074e-01
9.97675888e-01
9.97941683e-01
9.98216523e-01
9.98497259e-01
9.98779690e-01
9.99059017e-01
9.99330571e-01
9.99590657e-01
9.99837264e-01
1.00007046e+00
1.00029237e+00
1.00050669e+00
1.00071793e+00
1.00093045e+00
1.00114776e+00
1.00137191e+00
1.00160341e+00
1.00184133e+00
1.00208371e+00
1.00232803e+00
1.00257162e+00
1.00281199e+00
1.00304701e+00
1.00327489e+00
1.00349413e+00
1.00370339e+00
1.00390139e+00
1.00408692e+00
1.00425881e+00
1.00441609e+00
1.00455801e+00
1.00468426e+00
1.00479489e+00
1.00489041e+00
1.00497156e+00
1.00503945e+00
1.00509502e+00
1.00513950e+00
1.00517352e+00
1.00519806e+00
1.00521236e+00
1.00522351e+00
9.94874746e-01
9.94890536e-01
9.94908105e-01
9.94934588e-01
9.94970156e-01
9.95015777e-01
9.95072271e-01
9.95140850e-01
9.95222458e-01
9.95318050e-01
9.95428161e-01
9.95552998e-01
9.95692266e-01
9.95845325e-01
9.96011231e-01
9.96188939e-01
9.96377527e-01
9.96576396e-01
9.96785349e-01
9.97004614e-01
9.97234711e-01
9.97476122e-01
9.97728893e-01
9.97992240e-01
9.98264208e-01
9.98541546e-01
9.98819917e-01
9.99094412e-01
9.99360298e-01
9.99613874e-01
9.99853198e-01
1.00007848e+00
1.00029206e+00
1.00049786e+00
1.00070065e+00
1.00090509e+00
1.00111492e+00
1.00133240e+00
1.00155815e+00
1.00179128e+00
1.00202981e+00
1.00227109e+00
1.00251239e+00
1.00275117e+00
1.00298531e+00
1.00321316e+00
1.00343340e+00
1.00364491e+00
1.00384664e+00
1.00403748e+00
1.00421628e+00
1.00438189e+00
1.00453334e+00
1.00466992e+00
1.00479127e+00
1.00489750e+00
1.00498904e+00
1.00506674e+00
1.00513145e+00
1.00518429e+00
1.00522610e+00
1.00525751e+00
1.00527883e+00
1.00529807e+00
9.94820561e-01
9.94844003e-01
9.94868558e-01
9.94902054e-01
9.94945663e-01
9.95000049e-01
9.95066120e-01
9.95144907e-01
9.95237193e-01
9.95343586e-01
9.95464225e-01
9.95598894e-01
9.95746884e-01
9.95907168e-01
9.96078561e-01
9.96259932e-01
9.96450380e-01
9.96649475e-01
9.96857325e-01
9.97074474e-01
9.97301724e-01
9.97539810e-01
9.97788919e-01
9.98048266e-01
9.98315826e-01
9.98588241e-01
9.98861038e-01
9.99129216e-01
9.99388037e-01
9.99633858e-01
9.99864853e-01
1.00008141e+00
1.00028607e+00
1.00048296e+00
1.00067708e+00
1.00087328e+00
1.00107548e+00
1.00128606e+00
1.00150573e+00
1.00173358e+00
1.00196753e+00
1.00220486e+00
1.00244272e+00
1.00267850e+00
1.00291010e+00
1.00313601e+00
1.00335511e+00
1.00356657e+00
1.00376962e+00
1.00396336e+00
1.00414671e+00
1.00431854e+00
1.00447765e+00
1.00462300e+00
1.00475386e+00
1.00486993e+00
1.00497125e+00
1.00505835e+00
1.00513196e+00
1.00519299e+00
1.00524246e+00
1.00528064e+00
1.00530908e+00
1.00533605e+00
9.94806382e-01
9.94836941e-01
9.94868392e-01
9.94908614e-01
9.94959906e-01
9.95022572e-01
9.95097593e-01
9.95185725e-01
9.95287537e-01
9.95403269e-01
9.95532650e-01
9.95675011e-01
9.95829293e-01
9.95994179e-01
9.96168295e-01
9.96350517e-01
9.96540114e-01
9.96736886e-01
9.96941267e-01
9.97154185e-01
9.97376729e-01
9.97609810e-01
9.97853719e-01
9.98107648e-01
9.98369431e-01
9.98635562e-01
9.98901467e-01
9.99162080e-01
9.99412688e-01
9.99649775e-01
9.99871697e-01
1.00007903e+00
1.00027450e+00
1.00046244e+00
1.00064797e+00
1.00083609e+00
1.00103079e+00
1.00123454e+00
1.00144803e+00
1.00167030e+00
1.00189919e+00
1.00213184e+00
1.00236523e+00
1.00259670e+00
1.00282419e+00
1.00304626e+00
1.00326205e+00
1.00347103e+00
1.00367276e+00
1.00386660e+00
1.00405174e+00
1.00422706e+00
1.00439126e+00
1.00454309e+00
1.00468149e+00
1.00480570e+00
1.00491541e+00
1.00501078e+00
1.00509233e+00
1.00516072e+00
1.00521710e+00
1.00526135e+00
1.00529638e+00
1.00532993e+00
9.94838498e-01
9.94874946e-01
9.94912621e-01
9.94958732e-01
9.95016738e-01
9.95086542e-01
9.95169158e-01
9.95265024e-01
9.95374439e-01
9.95497235e-01
9.95632793e-01
9.95780017e-01
9.95937516e-01
9.96103825e-01
9.96277514e-01
9.96457507e-01
9.96643341e-01
9.96835185e-01
9.97033797e-01
9.97240453e-01
9.97456565e-01
9.97683178e-01
9.97920571e-01
9.98167875e-01
9.98422768e-01
9.98681545e-01
9.98939520e-01
9.99191626e-01
9.99433220e-01
9.99660951e-01
9.99873407e-01
1.00007138e+00
1.00025778e+00
1.00043707e+00
1.00061448e+00
1.00079500e+00
1.00098269e+00
1.00117996e+00
1.00138746e+00
1.00160414e+00
1.00182771e+00
1.00205512e+00
1.00228324e+00
1.00250932e+00
1.00273127e+00
1.00294774e+00
1.00315812e+00
1.00336221e+00
1.00355987e+00
1.00375088e+00
1.00393470e+00
1.00411035e+00
1.00427657e+00
1.00443199e+00
1.00457525e+00
1.00470522e+00
1.00482126e+00
1.00492308e+00
1.00501097e+00
1.00508533e+00
1.00514728e+00
1.00519637e+00
1.00523684e+00
1.00527512e+00
9.94920318e-01
9.94960819e-01
9.95003492e-01
9.95054137e-01
9.95117325e-01
9.95192567e-01
9.95280784e-01
9.95382093e-01
9.95496545e-01
9.95623507e-01
9.95762038e-01
9.95910761e-01
9.96068026e-01
9.96232241e-01
9.96402118e-01
9.96576771e-01
9.96755986e-01
9.96940370e-01
9.97131115e-01
9.97329765e-01
9.97537963e-01
9.97756908e-01
9.97986799e-01
9.98226572e-01
9.98473740e-01
9.98724415e-01
9.98973764e-01
9.99216743e-01
9.99448866e-01
9.99666990e-01
9.99869948e-01
1.00005879e+00
1.00023658e+00
1.00040788e+00
1.00057791e+00
1.00075166e+00
1.00093308e+00
1.00112450e+00
1.00132646e+00
1.00153778e+00
1.00175599e+00
1.00197788e+00
1.00220017e+00
1.00241999e+00
1.00263519e+00
1.00284455e+00
1.00304766e+00
1.00324455e+00
1.00343553e+00
1.00362078e+00
1.00380006e+00
1.00397267e+00
1.00413755e+00
1.00429324e+00
1.00443819e+00
1.00457106e+00
1.00469082e+00
1.00479675e+00
1.00488891e+00
1.00496737e+00
1.00503311e+00
1.00508549e+00
1.00512977e+00
1.00517049e+00
9.95051873e-01
9.95094111e-01