# vtk DataFile Version 2.0
LBM Flow Field - Timestep 250
ASCII
DATASET STRUCTURED_POINTS
DIMENSIONS 64 64 1
ORIGIN 0.0 0.0 0.0
SPACING 1.0 1.0 1.0
POINT_DATA 4096
SCALARS density double 1
LOOKUP_TABLE default
1.00214990e+00
1.00204723e+00
1.00191912e+00
1.00183224e+00
1.00172369e+00
1.00160471e+00
1.00149105e+00
1.00138641e+00
1.00129110e+00
1.00120661e+00
1.00113212e+00
1.00106573e+00
1.00100526e+00
1.00094879e+00
1.00089485e+00
1.00084249e+00
1.00079123e+00
1.00074091e+00
1.00069151e+00
1.00064313e+00
1.00059587e+00
1.00054981e+00
1.00050502e+00
1.00046153e+00
1.00041932e+00
1.00037834e+00
1.00033845e+00
1.00029948e+00
1.00026125e+00
1.00022358e+00
1.00018627e+00
1.00014919e+00
1.00011218e+00
1.00007511e+00
1.00003778e+00
9.99999962e-01
9.99961351e-01
9.99921579e-01
9.99880232e-01
9.99836885e-01
9.99791137e-01
9.99742641e-01
9.99691116e-01
9.99636354e-01
9.99578204e-01
9.99516554e-01
9.99451306e-01
9.99382351e-01
9.99309495e-01
9.99232366e-01
9.99150274e-01
9.99062094e-01
9.98966156e-01
9.98860403e-01
9.98742635e-01
9.98611164e-01
9.98465620e-01
9.98308318e-01
9.98142095e-01
9.97973252e-01
9.97817835e-01
9.97690952e-01
9.97545468e-01
9.97436643e-01
1.00204110e+00
1.00198744e+00
1.00188694e+00
1.00180249e+00
1.00170221e+00
1.00159802e+00
1.00149345e+00
1.00139462e+00
1.00130292e+00
1.00121981e+00
1.00114465e+00
1.00107662e+00
1.00101417e+00
1.00095588e+00
1.00090047e+00
1.00084705e+00
1.00079505e+00
1.00074415e+00
1.00069428e+00
1.00064546e+00
1.00059779e+00
1.00055135e+00
1.00050623e+00
1.00046245e+00
1.00041999e+00
1.00037875e+00
1.00033859e+00
1.00029935e+00
1.00026084e+00
1.00022288e+00
1.00018530e+00
1.00014794e+00
1.00011066e+00
1.00007329e+00
1.00003563e+00
9.99997448e-01
9.99958455e-01
9.99918304e-01
9.99876612e-01
9.99832974e-01
9.99786999e-01
9.99738332e-01
9.99686677e-01
9.99631813e-01
9.99573578e-01
9.99511857e-01
9.99446535e-01
9.99377445e-01
9.99304287e-01
9.99226556e-01
9.99143437e-01
9.99053803e-01
9.98956166e-01
9.98848949e-01
9.98730627e-01
9.98600572e-01
9.98458893e-01
9.98308108e-01
9.98151702e-01
9.97997796e-01
9.97852866e-01
9.97731345e-01
9.97610511e-01
9.97544090e-01
1.00191991e+00
1.00189485e+00
1.00185718e+00
1.00177153e+00
1.00167844e+00
1.00158950e+00
1.00149635e+00
1.00140410e+00
1.00131664e+00
1.00123510e+00
1.00115954e+00
1.00108984e+00
1.00102523e+00
1.00096477e+00
1.00090751e+00
1.00085262e+00
1.00079947e+00
1.00074767e+00
1.00069701e+00
1.00064748e+00
1.00059915e+00
1.00055213e+00
1.00050651e+00
1.00046231e+00
1.00041951e+00
1.00037797e+00
1.00033755e+00
1.00029805e+00
1.00025928e+00
1.00022106e+00
1.00018321e+00
1.00014557e+00
1.00010800e+00
1.00007031e+00
1.00003232e+00
9.99993807e-01
9.99954485e-01
9.99914033e-01
9.99872086e-01
9.99828253e-01
9.99782140e-01
9.99733385e-01
9.99681683e-01
9.99626804e-01
9.99568585e-01
9.99506900e-01
9.99441603e-01
9.99372451e-01
9.99299026e-01
9.99220687e-01
9.99136530e-01
9.99045436e-01
9.98946190e-01
9.98837693e-01
9.98719172e-01
9.98590745e-01
9.98453362e-01
9.98309529e-01
9.98164409e-01
9.98025200e-01
9.97889418e-01
9.97769929e-01
9.97703252e-01
9.97662452e-01
1.00187262e+00
1.00184973e+00
1.00180238e+00
1.00173387e+00
1.00166481e+00
1.00158583e+00
1.00150070e+00
1.00141576e+00
1.00133235e+00
1.00125166e+00
1.00117512e+00
1.00110331e+00
1.00103617e+00
1.00097326e+00
1.00091392e+00
1.00085737e+00
1.00080294e+00
1.00075011e+00
1.00069859e+00
1.00064830e+00
1.00059928e+00
1.00055165e+00
1.00050551e+00
1.00046089e+00
1.00041774e+00
1.00037593e+00
1.00033528e+00
1.00029558e+00
1.00025661e+00
1.00021819e+00
1.00018012e+00
1.00014226e+00
1.00010443e+00
1.00006647e+00
1.00002821e+00
9.99989412e-01
9.99949826e-01
9.99909141e-01
9.99867010e-01
9.99823052e-01
9.99776884e-01
9.99728145e-01
9.99676529e-01
9.99621799e-01
9.99563783e-01
9.99502329e-01
9.99437240e-01
9.99368181e-01
9.99294605e-01
9.99215714e-01
9.99130502e-01
9.99037863e-01
9.98936799e-01
9.98826674e-01
9.98707461e-01
9.98580102e-01
9.98446751e-01
9.98310203e-01
9.98173961e-01
9.98046021e-01
9.97932859e-01
9.97830009e-01
9.97757143e-01
9.97720183e-01
1.00181618e+00
1.00179076e+00
1.00175054e+00
1.00170780e+00
1.00165208e+00
1.00158252e+00
1.00150964e+00
1.00143296e+00
1.00135298e+00
1.00127286e+00
1.00119480e+00
1.00112006e+00
1.00104947e+00
1.00098326e+00
1.00092109e+00
1.00086232e+00
1.00080620e+00
1.00075208e+00
1.00069953e+00
1.00064838e+00
1.00059861e+00
1.00055032e+00
1.00050362e+00
1.00045853e+00
1.00041501e+00
1.00037292e+00
1.00033203e+00
1.00029213e+00
1.00025299e+00
1.00021438e+00
1.00017613e+00
1.00013806e+00
1.00010001e+00
1.00006181e+00
1.00002329e+00
9.99984227e-01
9.99944389e-01
9.99903485e-01
9.99861186e-01
9.99817126e-01
9.99770933e-01
9.99722249e-01
9.99670768e-01
9.99616253e-01
9.99558517e-01
9.99497372e-01
9.99432540e-01
9.99363552e-01
9.99289681e-01
9.99209935e-01
9.99123179e-01
9.99028354e-01
9.98924752e-01
9.98812353e-01
9.98692044e-01
9.98565621e-01
9.98436143e-01
9.98308047e-01
9.98184375e-01
9.98067656e-01
9.97968931e-01
9.97890630e-01
9.97827145e-01
9.97789146e-01
1.00175400e+00
1.00173795e+00
1.00171234e+00
1.00167974e+00
1.00163468e+00
1.00158225e+00
1.00152180e+00
1.00145167e+00
1.00137573e+00
1.00129698e+00
1.00121754e+00
1.00113978e+00
1.00106551e+00
1.00099559e+00
1.00093009e+00
1.00086855e+00
1.00081025e+00
1.00075445e+00
1.00070061e+00
1.00064841e+00
1.00059777e+00
1.00054875e+00
1.00050141e+00
1.00045580e+00
1.00041183e+00
1.00036937e+00
1.00032820e+00
1.00028805e+00
1.00024869e+00
1.00020988e+00
1.00017141e+00
1.00013311e+00
1.00009481e+00
1.00005634e+00
1.00001754e+00
9.99978195e-01
9.99938084e-01
9.99896933e-01
9.99854427e-01
9.99810218e-01
9.99763948e-01
9.99715275e-01
9.99663904e-01
9.99609592e-01
9.99552123e-01
9.99491243e-01
9.99426562e-01
9.99357451e-01
9.99283000e-01
9.99202071e-01
9.99113467e-01
9.99016244e-01
9.98910064e-01
9.98795545e-01
9.98674522e-01
9.98549911e-01
9.98425114e-01
9.98304654e-01
9.98194046e-01
9.98094779e-01
9.98008930e-01
9.97942813e-01
9.97893900e-01
9.97864949e-01
1.00169393e+00
1.00168452e+00
1.00167087e+00
1.00164990e+00
1.00162154e+00
1.00158418e+00
1.00153355e+00
1.00147165e+00
1.00140112e+00
1.00132376e+00
1.00124298e+00
1.00116229e+00
1.00108415e+00
1.00101011e+00
1.00094078e+00
1.00087599e+00
1.00081509e+00
1.00075730e+00
1.00070194e+00
1.00064859e+00
1.00059703e+00
1.00054723e+00
1.00049922e+00
1.00045300e+00
1.00040852e+00
1.00036561e+00
1.00032406e+00
1.00028359e+00
1.00024395e+00
1.00020487e+00
1.00016615e+00
1.00012758e+00
1.00008899e+00
1.00005022e+00
1.00001110e+00
9.99971432e-01
9.99930999e-01
9.99889540e-01
9.99846757e-01
9.99802320e-01
9.99755894e-01
9.99707161e-01
9.99655843e-01
9.99601690e-01
9.99544445e-01
9.99483762e-01
9.99419106e-01
9.99349666e-01
9.99274347e-01
9.99191883e-01
9.99101085e-01
9.99001218e-01
9.98892426e-01
9.98776024e-01
9.98654640e-01
9.98532313e-01
9.98413666e-01
9.98302577e-01
9.98203601e-01
9.98120706e-01
9.98052861e-01
9.98000444e-01
9.97964325e-01
9.97942478e-01
1.00163761e+00
1.00163396e+00
1.00162936e+00
1.00162232e+00
1.00160911e+00
1.00158400e+00
1.00154504e+00
1.00149275e+00
1.00142740e+00
1.00135192e+00
1.00127064e+00
1.00118740e+00
1.00110542e+00
1.00102706e+00
1.00095352e+00
1.00088499e+00
1.00082102e+00
1.00076085e+00
1.00070373e+00
1.00064906e+00
1.00059649e+00
1.00054588e+00
1.00049716e+00
1.00045031e+00
1.00040526e+00
1.00036183e+00
1.00031982e+00
1.00027895e+00
1.00023895e+00
1.00019955e+00
1.00016052e+00
1.00012164e+00
1.00008273e+00
1.00004363e+00
1.00000415e+00
9.99964122e-01
9.99923314e-01
9.99881480e-01
9.99838336e-01
9.99793577e-01
9.99746897e-01
9.99698008e-01
9.99646645e-01
9.99592546e-01
9.99535390e-01
9.99474712e-01
9.99409805e-01
9.99339672e-01
9.99263064e-01
9.99178650e-01
9.99085346e-01
9.98982738e-01
9.98871518e-01
9.98753809e-01
9.98633092e-01
9.98513970e-01
9.98401960e-01
9.98301860e-01
9.98216474e-01
9.98148313e-01
9.98097487e-01
9.98060655e-01
9.98035313e-01
9.98020094e-01
1.00158203e+00
1.00158359e+00
1.00158892e+00
1.00159478e+00
1.00159456e+00
1.00158271e+00
1.00155629e+00
1.00151303e+00
1.00145355e+00
1.00138135e+00
1.00130042e+00
1.00121510e+00
1.00112955e+00
1.00104684e+00
1.00096876e+00
1.00089602e+00
1.00082848e+00
1.00076548e+00
1.00070624e+00
1.00065004e+00
1.00059636e+00
1.00054488e+00
1.00049543e+00
1.00044792e+00
1.00040223e+00
1.00035822e+00
1.00031568e+00
1.00027433e+00
1.00023390e+00
1.00019411e+00
1.00015471e+00
1.00011548e+00
1.00007621e+00
1.00003674e+00
9.99996873e-01
9.99956427e-01
9.99915182e-01
9.99872894e-01
9.99829294e-01
9.99784102e-01
9.99737047e-01
9.99687871e-01
9.99636319e-01
9.99582097e-01
9.99524796e-01
9.99463804e-01
9.99398227e-01
9.99326890e-01
9.99248436e-01
9.99161572e-01
9.99065443e-01
9.98960089e-01
9.98846828e-01
9.98728547e-01
9.98609659e-01
9.98495418e-01
9.98391310e-01
9.98302526e-01
9.98231963e-01
9.98179765e-01
9.98144702e-01
9.98122881e-01
9.98109057e-01
9.98099921e-01
1.00152848e+00
1.00153533e+00
1.00154939e+00
1.00156614e+00
1.00157843e+00
1.00157980e+00
1.00156499e+00
1.00153119e+00
1.00147906e+00
1.00141116e+00
1.00133150e+00
1.00124508e+00
1.00115658e+00
1.00106969e+00
1.00098693e+00
1.00090961e+00
1.00083801e+00
1.00077170e+00
1.00070993e+00
1.00065189e+00
1.00059689e+00
1.00054443e+00
1.00049419e+00
1.00044597e+00
1.00039962e+00
1.00035497e+00
1.00031181e+00
1.00026990e+00
1.00022896e+00
1.00018871e+00
1.00014888e+00
1.00010924e+00
1.00006958e+00
1.00002970e+00
9.99989397e-01
9.99948482e-01
9.99906731e-01
9.99863902e-01
9.99819744e-01
9.99774003e-01
9.99726439e-01
9.99676815e-01
9.99624871e-01
9.99570256e-01
9.99512446e-01
9.99450664e-01
9.99383840e-01
9.99310658e-01
9.99229736e-01
9.99139935e-01
9.99040763e-01
9.98932832e-01
9.98818203e-01
9.98700489e-01
9.98584749e-01
9.98476908e-01
9.98382560e-01
9.98306206e-01
9.98250456e-01
9.98214608e-01
9.98195242e-01
9.98187078e-01
9.98183809e-01
9.98180812e-01
1.00147703e+00
1.00148814e+00
1.00150975e+00
1.00153632e+00
1.00156023e+00
1.00157361e+00
1.00157021e+00
1.00154679e+00
1.00150288e+00
1.00144038e+00
1.00136346e+00
1.00127719e+00
1.00118654e+00
1.00109588e+00
1.00100849e+00
1.00092632e+00
1.00085019e+00
1.00078003e+00
1.00071523e+00
1.00065494e+00
1.00059832e+00
1.00054470e+00
1.00049356e+00
1.00044458e+00
1.00039752e+00
1.00035218e+00
1.00030835e+00
1.00026581e+00
1.00022428e+00
1.00018350e+00
1.00014318e+00
1.00010308e+00
1.00006297e+00
1.00002263e+00
9.99981844e-01
9.99940401e-01
9.99898072e-01
9.99854619e-01
9.99809805e-01
9.99763403e-01
9.99715192e-01
9.99664939e-01
9.99612348e-01
9.99556982e-01
9.99498177e-01
9.99434984e-01
9.99366179e-01
9.99290380e-01
9.99206292e-01
9.99113066e-01
9.99010726e-01
9.98900564e-01
9.98785420e-01
9.98669668e-01
9.98558839e-01
9.98459057e-01
9.98375988e-01
9.98313515e-01
9.98273102e-01
9.98253203e-01
9.98249093e-01
9.98253868e-01
9.98260300e-01
9.98262633e-01
1.00142781e+00
1.00144241e+00
1.00147016e+00
1.00150508e+00
1.00153906e+00
1.00156342e+00
1.00157139e+00
1.00155868e+00
1.00152381e+00
1.00146825e+00
1.00139567e+00
1.00131090e+00
1.00121922e+00
1.00112555e+00
1.00103380e+00
1.00094667e+00
1.00086563e+00
1.00079108e+00
1.00072266e+00
1.00065960e+00
1.00060096e+00
1.00054587e+00
1.00049366e+00
1.00044381e+00
1.00039598e+00
1.00034992e+00
1.00030538e+00
1.00026215e+00
1.00021997e+00
1.00017858e+00
1.00013771e+00
1.00009709e+00
1.00005648e+00
1.00001563e+00
9.99974303e-01
9.99932274e-01
9.99889302e-01
9.99845153e-01
9.99799602e-01
9.99752434e-01
9.99703433e-01
9.99652337e-01
9.99598780e-01
9.99542202e-01
9.99481781e-01
9.99416411e-01
9.99344771e-01
9.99265510e-01
9.99177557e-01
9.99080509e-01
9.98975043e-01
9.98863232e-01
9.98748685e-01
9.98636430e-01
9.98532400e-01
9.98442629e-01
9.98372340e-01
9.98324781e-01
9.98300291e-01
9.98296044e-01
9.98306278e-01
9.98322963e-01
9.98338018e-01
9.98345076e-01
1.00138056e+00
1.00139772e+00
1.00143030e+00
1.00147192e+00
1.00151439e+00
1.00154877e+00
1.00156766e+00
1.00156585e+00
1.00154108e+00
1.00149393e+00
1.00142730e+00
1.00134568e+00
1.00125441e+00
1.00115871e+00
1.00106314e+00
1.00097115e+00
1.00088493e+00
1.00080547e+00
1.00073282e+00
1.00066635e+00
1.00060513e+00
1.00054818e+00
1.00049461e+00
1.00044374e+00
1.00039505e+00
1.00034821e+00
1.00030293e+00
1.00025897e+00
1.00021609e+00
1.00017404e+00
1.00013255e+00
1.00009135e+00
1.00005017e+00
1.00000875e+00
9.99966830e-01
9.99924159e-01
9.99880489e-01
9.99835586e-01
9.99789231e-01
9.99741205e-01
9.99691262e-01
9.99639075e-01
9.99584160e-01
9.99525806e-01
9.99463026e-01
9.99394595e-01
9.99319177e-01
9.99235581e-01
9.99143115e-01
9.99041978e-01
9.98933620e-01
9.98820959e-01
9.98708363e-01
9.98601356e-01
9.98506039e-01
9.98428192e-01
9.98372284e-01
9.98340560e-01
9.98332262e-01
9.98343328e-01
9.98366968e-01
9.98394420e-01
9.98417095e-01
9.98428149e-01
1.00133518e+00
1.00135407e+00
1.00138998e+00
1.00143658e+00
1.00148599e+00
1.00152919e+00
1.00155837e+00
1.00156766e+00
1.00155387e+00
1.00151650e+00
1.00145753e+00
1.00138088e+00
1.00129163e+00
1.00119518e+00
1.00109662e+00
1.00100012e+00
1.00090863e+00
1.00082385e+00
1.00074632e+00
1.00067575e+00
1.00061130e+00
1.00055193e+00
1.00049661e+00
1.00044444e+00
1.00039476e+00
1.00034707e+00
1.00030100e+00
1.00025629e+00
1.00021267e+00
1.00016990e+00
1.00012773e+00
1.00008588e+00
1.00004407e+00
1.00000202e+00
9.99959450e-01
9.99916084e-01
9.99871672e-01
9.99825974e-01
9.99778758e-01
9.99729776e-01
9.99678713e-01
9.99625127e-01
9.99568379e-01
9.99507581e-01
9.99441601e-01
9.99369152e-01
9.99288997e-01
9.99200253e-01
9.99102766e-01
9.98997481e-01
9.98886715e-01
9.98774240e-01
9.98665114e-01
9.98565222e-01
9.98480571e-01
9.98416414e-01
9.98376293e-01
9.98361218e-01
9.98369187e-01
9.98395040e-01
9.98431112e-01
9.98468125e-01
9.98497317e-01
9.98511737e-01
1.00129134e+00
1.00131109e+00
1.00134896e+00
1.00139891e+00
1.00145363e+00
1.00150436e+00
1.00154315e+00
1.00156356e+00
1.00156143e+00
1.00153510e+00
1.00148551e+00
1.00141570e+00
1.00133027e+00
1.00123462e+00
1.00113420e+00
1.00103381e+00
1.00093719e+00
1.00084680e+00
1.00076383e+00
1.00068842e+00
1.00061999e+00
1.00055753e+00
1.00049992e+00
1.00044609e+00
1.00039517e+00
1.00034649e+00
1.00029958e+00
1.00025408e+00
1.00020969e+00
1.00016618e+00
1.00012327e+00
1.00008071e+00
1.00003820e+00
9.99995444e-01
9.99952154e-01
9.99908047e-01
9.99862856e-01
9.99816327e-01
9.99768192e-01
9.99718133e-01
9.99665722e-01
9.99610354e-01
9.99551202e-01
9.99487199e-01
9.99417105e-01
9.99339666e-01
9.99253872e-01
9.99159308e-01
9.99056510e-01
9.98947285e-01
9.98834867e-01
9.98723851e-01
9.98619864e-01
9.98528967e-01
9.98456862e-01
9.98408012e-01
9.98384821e-01
9.98386962e-01
9.98411123e-01
9.98451105e-01
9.98498568e-01
9.98543983e-01
9.98578689e-01
9.98595834e-01
1.00124875e+00
1.00126857e+00
1.00130709e+00
1.00135882e+00
1.00141726e+00
1.00147422e+00
1.00152181e+00
1.00155314e+00
1.00156314e+00
1.00154898e+00
1.00151034e+00
1.00144922e+00
1.00136954e+00
1.00127645e+00
1.00117557e+00
1.00107222e+00
1.00097090e+00
1.00087483e+00
1.00078597e+00
1.00070505e+00
1.00063183e+00
1.00056551e+00
1.00050493e+00
1.00044891e+00
1.00039640e+00
1.00034654e+00
1.00029867e+00
1.00025232e+00
1.00020713e+00
1.00016283e+00
1.00011914e+00
1.00007580e+00
1.00003251e+00
9.99988985e-01
9.99944918e-01
9.99900023e-01
9.99854018e-01
9.99806612e-01
9.99757470e-01
9.99706160e-01
9.99652091e-01
9.99594460e-01
9.99532232e-01
9.99464187e-01
9.99389047e-01
9.99305703e-01
9.99213523e-01
9.99112704e-01
9.99004606e-01
9.98891970e-01
9.98778944e-01
9.98670867e-01
9.98573779e-01
9.98493711e-01
9.98435843e-01
9.98403657e-01
9.98398249e-01
9.98417880e-01
9.98457947e-01
9.98511299e-01
9.98569098e-01
9.98621800e-01
9.98661065e-01
9.98680384e-01
1.00120698e+00
1.00122616e+00
1.00126419e+00
1.00131628e+00
1.00137697e+00
1.00143885e+00
1.00149432e+00
1.00153619e+00
1.00155856e+00
1.00155742e+00
1.00153113e+00
1.00148049e+00
1.00140852e+00
1.00131990e+00
1.00122021e+00
1.00111516e+00
1.00100985e+00
1.00090833e+00
1.00081333e+00
1.00072629e+00
1.00064751e+00
1.00057647e+00
1.00051214e+00
1.00045329e+00
1.00039870e+00
1.00034731e+00
1.00029829e+00
1.00025099e+00
1.00020495e+00
1.00015982e+00
1.00011530e+00
1.00007112e+00
1.00002698e+00
9.99982610e-01
9.99937705e-01
9.99891972e-01
9.99845101e-01
9.99796739e-01
9.99746443e-01
9.99693620e-01
9.99637474e-01
9.99576979e-01
9.99510909e-01
9.99437943e-01
9.99356863e-01
9.99266840e-01
9.99167763e-01
9.99060579e-01
9.98947557e-01
9.98832392e-01
9.98720092e-01
9.98616605e-01
9.98528201e-01
9.98460675e-01
9.98418486e-01
9.98403982e-01
9.98416865e-01
9.98453959e-01
9.98509428e-01
9.98575290e-01
9.98642382e-01
9.98701346e-01
9.98744330e-01
9.98765336e-01
1.00116559e+00
1.00118356e+00
1.00122012e+00
1.00127134e+00
1.00133296e+00
1.00139851e+00
1.00146085e+00
1.00151267e+00
1.00154737e+00
1.00155982e+00
1.00154702e+00
1.00150848e+00
1.00144614e+00
1.00136399e+00
1.00126736e+00
1.00116212e+00
1.00105389e+00
1.00094744e+00
1.00084634e+00
1.00075279e+00
1.00066775e+00
1.00059115e+00
1.00052220e+00
1.00045972e+00
1.00040240e+00
1.00034903e+00
1.00029853e+00
1.00025010e+00
1.00020310e+00
1.00015708e+00
1.00011168e+00
1.00006660e+00
1.00002155e+00
9.99976273e-01
9.99930470e-01
9.99883836e-01
9.99836012e-01
9.99786550e-01
9.99734855e-01
9.99680132e-01
9.99621354e-01
9.99557276e-01
9.99486523e-01
9.99407763e-01
9.99319963e-01
9.99222712e-01
9.99116556e-01
9.99003291e-01
9.98886128e-01
9.98769678e-01
9.98659697e-01
9.98562569e-01
9.98484591e-01
9.98431122e-01
9.98405741e-01
9.98409562e-01
9.98440862e-01
9.98495076e-01
9.98565230e-01
9.98642658e-01
9.98718026e-01
9.98782312e-01
9.98828286e-01
9.98850588e-01
1.00112411e+00
1.00114042e+00
1.00117475e+00
1.00122412e+00
1.00128550e+00
1.00135353e+00
1.00142169e+00
1.00148270e+00
1.00152943e+00
1.00155571e+00
1.00155725e+00
1.00153218e+00
1.00148126e+00
1.00140759e+00
1.00131601e+00
1.00121236e+00
1.00110259e+00
1.00099211e+00
1.00088525e+00
1.00078506e+00
1.00069324e+00
1.00061029e+00
1.00053581e+00
1.00046882e+00
1.00040800e+00
1.00035200e+00
1.00029959e+00
1.00024972e+00
1.00020157e+00
1.00015455e+00
1.00010820e+00
1.00006217e+00
1.00001617e+00
9.99969927e-01
9.99923161e-01
9.99875532e-01
9.99826606e-01
9.99775801e-01
9.99722329e-01
9.99665168e-01
9.99603056e-01
9.99534568e-01
9.99458259e-01
9.99372902e-01
9.99277791e-01
9.99173071e-01
9.99060052e-01
9.98941425e-01
9.98821324e-01
9.98705178e-01
9.98599321e-01
9.98510373e-01
9.98444452e-01
9.98406300e-01
9.98398500e-01
9.98420886e-01
9.98470348e-01
9.98541025e-01
9.98624950e-01
9.98712922e-01
9.98795577e-01
9.98864349e-01
9.98912703e-01
9.98935985e-01
1.00108207e+00
1.00109642e+00
1.00112796e+00
1.00117473e+00
1.00123492e+00
1.00130435e+00
1.00137725e+00
1.00144655e+00
1.00150473e+00
1.00154476e+00
1.00156113e+00
1.00155062e+00
1.00151270e+00
1.00144942e+00
1.00136496e+00
1.00126487e+00
1.00115524e+00
1.00104196e+00
1.00093008e+00
1.00082344e+00
1.00072455e+00
1.00063463e+00
1.00055378e+00
1.00048133e+00
1.00041611e+00
1.00035672e+00
1.00030177e+00
1.00025001e+00
1.00020043e+00
1.00015222e+00
1.00010481e+00
1.00005777e+00
1.00001077e+00
9.99963514e-01
9.99915702e-01
9.99866935e-01
9.99816665e-01
9.99764140e-01
9.99708354e-01
9.99648050e-01
9.99581767e-01
9.99507969e-01
9.99425258e-01
9.99332653e-01
9.99229913e-01
9.99117861e-01
9.98998635e-01
9.98875816e-01
9.98754377e-01
9.98640410e-01
9.98540624e-01
9.98461657e-01
9.98409246e-01
9.98387375e-01
9.98397550e-01
9.98438344e-01
9.98505346e-01
9.98591543e-01
9.98688142e-01
9.98785567e-01
9.98874555e-01
9.98947066e-01
9.98997288e-01
9.99021306e-01
1.00103899e+00
1.00105122e+00
1.00107966e+00
1.00112331e+00
1.00118157e+00
1.00125147e+00
1.00132804e+00
1.00140459e+00
1.00147341e+00
1.00152678e+00
1.00155811e+00
1.00156290e+00
1.00153929e+00
1.00148818e+00
1.00141286e+00
1.00131841e+00
1.00121084e+00
1.00109634e+00
1.00098053e+00
1.00086801e+00
1.00076212e+00
1.00066482e+00
1.00057689e+00
1.00049808e+00
1.00042749e+00
1.00036379e+00
1.00030552e+00
1.00025127e+00
1.00019980e+00
1.00015013e+00
1.00010149e+00
1.00005335e+00
1.00000529e+00
9.99956958e-01
9.99907978e-01
9.99857849e-01
9.99805870e-01
9.99751088e-01
9.99692277e-01
9.99627970e-01
9.99556575e-01
9.99476559e-01
9.99386708e-01
9.99286434e-01
9.99176096e-01
9.99057277e-01
9.98932957e-01
9.98807544e-01
9.98686708e-01
9.98577002e-01
9.98485290e-01
9.98418007e-01
9.98380329e-01
9.98375372e-01
9.98403547e-01
9.98462217e-01
9.98545804e-01
9.98646326e-01
9.98754348e-01
9.98860081e-01
9.98954471e-01
9.99030049e-01
9.99081715e-01
9.99106280e-01
1.00099444e+00
1.00100452e+00
1.00102973e+00
1.00107000e+00
1.00112582e+00
1.00119537e+00
1.00127459e+00
1.00135727e+00
1.00143572e+00
1.00150173e+00
1.00154781e+00
1.00156826e+00
1.00155995e+00
1.00152252e+00
1.00145826e+00
1.00137156e+00
1.00126814e+00
1.00115427e+00
1.00103600e+00
1.00091858e+00
1.00080611e+00
1.00070137e+00
1.00060584e+00
1.00051988e+00
1.00044296e+00
1.00037395e+00
1.00031144e+00
1.00025392e+00
1.00019997e+00
1.00014841e+00
1.00009829e+00
1.00004889e+00
9.99999671e-01
9.99950144e-01
9.99899797e-01
9.99847968e-01
9.99793766e-01
9.99736024e-01
9.99673310e-01
9.99604019e-01
9.99526535e-01
9.99439466e-01
9.99341934e-01
9.99233890e-01
9.99116394e-01
9.98991822e-01
9.98863958e-01
9.98737915e-01
9.98619871e-01
9.98516618e-01
9.98434943e-01
9.98380872e-01
9.98358879e-01
9.98371139e-01
9.98416983e-01
9.98492668e-01
9.98591610e-01
9.98705056e-01
9.98823129e-01
9.98935981e-01
9.99034860e-01
9.99112883e-01
9.99165630e-01
9.99190589e-01
1.00094805e+00
1.00095604e+00
1.00097810e+00
1.00101492e+00
1.00106798e+00
1.00113655e+00
1.00121747e+00
1.00130513e+00
1.00139204e+00
1.00146972e+00
1.00152999e+00
1.00156612e+00
1.00157371e+00
1.00155118e+00
1.00149969e+00
1.00142278e+00
1.00132567e+00
1.00121452e+00
1.00109557e+00
1.00097460e+00
1.00085640e+00
1.00074452e+00
1.00064121e+00
1.00054749e+00
1.00046336e+00
1.00038805e+00
1.00032027e+00
1.00025855e+00
1.00020137e+00
1.00014735e+00
1.00009535e+00
1.00004444e+00
9.99993849e-01
9.99942899e-01
9.99890861e-01
9.99836847e-01
9.99779742e-01
9.99718170e-01
9.99650553e-01
9.99575247e-01
9.99490748e-01
9.99395963e-01
9.99290506e-01
9.99174982e-01
9.99051207e-01
9.98922336e-01
9.98792859e-01
9.98668423e-01
9.98555499e-01
9.98460887e-01
9.98391074e-01
9.98351506e-01
9.98345848e-01
9.98375306e-01
9.98438179e-01
9.98529746e-01
9.98642602e-01
9.98767424e-01
9.98894086e-01
9.99012837e-01
9.99115298e-01
9.99195173e-01
9.99248669e-01
9.99273886e-01
1.00089949e+00
1.00090557e+00
1.00092467e+00
1.00095817e+00
1.00100834e+00
1.00107545e+00
1.00115720e+00
1.00124870e+00
1.00134282e+00
1.00143101e+00
1.00150462e+00
1.00155605e+00
1.00157979e+00
1.00157302e+00
1.00153573e+00
1.00147049e+00
1.00138183e+00
1.00127557e+00
1.00115800e+00
1.00103519e+00
1.00091250e+00
1.00079420e+00
1.00068329e+00
1.00058151e+00
1.00048950e+00
1.00040694e+00
1.00033287e+00
1.00026593e+00
1.00020461e+00
1.00014740e+00
1.00009295e+00
1.00004007e+00
9.99987742e-01
9.99934971e-01
9.99880736e-01
9.99823873e-01
9.99763016e-01
9.99696617e-01
9.99623039e-01
9.99540729e-01
9.99448450e-01
9.99345570e-01
9.99232326e-01
9.99110048e-01
9.98981317e-01
9.98849997e-01
9.98721129e-01
9.98600693e-01
9.98495232e-01
9.98411327e-01
9.98354977e-01
9.98330918e-01
9.98341936e-01
9.98388272e-01
9.98467279e-01
9.98573396e-01
9.98698578e-01
9.98833136e-01
9.98966881e-01
9.99090289e-01
9.99195426e-01
9.99276566e-01
9.99330486e-01
9.99355822e-01
1.00084850e+00
1.00085288e+00
1.00086935e+00
1.00089980e+00
1.00094713e+00
1.00101244e+00
1.00109429e+00
1.00118854e+00
1.00128856e+00
1.00138596e+00
1.00147181e+00
1.00153785e+00
1.00157761e+00
1.00158708e+00
1.00156509e+00
1.00151314e+00
1.00143494e+00
1.00133578e+00
1.00122177e+00
1.00109912e+00
1.00097358e+00
1.00084999e+00
1.00073208e+00
1.00062232e+00
1.00052202e+00
1.00043147e+00
1.00035015e+00
1.00027695e+00
1.00021046e+00
1.00014914e+00
1.00009146e+00
1.00003595e+00
9.99981257e-01
9.99926019e-01
9.99868850e-01
9.99808263e-01
9.99742653e-01
9.99670362e-01
9.99589803e-01
9.99499655e-01
9.99399114e-01
9.99288145e-01
9.99167694e-01
9.99039846e-01
9.98907899e-01
9.98776288e-01
9.98650423e-01
9.98536411e-01
9.98440643e-01
9.98369285e-01
9.98327706e-01
9.98319842e-01
9.98347569e-01
9.98410207e-01
9.98504259e-01
9.98623463e-01
9.98759308e-01
9.98901928e-01
9.99041241e-01
9.99168059e-01
9.99274958e-01
9.99356765e-01
9.99410772e-01
9.99436064e-01
1.00079488e+00
1.00079783e+00
1.00081206e+00
1.00083984e+00
1.00088450e+00
1.00094782e+00
1.00102917e+00
1.00112517e+00
1.00122980e+00
1.00133502e+00
1.00143183e+00
1.00151152e+00
1.00156679e+00
1.00159261e+00
1.00158664e+00
1.00154928e+00
1.00148332e+00
1.00139339e+00
1.00128518e+00
1.00116487e+00
1.00103841e+00
1.00091108e+00
1.00078719e+00
1.00066995e+00
1.00056135e+00
1.00046235e+00
1.00037298e+00
1.00029253e+00
1.00021981e+00
1.00015331e+00
1.00009138e+00
1.00003229e+00
9.99974286e-01
9.99915620e-01
9.99854499e-01
9.99789101e-01
9.99717627e-01
9.99638390e-01
9.99549972e-01
9.99451435e-01
9.99342544e-01
9.99223952e-01
9.99097353e-01
9.98965564e-01
9.98832476e-01
9.98702929e-01
9.98582513e-01
9.98477244e-01
9.98393163e-01
9.98335880e-01
9.98310041e-01
9.98318723e-01
9.98362909e-01
9.98441068e-01
9.98548941e-01
9.98679704e-01
9.98824544e-01
9.98973576e-01
9.99116959e-01
9.99245958e-01
9.99353698e-01
9.99435549e-01
9.99489272e-01
9.99514333e-01
1.00073847e+00
1.00074029e+00
1.00075272e+00
1.00077826e+00
1.00082053e+00
1.00088182e+00
1.00096219e+00
1.00105905e+00
1.00116708e+00
1.00127871e+00
1.00138509e+00
1.00147724e+00
1.00154723e+00
1.00158911e+00
1.00159948e+00
1.00157765e+00
1.00152541e+00
1.00144660e+00
1.00134640e+00
1.00123068e+00
1.00110544e+00
1.00097624e+00
1.00084784e+00
1.00072405e+00
1.00060759e+00
1.00050006e+00
1.00040213e+00
1.00031360e+00
1.00023359e+00
1.00016073e+00
1.00009329e+00
1.00002932e+00
9.99966706e-01
9.99903294e-01
9.99836901e-01
9.99765419e-01
9.99686914e-01
9.99599773e-01
9.99502878e-01
9.99395798e-01
9.99278944e-01
9.99153701e-01
9.99022498e-01
9.98888771e-01
9.98756848e-01
9.98631800e-01
9.98519191e-01
9.98424746e-01
9.98354022e-01
9.98311981e-01
9.98302472e-01
9.98327724e-01
9.98387884e-01
9.98480620e-01
9.98601013e-01
9.98741811e-01
9.98894028e-01
9.99047878e-01
9.99193891e-01
9.99323871e-01
9.99431531e-01
9.99512772e-01
9.99565807e-01
9.99590416e-01
1.00067919e+00
1.00068015e+00
1.00069123e+00
1.00071502e+00
1.00075524e+00
1.00081457e+00
1.00089363e+00
1.00099060e+00
1.00110091e+00
1.00121759e+00
1.00133208e+00
1.00143534e+00
1.00151899e+00
1.00157632e+00
1.00160297e+00
1.00159720e+00
1.00155980e+00
1.00149372e+00
1.00140351e+00
1.00129463e+00
1.00117287e+00
1.00104391e+00
1.00091283e+00
1.00078390e+00
1.00066044e+00
1.00054476e+00
1.00043814e+00
1.00034092e+00
1.00025265e+00
1.00017216e+00
1.00009774e+00
1.00002727e+00
9.99958385e-01
9.99888556e-01
9.99815298e-01
9.99736308e-01
9.99649625e-01
9.99553824e-01
9.99448196e-01
9.99332884e-01
9.99208975e-01
9.99078569e-01
9.98944724e-01
9.98811334e-01
9.98683003e-01
9.98564836e-01
9.98462163e-01
9.98380292e-01
9.98324215e-01
9.98298168e-01
9.98305206e-01
9.98346772e-01
9.98422212e-01
9.98528465e-01
9.98660069e-01
9.98809434e-01
9.98967490e-01
9.99124668e-01
9.99271963e-01
9.99401770e-01
9.99508429e-01
9.99588390e-01
9.99640296e-01
9.99664187e-01
1.00061698e+00
1.00061734e+00
1.00062749e+00
1.00065003e+00
1.00068859e+00
1.00074609e+00
1.00082366e+00
1.00092014e+00
1.00103175e+00
1.00115221e+00
1.00127338e+00
1.00138630e+00
1.00148236e+00
1.00155425e+00
1.00159674e+00
1.00160714e+00
1.00158530e+00
1.00153322e+00
1.00145471e+00
1.00135472e+00
1.00123870e+00
1.00111223e+00
1.00098056e+00
1.00084828e+00
1.00071920e+00
1.00059619e+00
1.00048113e+00
1.00037494e+00
1.00027759e+00
1.00018819e+00
1.00010517e+00
1.00002635e+00
9.99949188e-01
9.99870977e-01
9.99789063e-01
9.99701078e-01
9.99605179e-01
9.99500251e-01
9.99386053e-01
9.99263315e-01
9.99133782e-01
9.99000154e-01
9.98865938e-01
9.98735326e-01
9.98613004e-01
9.98503891e-01
9.98412958e-01
9.98345033e-01
9.98304453e-01
9.98294729e-01
9.98318210e-01
9.98375579e-01
9.98465431e-01
9.98584095e-01
9.98725639e-01
9.98882177e-01
9.99044652e-01
9.99203803e-01
9.99351129e-01
9.99479664e-01
9.99584430e-01
9.99662431e-01
9.99712734e-01
9.99735621e-01
1.00055181e+00
1.00055179e+00
1.00056141e+00
1.00058315e+00
1.00062048e+00
1.00067636e+00
1.00075235e+00
1.00084792e+00
1.00096001e+00
1.00108307e+00
1.00120955e+00
1.00133070e+00
1.00143778e+00
1.00152308e+00
1.00158068e+00
1.00160700e+00
1.00160097e+00
1.00156376e+00
1.00149833e+00
1.00140900e+00
1.00130085e+00
1.00117918e+00
1.00104917e+00
1.00091563e+00
1.00078267e+00
1.00065359e+00
1.00053078e+00
1.00041566e+00
1.00030862e+00
1.00020913e+00
1.00011582e+00
1.00002662e+00
9.99939008e-01
9.99850287e-01
9.99757838e-01
9.99659428e-01
9.99553490e-01
9.99439307e-01
9.99317135e-01
9.99188267e-01
9.99054986e-01
9.98920391e-01
9.98788269e-01
9.98662907e-01
9.98548831e-01
9.98450639e-01
9.98372890e-01
9.98319831e-01
9.98295142e-01
9.98301721e-01
9.98341244e-01
9.98413668e-01
9.98516974e-01
9.98646952e-01
9.98797199e-01
9.98959628e-01
9.99125272e-01
9.99285175e-01
9.99431384e-01
9.99557647e-01
9.99659674e-01
9.99735021e-01
9.99783229e-01
9.99804816e-01
1.00048365e+00
1.00048346e+00
1.00049290e+00
1.00051424e+00
1.00055073e+00
1.00060530e+00
1.00067972e+00
1.00077405e+00
1.00088600e+00
1.00101068e+00
1.00114117e+00
1.00126914e+00
1.00138583e+00
1.00148321e+00
1.00155490e+00
1.00159656e+00
1.00160622e+00
1.00158426e+00
1.00153291e+00
1.00145573e+00
1.00135729e+00
1.00124258e+00
1.00111657e+00
1.00098401e+00
1.00084919e+00
1.00071566e+00
1.00058613e+00
1.00046243e+00
1.00034537e+00
1.00023477e+00
1.00012957e+00
1.00002800e+00
9.99927773e-01
9.99826439e-01
9.99721673e-01
9.99611616e-01
9.99495115e-01
9.99371916e-01
9.99242785e-01
9.99109480e-01
9.98974606e-01
9.98841482e-01
9.98713961e-01
9.98596157e-01
9.98492269e-01
9.98406523e-01
9.98342958e-01
9.98305210e-01
9.98296441e-01
9.98318990e-01
9.98373864e-01
9.98460460e-01
9.98576239e-01
9.98716416e-01
9.98874203e-01
9.99041399e-01
9.99209095e-01
9.99368651e-01
9.99512738e-01
9.99635823e-01
9.99734306e-01
9.99806333e-01
9.99851959e-01
9.99871940e-01
1.00041253e+00
1.00041230e+00