# vtk DataFile Version 2.0
LBM Flow Field - Timestep 400
ASCII
DATASET STRUCTURED_POINTS
DIMENSIONS 64 64 1
ORIGIN 0.0 0.0 0.0
SPACING 1.0 1.0 1.0
POINT_DATA 4096
SCALARS density double 1
LOOKUP_TABLE default
1.00520270e+00
1.00515426e+00
1.00509411e+00
1.00503924e+00
1.00497133e+00
1.00489505e+00
1.00481197e+00
1.00472382e+00
1.00463146e+00
1.00453579e+00
1.00443660e+00
1.00433386e+00
1.00422698e+00
1.00411458e+00
1.00399480e+00
1.00386562e+00
1.00372466e+00
1.00356951e+00
1.00339807e+00
1.00320884e+00
1.00300106e+00
1.00277492e+00
1.00253169e+00
1.00227360e+00
1.00200361e+00
1.00172512e+00
1.00144159e+00
1.00115618e+00
1.00087146e+00
1.00058922e+00
1.00031050e+00
1.00003570e+00
9.99764812e-01
9.99497709e-01
9.99234395e-01
9.98975204e-01
9.98720883e-01
9.98472558e-01
9.98231588e-01
9.97999367e-01
9.97777097e-01
9.97565587e-01
9.97365128e-01
9.97175477e-01
9.96995920e-01
9.96825381e-01
9.96662639e-01
9.96506564e-01
9.96356204e-01
9.96210844e-01
9.96070197e-01
9.95934438e-01
9.95803752e-01
9.95678448e-01
9.95559324e-01
9.95447343e-01
9.95342246e-01
9.95244693e-01
9.95155597e-01
9.95075811e-01
9.95005513e-01
9.94949793e-01
9.94886174e-01
9.94834250e-01
1.00515305e+00
1.00511509e+00
1.00506050e+00
1.00500799e+00
1.00494153e+00
1.00486951e+00
1.00479002e+00
1.00470561e+00
1.00461631e+00
1.00452344e+00
1.00442663e+00
1.00432586e+00
1.00422034e+00
1.00410891e+00
1.00398982e+00
1.00386112e+00
1.00372062e+00
1.00356615e+00
1.00339576e+00
1.00320803e+00
1.00300224e+00
1.00277853e+00
1.00253796e+00
1.00228248e+00
1.00201474e+00
1.00173784e+00
1.00145500e+00
1.00116923e+00
1.00088311e+00
1.00059856e+00
1.00031688e+00
1.00003880e+00
9.99764666e-01
9.99494657e-01
9.99229026e-01
9.98968248e-01
9.98713091e-01
9.98464594e-01
9.98223955e-01
9.97992361e-01
9.97770804e-01
9.97559928e-01
9.97359935e-01
9.97170565e-01
9.96991157e-01
9.96820775e-01
9.96658364e-01
9.96502925e-01
9.96353605e-01
9.96209829e-01
9.96071311e-01
9.95938091e-01
9.95810297e-01
9.95688393e-01
9.95572795e-01
9.95464262e-01
9.95362572e-01
9.95269053e-01
9.95183437e-01
9.95107610e-01
9.95038264e-01
9.94984704e-01
9.94926998e-01
9.94887325e-01
1.00508212e+00
1.00504813e+00
1.00500704e+00
1.00495377e+00
1.00489298e+00
1.00482664e+00
1.00475294e+00
1.00467426e+00
1.00459068e+00
1.00450268e+00
1.00441052e+00
1.00431389e+00
1.00421178e+00
1.00410313e+00
1.00398647e+00
1.00385984e+00
1.00372117e+00
1.00356854e+00
1.00340014e+00
1.00321460e+00
1.00301120e+00
1.00279001e+00
1.00255190e+00
1.00229858e+00
1.00203243e+00
1.00175630e+00
1.00147323e+00
1.00118615e+00
1.00089768e+00
1.00060991e+00
1.00032439e+00
1.00004217e+00
9.99763919e-01
9.99490127e-01
9.99221278e-01
9.98957988e-01
9.98701068e-01
9.98451504e-01
9.98210374e-01
9.97978703e-01
9.97757320e-01
9.97546742e-01
9.97347101e-01
9.97158132e-01
9.96979234e-01
9.96809610e-01
9.96648363e-01
9.96494596e-01
9.96347583e-01
9.96206886e-01
9.96072198e-01
9.95943357e-01
9.95820586e-01
9.95704360e-01
9.95594644e-01
9.95491685e-01
9.95396326e-01
9.95309082e-01
9.95229047e-01
9.95158485e-01
9.95095068e-01
9.95040044e-01
9.94997657e-01
9.94962419e-01
1.00500213e+00
1.00496897e+00
1.00492828e+00
1.00488002e+00
1.00482801e+00
1.00476868e+00
1.00470273e+00
1.00463174e+00
1.00455591e+00
1.00447527e+00
1.00438973e+00
1.00429883e+00
1.00420177e+00
1.00409735e+00
1.00398408e+00
1.00386024e+00
1.00372397e+00
1.00357346e+00
1.00340709e+00
1.00322363e+00
1.00302242e+00
1.00280346e+00
1.00256752e+00
1.00231610e+00
1.00205134e+00
1.00177585e+00
1.00149249e+00
1.00120409e+00
1.00091328e+00
1.00062230e+00
1.00033292e+00
1.00004650e+00
9.99764002e-01
9.99486220e-01
9.99213860e-01
9.98947672e-01
9.98688508e-01
9.98437310e-01
9.98195049e-01
9.97962621e-01
9.97740738e-01
9.97529837e-01
9.97330035e-01
9.97141130e-01
9.96962655e-01
9.96793953e-01
9.96634292e-01
9.96482965e-01
9.96339356e-01
9.96202985e-01
9.96073570e-01
9.95950990e-01
9.95835202e-01
9.95726291e-01
9.95624455e-01
9.95529849e-01
9.95442636e-01
9.95362876e-01
9.95290393e-01
9.95226736e-01
9.95172129e-01
9.95121467e-01
9.95078980e-01
9.95044660e-01
1.00489828e+00
1.00486789e+00
1.00483207e+00
1.00479228e+00
1.00474703e+00
1.00469585e+00
1.00463974e+00
1.00457815e+00
1.00451144e+00
1.00443967e+00
1.00436213e+00
1.00427827e+00
1.00418735e+00
1.00408809e+00
1.00397899e+00
1.00385858e+00
1.00372523e+00
1.00357728e+00
1.00341334e+00
1.00323237e+00
1.00303376e+00
1.00281746e+00
1.00258412e+00
1.00233501e+00
1.00207198e+00
1.00179738e+00
1.00151384e+00
1.00122409e+00
1.00093077e+00
1.00063626e+00
1.00034261e+00
1.00005148e+00
9.99764218e-01
9.99481927e-01
9.99205573e-01
9.98936065e-01
9.98674308e-01
9.98421204e-01
9.98177613e-01
9.97944296e-01
9.97721843e-01
9.97510614e-01
9.97310720e-01
9.97122037e-01
9.96944248e-01
9.96776877e-01
9.96619377e-01
9.96471237e-01
9.96331965e-01
9.96201074e-01
9.96078237e-01
9.95963322e-01
9.95856071e-01
9.95756180e-01
9.95663809e-01
9.95579081e-01
9.95501383e-01
9.95430802e-01
9.95367962e-01
9.95311874e-01
9.95262974e-01
9.95220624e-01
9.95183253e-01
9.95151739e-01
1.00477682e+00
1.00475143e+00
1.00472137e+00
1.00468874e+00
1.00465143e+00
1.00460994e+00
1.00456398e+00
1.00451285e+00
1.00445637e+00
1.00439416e+00
1.00432563e+00
1.00424992e+00
1.00416595e+00
1.00407259e+00
1.00396854e+00
1.00385234e+00
1.00372255e+00
1.00357781e+00
1.00341695e+00
1.00323904e+00
1.00304353e+00
1.00283040e+00
1.00260011e+00
1.00235369e+00
1.00209274e+00
1.00181930e+00
1.00153578e+00
1.00124481e+00
1.00094902e+00
1.00065094e+00
1.00035289e+00
1.00005687e+00
9.99764604e-01
9.99477538e-01
9.99196916e-01
9.98923828e-01
9.98659250e-01
9.98404062e-01
9.98159036e-01
9.97924812e-01
9.97701869e-01
9.97490510e-01
9.97290860e-01
9.97102870e-01
9.96926359e-01
9.96761056e-01
9.96606613e-01
9.96462623e-01
9.96328689e-01
9.96204439e-01
9.96089433e-01
9.95983231e-01
9.95885549e-01
9.95796087e-01
9.95714346e-01
9.95640020e-01
9.95572903e-01
9.95512776e-01
9.95459498e-01
9.95412122e-01
9.95370368e-01
9.95334752e-01
9.95302589e-01
9.95276084e-01
1.00464193e+00
1.00462116e+00
1.00459713e+00
1.00457188e+00
1.00454387e+00
1.00451222e+00
1.00447632e+00
1.00443595e+00
1.00439016e+00
1.00433805e+00
1.00427895e+00
1.00421179e+00
1.00413533e+00
1.00404846e+00
1.00394999e+00
1.00383857e+00
1.00371296e+00
1.00357208e+00
1.00341493e+00
1.00324073e+00
1.00304904e+00
1.00283975e+00
1.00261318e+00
1.00237010e+00
1.00211182e+00
1.00184007e+00
1.00155702e+00
1.00126517e+00
1.00096714e+00
1.00066564e+00
1.00036324e+00
1.00006232e+00
9.99764990e-01
9.99473081e-01
9.99188137e-01
9.98911455e-01
9.98644105e-01
9.98386960e-01
9.98140713e-01
9.97905895e-01
9.97682879e-01
9.97471905e-01
9.97273107e-01
9.97086518e-01
9.96912087e-01
9.96749709e-01
9.96599221e-01
9.96460352e-01
9.96332747e-01
9.96216035e-01
9.96109740e-01
9.96013216e-01
9.95925883e-01
9.95847311e-01
9.95776768e-01
9.95713512e-01
9.95657320e-01
9.95607663e-01
9.95563595e-01
9.95525024e-01
9.95491760e-01
9.95462658e-01
9.95435818e-01
9.95413833e-01
1.00449744e+00
1.00448146e+00
1.00446346e+00
1.00444520e+00
1.00442575e+00
1.00440372e+00
1.00437802e+00
1.00434792e+00
1.00431246e+00
1.00427048e+00
1.00422071e+00
1.00416201e+00
1.00409327e+00
1.00401320e+00
1.00392058e+00
1.00381436e+00
1.00369351e+00
1.00355707e+00
1.00340426e+00
1.00323450e+00
1.00304736e+00
1.00284267e+00
1.00262059e+00
1.00238164e+00
1.00212678e+00
1.00185744e+00
1.00157555e+00
1.00128343e+00
1.00098373e+00
1.00067928e+00
1.00037295e+00
1.00006748e+00
9.99765412e-01
9.99468955e-01
9.99179986e-01
9.98900028e-01
9.98630266e-01
9.98371585e-01
9.98124613e-01
9.97889776e-01
9.97667354e-01
9.97457523e-01
9.97260406e-01
9.97076107e-01
9.96904705e-01
9.96746220e-01
9.96600609e-01
9.96467752e-01
9.96347351e-01
9.96238901e-01
9.96141822e-01
9.96055467e-01
9.95978925e-01
9.95911253e-01
9.95851758e-01
9.95799678e-01
9.95754041e-01
9.95714096e-01
9.95679355e-01
9.95649398e-01
9.95623326e-01
9.95599914e-01
9.95578774e-01
9.95561498e-01
1.00434712e+00
1.00433533e+00
1.00432283e+00
1.00431124e+00
1.00429954e+00
1.00428616e+00
1.00426981e+00
1.00424925e+00
1.00422330e+00
1.00419057e+00
1.00414958e+00
1.00409903e+00
1.00403767e+00
1.00396423e+00
1.00387760e+00
1.00377684e+00
1.00366108e+00
1.00352960e+00
1.00338180e+00
1.00321721e+00
1.00303543e+00
1.00283622e+00
1.00261955e+00
1.00238567e+00
1.00213519e+00
1.00186922e+00
1.00158941e+00
1.00129793e+00
1.00099741e+00
1.00069082e+00
1.00038132e+00
1.00007202e+00
9.99765884e-01
9.99465539e-01
9.99173204e-01
9.98890646e-01
9.98619185e-01
9.98359730e-01
9.98112859e-01
9.97878895e-01
9.97658016e-01
9.97450332e-01
9.97255947e-01
9.97074990e-01
9.96907631e-01
9.96754015e-01
9.96614192e-01
9.96488085e-01
9.96375439e-01
9.96275725e-01
9.96188163e-01
9.96111888e-01
9.96045889e-01
9.95988958e-01
9.95940008e-01
9.95898144e-01
9.95862270e-01
9.95831400e-01
9.95805018e-01
9.95782473e-01
9.95762820e-01
9.95744873e-01
9.95728551e-01
9.95715005e-01
1.00419415e+00
1.00418597e+00
1.00417789e+00
1.00417214e+00
1.00416720e+00
1.00416101e+00
1.00415255e+00
1.00414031e+00
1.00412258e+00
1.00409783e+00
1.00406462e+00
1.00402141e+00
1.00396675e+00
1.00389952e+00
1.00381872e+00
1.00372343e+00
1.00361297e+00
1.00348685e+00
1.00334461e+00
1.00318586e+00
1.00301022e+00
1.00281740e+00
1.00260712e+00
1.00237935e+00
1.00213436e+00
1.00187293e+00
1.00159640e+00
1.00130677e+00
1.00100664e+00
1.00069913e+00
1.00038763e+00
1.00007566e+00
9.99766585e-01
9.99463451e-01
9.99168832e-01
9.98884753e-01
9.98612674e-01
9.98353544e-01
9.98107892e-01
9.97875950e-01
9.97657781e-01
9.97453411e-01
9.97262908e-01
9.97086410e-01
9.96924119e-01
9.96776260e-01
9.96642978e-01
9.96524200e-01
9.96419620e-01
9.96328704e-01
9.96250571e-01
9.96184029e-01
9.96127865e-01
9.96080863e-01
9.96041583e-01
9.96008698e-01
9.95981295e-01
9.95958439e-01
9.95939025e-01
9.95922332e-01
9.95908201e-01
9.95895054e-01
9.95882153e-01
9.95871582e-01
1.00404053e+00
1.00403527e+00
1.00403098e+00
1.00402970e+00
1.00402991e+00
1.00402951e+00
1.00402724e+00
1.00402140e+00
1.00401023e+00
1.00399202e+00
1.00396513e+00
1.00392796e+00
1.00387912e+00
1.00381745e+00
1.00374196e+00
1.00365192e+00
1.00354682e+00
1.00342630e+00
1.00329003e+00
1.00313773e+00
1.00296902e+00
1.00278347e+00
1.00258060e+00
1.00236009e+00
1.00212186e+00
1.00186631e+00
1.00159450e+00
1.00130823e+00
1.00101005e+00
1.00070319e+00
1.00039129e+00
1.00007822e+00
9.99767752e-01
9.99463350e-01
9.99167935e-01
9.98883790e-01
9.98612527e-01
9.98355136e-01
9.98112098e-01
9.97883549e-01
9.97669440e-01
9.97469685e-01
9.97284279e-01
9.97113347e-01
9.96957102e-01
9.96815781e-01
9.96689557e-01
9.96578405e-01
9.96481970e-01
9.96399575e-01
9.96330261e-01
9.96272745e-01
9.96225516e-01
9.96187103e-01
9.96156064e-01
9.96130931e-01
9.96110483e-01
9.96093800e-01
9.96079944e-01
9.96068036e-01
9.96057871e-01
9.96048112e-01
9.96038195e-01
9.96030017e-01
1.00388800e+00
1.00388486e+00
1.00388341e+00
1.00388514e+00
1.00388882e+00
1.00389246e+00
1.00389444e+00
1.00389299e+00
1.00388645e+00
1.00387297e+00
1.00385071e+00
1.00381815e+00
1.00377392e+00
1.00371682e+00
1.00364596e+00
1.00356077e+00
1.00346086e+00
1.00334599e+00
1.00321599e+00
1.00307063e+00
1.00290952e+00
1.00273209e+00
1.00253768e+00
1.00232563e+00
1.00209550e+00
1.00184735e+00
1.00158191e+00
1.00130078e+00
1.00100643e+00
1.00070215e+00
1.00039182e+00
1.00007962e+00
9.99769723e-01
9.99465968e-01
9.99171619e-01
9.98889212e-01
9.98620504e-01
9.98366528e-01
9.98127718e-01
9.97904100e-01
9.97695498e-01
9.97501708e-01
9.97322619e-01
9.97158289e-01
9.97008917e-01
9.96874739e-01
9.96755899e-01
9.96652364e-01
9.96563781e-01
9.96489369e-01
9.96428002e-01
9.96378342e-01
9.96338773e-01
9.96307533e-01
9.96283068e-01
9.96264014e-01
9.96248949e-01
9.96236735e-01
9.96226777e-01
9.96218326e-01
9.96210770e-01
9.96203141e-01
9.96195452e-01
9.96188883e-01
1.00373742e+00
1.00373540e+00
1.00373560e+00
1.00373911e+00
1.00374465e+00
1.00375027e+00
1.00375447e+00
1.00375549e+00
1.00375152e+00
1.00374071e+00
1.00372133e+00
1.00369182e+00
1.00365077e+00
1.00359710e+00
1.00353003e+00
1.00344909e+00
1.00335400e+00
1.00324470e+00
1.00312112e+00
1.00298308e+00
1.00283014e+00
1.00266164e+00
1.00247669e+00
1.00227431e+00
1.00205371e+00
1.00181458e+00
1.00155733e+00
1.00128331e+00
1.00099490e+00
1.00069542e+00
1.00038893e+00
1.00007991e+00
9.99772853e-01
9.99471972e-01
9.99180845e-01
9.98902243e-01
9.98638061e-01
9.98389363e-01
9.98156535e-01
9.97939487e-01
9.97737894e-01
9.97551406e-01
9.97379796e-01
9.97223015e-01
9.97081190e-01
9.96954533e-01
9.96843176e-01
9.96747025e-01
9.96665684e-01
9.96598377e-01
9.96543887e-01
9.96500700e-01
9.96467168e-01
9.96441532e-01
9.96422030e-01
9.96407184e-01
9.96395760e-01
9.96386630e-01
9.96379024e-01
9.96372395e-01
9.96366367e-01
9.96360101e-01
9.96353600e-01
9.96347689e-01
1.00358847e+00
1.00358678e+00
1.00358758e+00
1.00359157e+00
1.00359735e+00
1.00360316e+00
1.00360767e+00
1.00360915e+00
1.00360573e+00
1.00359569e+00
1.00357739e+00
1.00354925e+00
1.00350993e+00
1.00345848e+00
1.00339422e+00
1.00331676e+00
1.00322603e+00
1.00312208e+00
1.00300493e+00
1.00287444e+00
1.00273017e+00
1.00257133e+00
1.00239677e+00
1.00220525e+00
1.00199561e+00
1.00176717e+00
1.00151999e+00
1.00125518e+00
1.00097499e+00
1.00068271e+00
1.00038255e+00
1.00007920e+00
9.99777486e-01
9.99481915e-01
9.99196354e-01
9.98923790e-01
9.98666238e-01
9.98424785e-01
9.98199752e-01
9.97990928e-01
9.97797827e-01
9.97619925e-01
9.97456841e-01
9.97308409e-01
9.97174652e-01
9.97055705e-01
9.96951675e-01
9.96862452e-01
9.96787585e-01
9.96726270e-01
9.96677316e-01
9.96639152e-01
9.96610031e-01
9.96588237e-01
9.96572032e-01
9.96559809e-01
9.96550387e-01
9.96542850e-01
9.96536343e-01
9.96530344e-01
9.96524777e-01
9.96519070e-01
9.96513049e-01
9.96507210e-01
1.00344002e+00
1.00343802e+00
1.00343871e+00
1.00344194e+00
1.00344650e+00
1.00345102e+00
1.00345413e+00
1.00345420e+00
1.00344956e+00
1.00343857e+00
1.00341960e+00
1.00339122e+00
1.00335225e+00
1.00330180e+00
1.00323930e+00
1.00316456e+00
1.00307764e+00
1.00297870e+00
1.00286789e+00
1.00274510e+00
1.00260988e+00
1.00246129e+00
1.00229800e+00
1.00211845e+00
1.00192114e+00
1.00170501e+00
1.00146980e+00
1.00121632e+00
1.00094665e+00
1.00066404e+00
1.00037275e+00
1.00007768e+00
9.99783879e-01
9.99496134e-01
9.99218553e-01
9.98954308e-01
9.98705515e-01
9.98473271e-01
9.98257823e-01
9.98058820e-01
9.97875605e-01
9.97707467e-01
9.97553837e-01
9.97414394e-01
9.97289054e-01
9.97177855e-01
9.97080840e-01
9.96997895e-01
9.96928590e-01
9.96872097e-01
9.96827246e-01
9.96792561e-01
9.96766308e-01
9.96746719e-01
9.96732167e-01
9.96721168e-01
9.96712457e-01
9.96705177e-01
9.96698714e-01
9.96692594e-01
9.96686654e-01
9.96680794e-01
9.96674919e-01
9.96668803e-01
1.00329047e+00
1.00328769e+00
1.00328761e+00
1.00328923e+00
1.00329149e+00
1.00329345e+00
1.00329378e+00
1.00329100e+00
1.00328364e+00
1.00327016e+00
1.00324907e+00
1.00321910e+00
1.00317920e+00
1.00312859e+00
1.00306690e+00
1.00299411e+00
1.00291040e+00
1.00281611e+00
1.00271147e+00
1.00259645e+00
1.00247053e+00
1.00233269e+00
1.00218139e+00
1.00201479e+00
1.00183106e+00
1.00162876e+00
1.00140729e+00
1.00116716e+00
1.00091023e+00
1.00063968e+00
1.00035977e+00
1.00007552e+00
9.99792167e-01
9.99514712e-01
9.99247467e-01
9.98993755e-01
9.98755768e-01
9.98534600e-01
9.98330412e-01
9.98142705e-01
9.97970632e-01
9.97813280e-01
9.97669881e-01
9.97539929e-01
9.97423197e-01
9.97319641e-01
9.97229240e-01
9.97151858e-01
9.97087117e-01
9.97034270e-01
9.96992195e-01
9.96959512e-01
9.96934643e-01
9.96915885e-01
9.96901653e-01
9.96890612e-01
9.96881590e-01
9.96873734e-01
9.96866546e-01
9.96859705e-01
9.96852973e-01
9.96846645e-01
9.96840680e-01
9.96834071e-01
1.00313774e+00
1.00313396e+00
1.00313271e+00
1.00313221e+00
1.00313147e+00
1.00312999e+00
1.00312657e+00
1.00311995e+00
1.00310875e+00
1.00309163e+00
1.00306731e+00
1.00303466e+00
1.00299276e+00
1.00294105e+00
1.00287936e+00
1.00280780e+00
1.00272677e+00
1.00263674e+00
1.00253808e+00
1.00243078e+00
1.00231433e+00
1.00218760e+00
1.00204886e+00
1.00189601e+00
1.00172689e+00
1.00153974e+00
1.00133356e+00
1.00110859e+00
1.00086645e+00
1.00061015e+00
1.00034393e+00
1.00007287e+00
9.99802321e-01
9.99537451e-01
9.99282724e-01
9.99041582e-01
9.98816269e-01
9.98607857e-01
9.98416414e-01
9.98241288e-01
9.98081431e-01
9.97935711e-01
9.97803148e-01
9.97683047e-01
9.97575015e-01
9.97478902e-01
9.97394658e-01
9.97322148e-01
9.97261041e-01
9.97210725e-01
9.97170245e-01
9.97138337e-01
9.97113588e-01
9.97094511e-01
9.97079625e-01
9.97067646e-01
9.97057574e-01
9.97048668e-01
9.97040393e-01
9.97032525e-01
9.97024896e-01
9.97018095e-01
9.97012015e-01
9.97004953e-01
1.00297957e+00
1.00297493e+00
1.00297248e+00
1.00296961e+00
1.00296557e+00
1.00296027e+00
1.00295262e+00
1.00294156e+00
1.00292587e+00
1.00290444e+00
1.00287615e+00
1.00284004e+00
1.00279542e+00
1.00274194e+00
1.00267959e+00
1.00260872e+00
1.00252992e+00
1.00244382e+00
1.00235090e+00
1.00225122e+00
1.00214428e+00
1.00202885e+00
1.00190303e+00
1.00176450e+00
1.00161079e+00
1.00143979e+00
1.00125020e+00
1.00104190e+00
1.00081625e+00
1.00057611e+00
1.00032561e+00
1.00006981e+00
9.99814147e-01
9.99563882e-01
9.99323588e-01
9.99096786e-01
9.98885753e-01
9.98691524e-01
9.98514065e-01
9.98352564e-01
9.98205776e-01
9.98072341e-01
9.97951054e-01
9.97841023e-01
9.97741698e-01
9.97652812e-01
9.97574276e-01
9.97506004e-01
9.97447758e-01
9.97399066e-01
9.97359193e-01
9.97327111e-01
9.97301595e-01
9.97281359e-01
9.97265140e-01
9.97251760e-01
9.97240296e-01
9.97230124e-01
9.97220751e-01
9.97211964e-01
9.97203583e-01
9.97196462e-01
9.97190538e-01
9.97183375e-01
1.00281412e+00
1.00280902e+00
1.00280560e+00
1.00280044e+00
1.00279320e+00
1.00278412e+00
1.00277222e+00
1.00275658e+00
1.00273625e+00
1.00271026e+00
1.00267767e+00
1.00263776e+00
1.00259004e+00
1.00253437e+00
1.00247098e+00
1.00240043e+00
1.00232353e+00
1.00224108e+00
1.00215368e+00
1.00206148e+00
1.00196397e+00
1.00185985e+00
1.00174710e+00
1.00162317e+00
1.00148534e+00
1.00133119e+00
1.00115908e+00
1.00096859e+00
1.00076079e+00
1.00053832e+00
1.00030518e+00
1.00006636e+00
9.99827303e-01
9.99593313e-01
9.99369027e-01
9.99158009e-01
9.98962541e-01
9.98783615e-01
9.98621088e-01
9.98473991e-01
9.98340878e-01
9.98220173e-01
9.98110445e-01
9.98010594e-01
9.97919914e-01
9.97838045e-01
9.97764857e-01
9.97700318e-01
9.97644338e-01
9.97596631e-01
9.97556692e-01
9.97523781e-01
9.97496953e-01
9.97475122e-01
9.97457238e-01
9.97442310e-01
9.97429485e-01
9.97418166e-01
9.97407947e-01
9.97398617e-01
9.97389887e-01
9.97382797e-01
9.97377472e-01
9.97370755e-01
1.00264026e+00
1.00263527e+00
1.00263126e+00
1.00262422e+00
1.00261424e+00
1.00260178e+00
1.00258599e+00
1.00256611e+00
1.00254138e+00
1.00251097e+00
1.00247420e+00
1.00243050e+00
1.00237964e+00
1.00232168e+00
1.00225712e+00
1.00218675e+00
1.00211156e+00
1.00203256e+00
1.00195048e+00
1.00186555e+00
1.00177726e+00
1.00168430e+00
1.00158452e+00
1.00147519e+00
1.00135339e+00
1.00121640e+00
1.00106228e+00
1.00089031e+00
1.00070128e+00
1.00049758e+00
1.00028301e+00
1.00006247e+00
9.99841332e-01
9.99624896e-01
9.99417810e-01
9.99223651e-01
9.99044686e-01
9.98881846e-01
9.98734889e-01
9.98602693e-01
9.98483620e-01
9.98375881e-01
9.98277836e-01
9.98188186e-01
9.98106066e-01
9.98031031e-01
9.97962939e-01
9.97901817e-01
9.97847729e-01
9.97800632e-01
9.97760288e-01
9.97726244e-01
9.97697872e-01
9.97674359e-01
9.97654846e-01
9.97638501e-01
9.97624598e-01
9.97612552e-01
9.97601966e-01
9.97592606e-01
9.97584121e-01
9.97577582e-01
9.97573358e-01
9.97567740e-01
1.00245782e+00
1.00245366e+00
1.00244956e+00
1.00244121e+00
1.00242918e+00
1.00241401e+00
1.00239501e+00
1.00237153e+00
1.00234298e+00
1.00230869e+00
1.00226816e+00
1.00222104e+00
1.00216729e+00
1.00210725e+00
1.00204163e+00
1.00197147e+00
1.00189797e+00
1.00182231e+00
1.00174537e+00
1.00166745e+00
1.00158809e+00
1.00150595e+00
1.00141880e+00
1.00132380e+00
1.00121782e+00
1.00109792e+00
1.00096190e+00
1.00080875e+00
1.00063896e+00
1.00045466e+00
1.00025945e+00
1.00005805e+00
9.99855717e-01
9.99657700e-01
9.99468612e-01
9.99292008e-01
9.99130120e-01
9.98983817e-01
9.98852757e-01
9.98735677e-01
9.98630768e-01
9.98536045e-01
9.98449668e-01
9.98370160e-01
9.98296512e-01
9.98228190e-01
9.98165054e-01
9.98107217e-01
9.98054900e-01
9.98008304e-01
9.97967499e-01
9.97932342e-01
9.97902509e-01
9.97877483e-01
9.97856634e-01
9.97839257e-01
9.97824737e-01
9.97812518e-01
9.97802181e-01
9.97793411e-01
9.97785827e-01
9.97780395e-01
9.97777790e-01
9.97773990e-01
1.00226790e+00
1.00226525e+00
1.00226157e+00
1.00225255e+00
1.00223926e+00
1.00222221e+00
1.00220085e+00
1.00217461e+00
1.00214304e+00
1.00210563e+00
1.00206203e+00
1.00201208e+00
1.00195597e+00
1.00189427e+00
1.00182792e+00
1.00175817e+00
1.00168647e+00
1.00161413e+00
1.00154217e+00
1.00147098e+00
1.00140016e+00
1.00132835e+00
1.00125329e+00
1.00117207e+00
1.00108140e+00
1.00097818e+00
1.00085998e+00
1.00072552e+00
1.00057502e+00
1.00041034e+00
1.00023482e+00
1.00005298e+00
9.99869924e-01
9.99690785e-01
9.99520105e-01
9.99361382e-01
9.99216799e-01
9.99087161e-01
9.98972031e-01
9.98870026e-01
9.98779188e-01
9.98697361e-01
9.98622524e-01
9.98553039e-01
9.98487774e-01
9.98426115e-01
9.98367922e-01
9.98313403e-01
9.98262948e-01
9.98216994e-01
9.98175913e-01
9.98139898e-01
9.98108927e-01
9.98082761e-01
9.98061011e-01
9.98043120e-01
9.98028545e-01
9.98016736e-01
9.98007270e-01
9.97999719e-01
9.97993652e-01
9.97989815e-01
9.97989278e-01
9.97987958e-01
1.00207289e+00
1.00207229e+00
1.00206942e+00
1.00206031e+00
1.00204654e+00
1.00202843e+00
1.00200558e+00
1.00197747e+00
1.00194378e+00
1.00190410e+00
1.00185823e+00
1.00180620e+00
1.00174841e+00
1.00168562e+00
1.00161901e+00
1.00155005e+00
1.00148034e+00
1.00141137e+00
1.00134427e+00
1.00127953e+00
1.00121678e+00
1.00115470e+00
1.00109103e+00
1.00102280e+00
1.00094667e+00
1.00085941e+00
1.00075839e+00
1.00064212e+00
1.00051057e+00
1.00036530e+00
1.00020941e+00
1.00004715e+00
9.99883446e-01
9.99723262e-01
9.99571031e-01
9.99430172e-01
9.99302801e-01
9.99189659e-01
9.99090232e-01
9.99003037e-01
9.98925990e-01
9.98856793e-01
9.98793279e-01
9.98733662e-01
9.98676695e-01
9.98621707e-01
9.98568559e-01
9.98517531e-01
9.98469185e-01
9.98424195e-01
9.98383209e-01
9.98346733e-01
9.98315069e-01
9.98288240e-01
9.98266073e-01
9.98248169e-01
9.98234069e-01
9.98223195e-01
9.98215113e-01
9.98209276e-01
9.98205212e-01
9.98203336e-01
9.98205130e-01
9.98206774e-01
1.00187640e+00
1.00187808e+00
1.00187620e+00
1.00186747e+00
1.00185380e+00
1.00183532e+00
1.00181173e+00
1.00178257e+00
1.00174758e+00
1.00170644e+00
1.00165912e+00
1.00160579e+00
1.00154703e+00
1.00148381e+00
1.00141750e+00
1.00134976e+00
1.00128232e+00
1.00121683e+00
1.00115452e+00
1.00109592e+00
1.00104074e+00
1.00098771e+00
1.00093459e+00
1.00087843e+00
1.00081586e+00
1.00074357e+00
1.00065882e+00
1.00055993e+00
1.00044663e+00
1.00032022e+00
1.00018350e+00
1.00004048e+00
9.99895823e-01
9.99754315e-01
9.99620240e-01
9.99496916e-01
9.99386381e-01
9.99289312e-01
9.99205136e-01
9.99132296e-01
9.99068610e-01
9.99011669e-01
9.98959186e-01
9.98909253e-01
9.98860517e-01
9.98812254e-01
9.98764320e-01
9.98717061e-01
9.98671182e-01
9.98627572e-01
9.98587138e-01
9.98550676e-01
9.98518782e-01
9.98491746e-01
9.98469600e-01
9.98452089e-01
9.98438837e-01
9.98429256e-01
9.98422878e-01
9.98419026e-01
9.98417217e-01
9.98417467e-01
9.98421601e-01
9.98426398e-01
1.00168286e+00
1.00168674e+00
1.00168578e+00
1.00167763e+00
1.00166441e+00
1.00164600e+00
1.00162221e+00
1.00159258e+00
1.00155692e+00
1.00151501e+00
1.00146692e+00
1.00141298e+00
1.00135393e+00
1.00129092e+00
1.00122548e+00
1.00115941e+00
1.00109459e+00
1.00103272e+00
1.00097512e+00
1.00092240e+00
1.00087429e+00
1.00082959e+00
1.00078613e+00
1.00074100e+00
1.00069085e+00
1.00063237e+00
1.00056275e+00
1.00048015e+00
1.00038411e+00
1.00027568e+00
1.00015737e+00
1.00003288e+00
9.99906645e-01
9.99783213e-01
9.99666701e-01
9.99560303e-01
9.99465976e-01
9.99384343e-01
9.99314785e-01
9.99255691e-01
9.99204820e-01
9.99159684e-01
9.99117890e-01
9.99077431e-01
9.99036871e-01
9.98995414e-01
9.98952900e-01
9.98909733e-01
9.98866726e-01
9.98824936e-01
9.98785511e-01
9.98749512e-01
9.98717785e-01
9.98690876e-01
9.98669030e-01
9.98652124e-01
9.98639860e-01
9.98631664e-01
9.98627030e-01
9.98625157e-01
9.98625557e-01
9.98627827e-01
9.98634024e-01
9.98641842e-01
1.00149715e+00
1.00150279e+00
1.00150241e+00
1.00149478e+00
1.00148205e+00
1.00146385e+00
1.00144009e+00
1.00141029e+00
1.00137434e+00
1.00133209e+00
1.00128372e+00
1.00122969e+00
1.00117090e+00
1.00110865e+00
1.00104459e+00
1.00098064e+00
1.00091875e+00
1.00086068e+00
1.00080777e+00
1.00076066e+00
1.00071915e+00
1.00068208e+00
1.00064735e+00
1.00061217e+00
1.00057324e+00
1.00052728e+00
1.00047146e+00
1.00040388e+00
1.00032386e+00
1.00023224e+00
1.00013125e+00
1.00002431e+00
9.99915549e-01
9.99809298e-01
9.99709480e-01
9.99619150e-01
9.99540188e-01
9.99473170e-01
9.99417443e-01
9.99371374e-01
9.99332690e-01
9.99298842e-01
9.99267359e-01
9.99236156e-01
9.99203706e-01
9.99169138e-01
9.99132267e-01
9.99093513e-01
9.99053760e-01
9.99014206e-01
9.98976192e-01
9.98940997e-01
9.98909706e-01
9.98883101e-01
9.98861618e-01
9.98845282e-01
9.98833885e-01
9.98826869e-01
9.98823703e-01
9.98823488e-01
9.98825728e-01
9.98829624e-01
9.98837314e-01
9.98847619e-01
1.00132403e+00
1.00133068e+00
1.00133032e+00
1.00132289e+00
1.00131038e+00
1.00129223e+00
1.00126839e+00
1.00123844e+00
1.00120226e+00
1.00115981e+00
1.00111139e+00
1.00105760e+00
1.00099944e+00
1.00093836e+00
1.00087611e+00
1.00081466e+00
1.00075599e+00
1.00070189e+00
1.00065367e+00
1.00061197e+00
1.00057661e+00
1.00054650e+00
1.00051963e+00
1.00049329e+00
1.00046432e+00
1.00042953e+00
1.00038609e+00
1.00033205e+00
1.00026662e+00
1.00019040e+00
1.00010539e+00
1.00001470e+00
9.99922208e-01
9.99831967e-01
9.99747714e-01
9.99672373e-01
9.99607742e-01
9.99554354e-01
9.99511551e-01
9.99477699e-01
9.99450504e-01
9.99427380e-01
9.99405812e-01
9.99383628e-01
9.99359201e-01
9.99331593e-01
9.99300565e-01
9.99266503e-01
9.99230331e-01
9.99193356e-01
9.99157043e-01
9.99122854e-01
9.99092102e-01
9.99065770e-01
9.99044469e-01
9.99028403e-01
9.99017457e-01
9.99011111e-01
9.99008820e-01
9.99009637e-01
9.99013039e-01
9.99017898e-01
9.99026252e-01
9.99038190e-01
1.00116762e+00
1.00117431e+00
1.00117325e+00
1.00116549e+00
1.00115268e+00
1.00113416e+00
1.00110987e+00
1.00107945e+00
1.00104284e+00
1.00100009e+00
1.00095160e+00
1.00089812e+00
1.00084079e+00
1.00078113e+00
1.00072099e+00
1.00066235e+00
1.00060717e+00
1.00055718e+00
1.00051366e+00
1.00047721e+00
1.00044763e+00
1.00042386e+00
1.00040401e+00
1.00038548e+00
1.00036523e+00
1.00034020e+00
1.00030763e+00
1.00026554e+00
1.00021307e+00
1.00015065e+00
1.00008002e+00
1.00000404e+00
9.99926314e-01
9.99850653e-01
9.99780602e-01
9.99718959e-01
9.99667443e-01
9.99626564e-01
9.99595673e-01
9.99573146e-01
9.99556687e-01
9.99543699e-01
9.99531620e-01
9.99518183e-01
9.99501680e-01
9.99481080e-01
9.99456039e-01
9.99426893e-01
9.99394577e-01
9.99360421e-01
9.99325982e-01
9.99292890e-01
9.99262621e-01
9.99236342e-01
9.99214863e-01
9.99198554e-01
9.99187399e-01
9.99180966e-01
9.99178717e-01
9.99179678e-01
9.99183300e-01
9.99188251e-01
9.99196256e-01
9.99208639e-01
1.00103093e+00
1.00103661e+00
1.00103408e+00
1.00102533e+00
1.00101152e+00
1.00099200e+00
1.00096670e+00
1.00093530e+00
1.00089782e+00
1.00085443e+00
1.00080566e+00
1.00075238e+00
1.00069589e+00
1.00063779e+00
1.00057994e+00
1.00052432e+00
1.00047285e+00
1.00042714e+00
1.00038834e+00
1.00035701e+00
1.00033290e+00
1.00031495e+00
1.00030135e+00
1.00028964e+00
1.00027691e+00
1.00026023e+00
1.00023696e+00
1.00020515e+00
1.00016386e+00
1.00011342e+00
1.00005536e+00
9.99992304e-01
9.99927593e-01
9.99864838e-01
9.99807404e-01
9.99757964e-01
9.99718181e-01
9.99688563e-01
9.99668472e-01
9.99656299e-01
9.99649780e-01
9.99646308e-01
9.99643249e-01
9.99638270e-01
9.99629571e-01
9.99615973e-01
9.99597013e-01
9.99572969e-01
9.99544698e-01
9.99513506e-01
9.99481038e-01
9.99449021e-01
9.99419040e-01
9.99392465e-01
9.99370296e-01
9.99353050e-01
9.99340847e-01
9.99333395e-01
9.99330165e-01
9.99330208e-01
9.99332961e-01
9.99336990e-01
9.99343552e-01
9.99355096e-01
1.00091555e+00
1.00091920e+00
1.00091447e+00
1.00090402e+00
1.00088849e+00
1.00086725e+00
1.00084024e+00
1.00080725e+00
1.00076833e+00
1.00072383e+00
1.00067443e+00
1.00062116e+00
1.00056539e+00
1.00050886e+00
1.00045343e+00
1.00040099e+00
1.00035338e+00
1.00031209e+00
1.00027809e+00
1.00025180e+00
1.00023292e+00
1.00022036e+00
1.00021233e+00
1.00020650e+00
1.00020015e+00
1.00019044e+00
1.00017487e+00
1.00015157e+00
1.00011959e+00
1.00007915e+00
1.00003164e+00
9.99979490e-01
9.99925828e-01
9.99874079e-01
9.99827461e-01
9.99788547e-01
9.99758968e-01
9.99739234e-01
9.99728724e-01
9.99725879e-01
9.99728458e-01
9.99733820e-01
9.99739290e-01
9.99742467e-01
9.99741399e-01
9.99734752e-01
9.99721960e-01
9.99703151e-01
9.99679049e-01
9.99650958e-01
9.99620527e-01
9.99589495e-01
9.99559590e-01
9.99532361e-01
9.99508930e-01
9.99490011e-01
9.99475907e-01
9.99466445e-01
9.99461140e-01
9.99459160e-01
9.99459900e-01
9.99461942e-01
9.99465992e-01
9.99475339e-01
1.00082153e+00
1.00082231e+00
1.00081477e+00
1.00080196e+00
1.00078401e+00
1.00076037e+00
1.00073096e+00
1.00069571e+00
1.00065480e+00
1.00060869e+00
1.00055826e+00
1.00050473e+00
1.00044957e+00
1.00039455e+00
1.00034160e+00
1.00029252e+00
1.00024893e+00
1.00021218e+00
1.00018309e+00
1.00016183e+00
1.00014798e+00
1.00014044e+00
1.00013742e+00
1.00013665e+00
1.00013555e+00
1.00013148e+00
1.00012203e+00
1.00010543e+00
1.00008077e+00
1.00004824e+00
1.00000910e+00
9.99965652e-01
9.99920882e-01
9.99878048e-01
9.99840258e-01
9.99810040e-01
9.99788998e-01
9.99777646e-01
9.99775421e-01
9.99780814e-01
9.99791575e-01
9.99805052e-01
9.99818546e-01
9.99829526e-01
9.99835869e-01
9.99836134e-01
9.99829569e-01
9.99816072e-01
9.99796289e-01
9.99771452e-01
9.99743087e-01
9.99712984e-01
9.99683004e-01
9.99654756e-01
9.99629516e-01
9.99608253e-01
9.99591410e-01
9.99578956e-01
9.99570545e-01
9.99565486e-01
9.99563129e-01
9.99562192e-01
9.99562804e-01
9.99568801e-01
1.00074743e+00
1.00074470e+00