# vtk DataFile Version 2.0
LBM Flow Field - Timestep 100
ASCII
DATASET STRUCTURED_POINTS
DIMENSIONS 64 64 1
ORIGIN 0.0 0.0 0.0
SPACING 1.0 1.0 1.0
POINT_DATA 4096
SCALARS density double 1
LOOKUP_TABLE default
9.99984923e-01
9.99981364e-01
9.99979481e-01
9.99978061e-01
9.99977420e-01
9.99977224e-01
9.99977613e-01
9.99978430e-01
9.99979659e-01
9.99981185e-01
9.99982940e-01
9.99984826e-01
9.99986765e-01
9.99988682e-01
9.99990515e-01
9.99992212e-01
9.99993741e-01
9.99995079e-01
9.99996218e-01
9.99997162e-01
9.99997923e-01
9.99998519e-01
9.99998972e-01
9.99999307e-01
9.99999547e-01
9.99999713e-01
9.99999825e-01
9.99999897e-01
9.99999942e-01
9.99999969e-01
9.99999985e-01
9.99999996e-01
1.00000000e+00
1.00000002e+00
1.00000003e+00
1.00000006e+00
1.00000011e+00
1.00000019e+00
1.00000030e+00
1.00000048e+00
1.00000074e+00
1.00000109e+00
1.00000157e+00
1.00000221e+00
1.00000302e+00
1.00000403e+00
1.00000525e+00
1.00000668e+00
1.00000832e+00
1.00001014e+00
1.00001210e+00
1.00001416e+00
1.00001625e+00
1.00001828e+00
1.00002017e+00
1.00002181e+00
1.00002314e+00
1.00002403e+00
1.00002445e+00
1.00002425e+00
1.00002357e+00
1.00002205e+00
1.00002002e+00
1.00001620e+00
9.99974029e-01
9.99968760e-01
9.99966239e-01
9.99964044e-01
9.99962983e-01
9.99962601e-01
9.99963103e-01
9.99964257e-01
9.99966053e-01
9.99968328e-01
9.99970989e-01
9.99973894e-01
9.99976931e-01
9.99979983e-01
9.99982953e-01
9.99985758e-01
9.99988334e-01
9.99990638e-01
9.99992646e-01
9.99994350e-01
9.99995759e-01
9.99996893e-01
9.99997782e-01
9.99998458e-01
9.99998959e-01
9.99999318e-01
9.99999567e-01
9.99999735e-01
9.99999844e-01
9.99999914e-01
9.99999958e-01
9.99999988e-01
1.00000001e+00
1.00000005e+00
1.00000009e+00
1.00000016e+00
1.00000028e+00
1.00000046e+00
1.00000072e+00
1.00000110e+00
1.00000163e+00
1.00000235e+00
1.00000330e+00
1.00000450e+00
1.00000601e+00
1.00000783e+00
1.00000997e+00
1.00001244e+00
1.00001520e+00
1.00001821e+00
1.00002140e+00
1.00002468e+00
1.00002795e+00
1.00003108e+00
1.00003395e+00
1.00003641e+00
1.00003835e+00
1.00003961e+00
1.00004016e+00
1.00003976e+00
1.00003863e+00
1.00003628e+00
1.00003357e+00
1.00002791e+00
9.99948359e-01
9.99939099e-01
9.99934790e-01
9.99930784e-01
9.99928862e-01
9.99928063e-01
9.99928815e-01
9.99930709e-01
9.99933761e-01
9.99937700e-01
9.99942384e-01
9.99947581e-01
9.99953104e-01
9.99958748e-01
9.99964340e-01
9.99969719e-01
9.99974759e-01
9.99979360e-01
9.99983458e-01
9.99987017e-01
9.99990032e-01
9.99992521e-01
9.99994524e-01
9.99996092e-01
9.99997286e-01
9.99998169e-01
9.99998802e-01
9.99999242e-01
9.99999540e-01
9.99999736e-01
9.99999867e-01
9.99999961e-01
1.00000004e+00
1.00000014e+00
1.00000028e+00
1.00000048e+00
1.00000080e+00
1.00000126e+00
1.00000193e+00
1.00000286e+00
1.00000413e+00
1.00000579e+00
1.00000792e+00
1.00001058e+00
1.00001379e+00
1.00001759e+00
1.00002198e+00
1.00002691e+00
1.00003231e+00
1.00003809e+00
1.00004410e+00
1.00005018e+00
1.00005614e+00
1.00006175e+00
1.00006681e+00
1.00007108e+00
1.00007439e+00
1.00007645e+00
1.00007729e+00
1.00007645e+00
1.00007440e+00
1.00007011e+00
1.00006548e+00
1.00005551e+00
9.99899075e-01
9.99883271e-01
9.99875547e-01
9.99868756e-01
9.99865281e-01
9.99863785e-01
9.99864871e-01
9.99867962e-01
9.99873061e-01
9.99879770e-01
9.99887863e-01
9.99896975e-01
9.99906802e-01
9.99917002e-01
9.99927274e-01
9.99937327e-01
9.99946920e-01
9.99955849e-01
9.99963963e-01
9.99971162e-01
9.99977398e-01
9.99982670e-01
9.99987015e-01
9.99990505e-01
9.99993234e-01
9.99995310e-01
9.99996843e-01
9.99997944e-01
9.99998713e-01
9.99999242e-01
9.99999609e-01
9.99999885e-01
1.00000013e+00
1.00000042e+00
1.00000080e+00
1.00000135e+00
1.00000216e+00
1.00000332e+00
1.00000494e+00
1.00000713e+00
1.00001003e+00
1.00001373e+00
1.00001836e+00
1.00002397e+00
1.00003063e+00
1.00003833e+00
1.00004702e+00
1.00005661e+00
1.00006691e+00
1.00007773e+00
1.00008880e+00
1.00009981e+00
1.00011042e+00
1.00012028e+00
1.00012905e+00
1.00013634e+00
1.00014189e+00
1.00014527e+00
1.00014650e+00
1.00014493e+00
1.00014122e+00
1.00013392e+00
1.00012561e+00
1.00010858e+00
9.99813072e-01
9.99788008e-01
9.99775151e-01
9.99764493e-01
9.99758637e-01
9.99756132e-01
9.99757608e-01
9.99762374e-01
9.99770379e-01
9.99781103e-01
9.99794205e-01
9.99809170e-01
9.99825537e-01
9.99842787e-01
9.99860436e-01
9.99878009e-01
9.99895080e-01
9.99911274e-01
9.99926288e-01
9.99939893e-01
9.99951940e-01
9.99962361e-01
9.99971161e-01
9.99978410e-01
9.99984229e-01
9.99988778e-01
9.99992239e-01
9.99994801e-01
9.99996654e-01
9.99997976e-01
9.99998934e-01
9.99999682e-01
1.00000037e+00
1.00000113e+00
1.00000212e+00
1.00000351e+00
1.00000545e+00
1.00000815e+00
1.00001180e+00
1.00001662e+00
1.00002279e+00
1.00003050e+00
1.00003987e+00
1.00005100e+00
1.00006388e+00
1.00007846e+00
1.00009458e+00
1.00011199e+00
1.00013037e+00
1.00014932e+00
1.00016838e+00
1.00018704e+00
1.00020476e+00
1.00022099e+00
1.00023522e+00
1.00024689e+00
1.00025563e+00
1.00026088e+00
1.00026256e+00
1.00025993e+00
1.00025367e+00
1.00024221e+00
1.00022835e+00
1.00020129e+00
9.99674328e-01
9.99637877e-01
9.99618241e-01
9.99602953e-01
9.99594004e-01
9.99590279e-01
9.99592182e-01
9.99599056e-01
9.99610740e-01
9.99626641e-01
9.99646298e-01
9.99669062e-01
9.99694306e-01
9.99721320e-01
9.99749410e-01
9.99777866e-01
9.99806021e-01
9.99833253e-01
9.99859021e-01
9.99882876e-01
9.99904479e-01
9.99923608e-01
9.99940161e-01
9.99954149e-01
9.99965680e-01
9.99974948e-01
9.99982208e-01
9.99987755e-01
9.99991906e-01
9.99994983e-01
9.99997306e-01
9.99999188e-01
1.00000094e+00
1.00000285e+00
1.00000526e+00
1.00000847e+00
1.00001283e+00
1.00001868e+00
1.00002635e+00
1.00003617e+00
1.00004843e+00
1.00006332e+00
1.00008099e+00
1.00010145e+00
1.00012461e+00
1.00015022e+00
1.00017794e+00
1.00020729e+00
1.00023767e+00
1.00026842e+00
1.00029881e+00
1.00032808e+00
1.00035546e+00
1.00038019e+00
1.00040158e+00
1.00041891e+00
1.00043170e+00
1.00043928e+00
1.00044148e+00
1.00043758e+00
1.00042801e+00
1.00041157e+00
1.00039039e+00
1.00035100e+00
9.99466699e-01
9.99418581e-01
9.99391260e-01
9.99371477e-01
9.99359206e-01
9.99354375e-01
9.99356809e-01
9.99366107e-01
9.99381946e-01
9.99403761e-01
9.99431007e-01
9.99462968e-01
9.99498899e-01
9.99537944e-01
9.99579214e-01
9.99621770e-01
9.99664677e-01
9.99707017e-01
9.99747931e-01
9.99786654e-01
9.99822540e-01
9.99855090e-01
9.99883972e-01
9.99909019e-01
9.99930236e-01
9.99947780e-01
9.99961939e-01
9.99973110e-01
9.99981766e-01
9.99988436e-01
9.99993680e-01
9.99998078e-01
1.00000222e+00
1.00000670e+00
1.00001213e+00
1.00001909e+00
1.00002818e+00
1.00003997e+00
1.00005496e+00
1.00007359e+00
1.00009617e+00
1.00012291e+00
1.00015381e+00
1.00018870e+00
1.00022725e+00
1.00026892e+00
1.00031301e+00
1.00035871e+00
1.00040507e+00
1.00045111e+00
1.00049580e+00
1.00053812e+00
1.00057710e+00
1.00061181e+00
1.00064144e+00
1.00066522e+00
1.00068255e+00
1.00069282e+00
1.00069565e+00
1.00069065e+00
1.00067756e+00
1.00065637e+00
1.00062691e+00
1.00057501e+00
9.99178653e-01
9.99121696e-01
9.99087387e-01
9.99064636e-01
9.99049790e-01
9.99044566e-01
9.99047857e-01
9.99059766e-01
9.99079772e-01
9.99107485e-01
9.99142352e-01
9.99183721e-01
9.99230838e-01
9.99282819e-01
9.99338683e-01
9.99397342e-01
9.99457645e-01
9.99518394e-01
9.99578393e-01
9.99636492e-01
9.99691637e-01
9.99742917e-01
9.99789607e-01
9.99831201e-01
9.99867432e-01
9.99898277e-01
9.99923952e-01
9.99944890e-01
9.99961711e-01
9.99975190e-01
9.99986220e-01
9.99995781e-01
1.00000490e+00
1.00001464e+00
1.00002604e+00
1.00004012e+00
1.00005781e+00
1.00007993e+00
1.00010717e+00
1.00013999e+00
1.00017865e+00
1.00022315e+00
1.00027320e+00
1.00032828e+00
1.00038760e+00
1.00045019e+00
1.00051490e+00
1.00058047e+00
1.00064560e+00
1.00070898e+00
1.00076937e+00
1.00082558e+00
1.00087656e+00
1.00092134e+00
1.00095913e+00
1.00098923e+00
1.00101104e+00
1.00102416e+00
1.00102800e+00
1.00102272e+00
1.00100702e+00
1.00098291e+00
1.00094609e+00
1.00088507e+00
9.98808730e-01
9.98749460e-01
9.98711122e-01
9.98688465e-01
9.98673134e-01
9.98668994e-01
9.98673870e-01
9.98688509e-01
9.98712229e-01
9.98744943e-01
9.98786202e-01
9.98835576e-01
9.98892466e-01
9.98956140e-01
9.99025709e-01
9.99100113e-01
9.99178143e-01
9.99258448e-01
9.99339578e-01
9.99420030e-01
9.99498315e-01
9.99573020e-01
9.99642890e-01
9.99706892e-01
9.99764283e-01
9.99814651e-01
9.99857949e-01
9.99894500e-01
9.99924985e-01
9.99950409e-01
9.99972052e-01
9.99991404e-01
1.00001009e+00
1.00002979e+00
1.00005216e+00
1.00007872e+00
1.00011082e+00
1.00014951e+00
1.00019554e+00
1.00024925e+00
1.00031061e+00
1.00037918e+00
1.00045417e+00
1.00053446e+00
1.00061867e+00
1.00070525e+00
1.00079259e+00
1.00087902e+00
1.00096298e+00
1.00104300e+00
1.00111778e+00
1.00118619e+00
1.00124729e+00
1.00130032e+00
1.00134467e+00
1.00137991e+00
1.00140557e+00
1.00142161e+00
1.00142726e+00
1.00142342e+00
1.00140754e+00
1.00138414e+00
1.00134348e+00
1.00128107e+00
9.98369731e-01
9.98317587e-01
9.98280424e-01
9.98261962e-01
9.98249507e-01
9.98248582e-01
9.98256239e-01
9.98273790e-01
9.98300499e-01
9.98336642e-01
9.98381985e-01
9.98436450e-01
9.98499758e-01
9.98571529e-01
9.98651185e-01
9.98737941e-01
9.98830780e-01
9.98928445e-01
9.99029453e-01
9.99132127e-01
9.99234657e-01
9.99335180e-01
9.99431872e-01
9.99523068e-01
9.99607370e-01
9.99683762e-01
9.99751700e-01
9.99811179e-01
9.99862763e-01
9.99907572e-01
9.99947224e-01
9.99983735e-01
1.00001938e+00
1.00005654e+00
1.00009750e+00
1.00014433e+00
1.00019869e+00
1.00026174e+00
1.00033406e+00
1.00041563e+00
1.00050583e+00
1.00060355e+00
1.00070724e+00
1.00081507e+00
1.00092501e+00
1.00103503e+00
1.00114313e+00
1.00124750e+00
1.00134654e+00
1.00143892e+00
1.00152360e+00
1.00159977e+00
1.00166688e+00
1.00172460e+00
1.00177268e+00
1.00181112e+00
1.00183969e+00
1.00185877e+00
1.00186754e+00
1.00186754e+00
1.00185536e+00
1.00183738e+00
1.00179901e+00
1.00174624e+00
9.97889396e-01
9.97854381e-01
9.97824817e-01
9.97814565e-01
9.97808901e-01
9.97813492e-01
9.97825398e-01
9.97846165e-01
9.97875162e-01
9.97912984e-01
9.97959661e-01
9.98015523e-01
9.98080700e-01
9.98155297e-01
9.98239231e-01
9.98332226e-01
9.98433735e-01
9.98542909e-01
9.98658562e-01
9.98779174e-01
9.98902919e-01
9.99027721e-01
9.99151367e-01
9.99271636e-01
9.99386463e-01
9.99494123e-01
9.99593403e-01
9.99683748e-01
9.99765366e-01
9.99839253e-01
9.99907149e-01
9.99971400e-01
1.00003475e+00
1.00010010e+00
1.00017020e+00
1.00024739e+00
1.00033340e+00
1.00042919e+00
1.00053488e+00
1.00064976e+00
1.00077244e+00
1.00090095e+00
1.00103299e+00
1.00116608e+00
1.00129777e+00
1.00142580e+00
1.00154819e+00
1.00166335e+00
1.00177006e+00
1.00186750e+00
1.00195518e+00
1.00203291e+00
1.00210072e+00
1.00215882e+00
1.00220745e+00
1.00224703e+00
1.00227768e+00
1.00230007e+00
1.00231356e+00
1.00231987e+00
1.00231577e+00
1.00230759e+00
1.00227886e+00
1.00224702e+00
9.97406302e-01
9.97395714e-01
9.97379530e-01
9.97380043e-01
9.97384377e-01
9.97396179e-01
9.97413571e-01
9.97437853e-01
9.97468651e-01
9.97506743e-01
9.97552390e-01
9.97606262e-01
9.97668862e-01
9.97740784e-01
9.97822492e-01
9.97914337e-01
9.98016437e-01
9.98128623e-01
9.98250356e-01
9.98380676e-01
9.98518181e-01
9.98661043e-01
9.98807076e-01
9.98953873e-01
9.99098980e-01
9.99240129e-01
9.99375473e-01
9.99503818e-01
9.99624795e-01
9.99738948e-01
9.99847709e-01
9.99953251e-01
1.00005823e+00
1.00016548e+00
1.00027759e+00
1.00039664e+00
1.00052390e+00
1.00065971e+00
1.00080340e+00
1.00095346e+00
1.00110768e+00
1.00126346e+00
1.00141801e+00
1.00156866e+00
1.00171305e+00
1.00184925e+00
1.00197582e+00
1.00209187e+00
1.00219696e+00
1.00229108e+00
1.00237450e+00
1.00244775e+00
1.00251144e+00
1.00256632e+00
1.00261301e+00
1.00265229e+00
1.00268449e+00
1.00271048e+00
1.00272995e+00
1.00274421e+00
1.00275149e+00
1.00275542e+00
1.00274255e+00
1.00273903e+00
9.96961663e-01
9.96977277e-01
9.96977604e-01
9.96988993e-01
9.97004509e-01
9.97023845e-01
9.97047068e-01
9.97074816e-01
9.97107056e-01
9.97144588e-01
9.97187785e-01
9.97237498e-01
9.97294443e-01
9.97359555e-01
9.97433716e-01
9.97517841e-01
9.97612718e-01
9.97718965e-01
9.97836906e-01
9.97966486e-01
9.98107185e-01
9.98257979e-01
9.98417345e-01
9.98583343e-01
9.98753761e-01
9.98926325e-01
9.99098943e-01
9.99269957e-01
9.99438350e-01
9.99603864e-01
9.99767006e-01
9.99928929e-01
1.00009120e+00
1.00025547e+00
1.00042315e+00
1.00059510e+00
1.00077144e+00
1.00095142e+00
1.00113348e+00
1.00131544e+00
1.00149473e+00
1.00166871e+00
1.00183488e+00
1.00199116e+00
1.00213601e+00
1.00226849e+00
1.00238824e+00
1.00249544e+00
1.00259063e+00
1.00267466e+00
1.00274855e+00
1.00281336e+00
1.00287014e+00
1.00291993e+00
1.00296354e+00
1.00300187e+00
1.00303536e+00
1.00306484e+00
1.00309041e+00
1.00311254e+00
1.00313192e+00
1.00314717e+00
1.00315278e+00
1.00317776e+00
9.96589608e-01
9.96626728e-01
9.96642835e-01
9.96662699e-01
9.96687829e-01
9.96713290e-01
9.96741321e-01
9.96771752e-01
9.96804890e-01
9.96841408e-01
9.96881679e-01
9.96926535e-01
9.96976697e-01
9.97033185e-01
9.97097050e-01
9.97169514e-01
9.97251829e-01
9.97345265e-01
9.97450988e-01
9.97569973e-01
9.97702884e-01
9.97849994e-01
9.98011114e-01
9.98185590e-01
9.98372345e-01
9.98569981e-01
9.98776916e-01
9.98991535e-01
9.99212324e-01
9.99437955e-01
9.99667313e-01
9.99899441e-01
1.00013345e+00
1.00036835e+00
1.00060299e+00
1.00083586e+00
1.00106518e+00
1.00128883e+00
1.00150457e+00
1.00171015e+00
1.00190354e+00
1.00208305e+00
1.00224756e+00
1.00239652e+00
1.00252994e+00
1.00264842e+00
1.00275293e+00
1.00284475e+00
1.00292533e+00
1.00299615e+00
1.00305860e+00
1.00311403e+00
1.00316352e+00
1.00320815e+00
1.00324863e+00
1.00328581e+00
1.00332008e+00
1.00335209e+00
1.00338232e+00
1.00341028e+00
1.00343920e+00
1.00346224e+00
1.00348416e+00
1.00353013e+00
9.96309370e-01
9.96358314e-01
9.96385824e-01
9.96410131e-01
9.96440883e-01
9.96469620e-01
9.96500122e-01
9.96531586e-01
9.96564590e-01
9.96599594e-01
9.96636915e-01
9.96677213e-01
9.96721054e-01
9.96769303e-01
9.96822903e-01
9.96883055e-01
9.96951131e-01
9.97028718e-01
9.97117552e-01
9.97219481e-01
9.97336378e-01
9.97470050e-01
9.97622136e-01
9.97793997e-01
9.97986605e-01
9.98200433e-01
9.98435343e-01
9.98690480e-01
9.98964186e-01
9.99253949e-01
9.99556407e-01
9.99867434e-01
1.00018231e+00
1.00049596e+00
1.00080328e+00
1.00109946e+00
1.00138026e+00
1.00164228e+00
1.00188311e+00
1.00210135e+00
1.00229660e+00
1.00246935e+00
1.00262078e+00
1.00275262e+00
1.00286691e+00
1.00296587e+00
1.00305171e+00
1.00312654e+00
1.00319226e+00
1.00325055e+00
1.00330280e+00
1.00335019e+00
1.00339362e+00
1.00343390e+00
1.00347155e+00
1.00350718e+00
1.00354110e+00
1.00357374e+00
1.00360579e+00
1.00363618e+00
1.00366957e+00
1.00369557e+00
1.00372769e+00
1.00378213e+00
9.96121976e-01
9.96171356e-01
9.96203776e-01
9.96228248e-01
9.96259505e-01
9.96288098e-01
9.96318077e-01
9.96348376e-01
9.96379762e-01
9.96412433e-01
9.96446692e-01
9.96482947e-01
9.96521580e-01
9.96563165e-01
9.96608372e-01
9.96658126e-01
9.96713598e-01
9.96776317e-01
9.96848199e-01
9.96931611e-01
9.97029376e-01
9.97144753e-01
9.97281337e-01
9.97442872e-01
9.97632958e-01
9.97854653e-01
9.98109992e-01
9.98399493e-01
9.98721716e-01
9.99072985e-01
9.99447357e-01
9.99836883e-01
1.00023218e+00
1.00062324e+00
1.00100032e+00
1.00135488e+00
1.00168025e+00
1.00197210e+00
1.00222851e+00
1.00244979e+00
1.00263802e+00
1.00279656e+00
1.00292940e+00
1.00304075e+00
1.00313459e+00
1.00321450e+00
1.00328349e+00
1.00334400e+00
1.00339793e+00
1.00344673e+00
1.00349147e+00
1.00353297e+00
1.00357178e+00
1.00360840e+00
1.00364313e+00
1.00367634e+00
1.00370830e+00
1.00373918e+00
1.00376977e+00
1.00379892e+00
1.00383101e+00
1.00385559e+00
1.00389018e+00
1.00394024e+00
9.96012215e-01
9.96052507e-01
9.96083340e-01
9.96104661e-01
9.96131853e-01
9.96157360e-01
9.96184133e-01
9.96211214e-01
9.96239480e-01
9.96268844e-01
9.96299671e-01
9.96332127e-01
9.96366473e-01
9.96403012e-01
9.96442137e-01
9.96484430e-01
9.96530728e-01
9.96582284e-01
9.96640901e-01
9.96709121e-01
9.96790356e-01
9.96888983e-01
9.97010283e-01
9.97160208e-01
9.97344908e-01
9.97570032e-01
9.97839850e-01
9.98156333e-01
9.98518341e-01
9.98921121e-01
9.99356254e-01
9.99812149e-01
1.00027504e+00
1.00073036e+00
1.00116428e+00
1.00156507e+00
1.00192424e+00
1.00223701e+00
1.00250235e+00
1.00272246e+00
1.00290192e+00
1.00304675e+00
1.00316343e+00
1.00325815e+00
1.00333636e+00
1.00340245e+00
1.00345978e+00
1.00351076e+00
1.00355702e+00
1.00359965e+00
1.00363935e+00
1.00367657e+00
1.00371161e+00
1.00374470e+00
1.00377606e+00
1.00380581e+00
1.00383431e+00
1.00386142e+00
1.00388798e+00
1.00391310e+00
1.00393939e+00
1.00395970e+00
1.00399002e+00
1.00402668e+00
9.95954710e-01
9.95980694e-01
9.96005217e-01
9.96021646e-01
9.96042046e-01
9.96062758e-01
9.96084745e-01
9.96107395e-01
9.96131591e-01
9.96156985e-01
9.96184031e-01
9.96212713e-01
9.96243260e-01
9.96275816e-01
9.96310624e-01
9.96348051e-01
9.96388710e-01
9.96433641e-01
9.96484534e-01
9.96544002e-01
9.96615822e-01
9.96705109e-01
9.96818286e-01
9.96962791e-01
9.97146452e-01
9.97376545e-01
9.97658635e-01
9.97995368e-01
9.98385470e-01
9.98823172e-01
9.99298238e-01
9.99796685e-01
1.00030210e+00
1.00079734e+00
1.00126640e+00
1.00169601e+00
1.00207685e+00
1.00240405e+00
1.00267716e+00
1.00289940e+00
1.00307670e+00
1.00321647e+00
1.00332649e+00
1.00341400e+00
1.00348518e+00
1.00354487e+00
1.00359657e+00
1.00364267e+00
1.00368466e+00
1.00372345e+00
1.00375955e+00
1.00379328e+00
1.00382484e+00
1.00385433e+00
1.00388199e+00
1.00390773e+00
1.00393203e+00
1.00395443e+00
1.00397579e+00
1.00399564e+00
1.00401405e+00
1.00402904e+00
1.00405109e+00
1.00407111e+00
9.95921820e-01
9.95933178e-01
9.95949337e-01
9.95960711e-01
9.95973876e-01
9.95989513e-01
9.96006493e-01
9.96024635e-01
9.96044685e-01
9.96066132e-01
9.96089460e-01
9.96114544e-01
9.96141627e-01
9.96170817e-01
9.96202371e-01
9.96236676e-01
9.96274407e-01
9.96316725e-01
9.96365526e-01
9.96423743e-01
9.96495589e-01
9.96586688e-01
9.96703973e-01
9.96855269e-01
9.97048532e-01
9.97290803e-01
9.97587019e-01
9.97938881e-01
9.98344028e-01
9.98795710e-01
9.99283058e-01
9.99791952e-01
1.00030635e+00
1.00080987e+00
1.00128736e+00
1.00172627e+00
1.00211760e+00
1.00245636e+00
1.00274155e+00
1.00297562e+00
1.00316367e+00
1.00331245e+00
1.00342936e+00
1.00352156e+00
1.00359540e+00
1.00365602e+00
1.00370731e+00
1.00375200e+00
1.00379191e+00
1.00382816e+00
1.00386143e+00
1.00389212e+00
1.00392048e+00
1.00394662e+00
1.00397078e+00
1.00399277e+00
1.00401309e+00
1.00403109e+00
1.00404752e+00
1.00406232e+00
1.00407337e+00
1.00408342e+00
1.00409634e+00
1.00410181e+00
9.95890752e-01
9.95891026e-01
9.95899381e-01
9.95906691e-01
9.95914061e-01
9.95925456e-01
9.95938290e-01
9.95952771e-01
9.95969357e-01
9.95987553e-01
9.96007758e-01
9.96029819e-01
9.96053987e-01
9.96080418e-01
9.96109520e-01
9.96141930e-01
9.96178735e-01
9.96221668e-01
9.96273359e-01
9.96337548e-01
9.96419192e-01
9.96524375e-01
9.96659939e-01
9.96832842e-01
9.97049280e-01
9.97313730e-01
9.97628084e-01
9.97991087e-01
9.98398175e-01
9.98841760e-01
9.99311877e-01
9.99797048e-01
1.00028518e+00
1.00076439e+00
1.00122367e+00
1.00165348e+00
1.00204610e+00
1.00239604e+00
1.00270025e+00
1.00295820e+00
1.00317174e+00
1.00334475e+00
1.00348253e+00
1.00359112e+00
1.00367663e+00
1.00374462e+00
1.00379979e+00
1.00384578e+00
1.00388525e+00
1.00392000e+00
1.00395118e+00
1.00397948e+00
1.00400531e+00
1.00402882e+00
1.00405023e+00
1.00406937e+00
1.00408659e+00
1.00410134e+00
1.00411404e+00
1.00412498e+00
1.00413091e+00
1.00413733e+00
1.00414285e+00
1.00413907e+00
9.95847865e-01
9.95842433e-01
9.95845371e-01
9.95850159e-01
9.95854141e-01
9.95862679e-01
9.95872760e-01
9.95884845e-01
9.95899018e-01
9.95914995e-01
9.95932996e-01
9.95952925e-01
9.95975038e-01
9.95999605e-01
9.96027291e-01
9.96059181e-01
9.96097087e-01
9.96143740e-01
9.96203005e-01
9.96279902e-01
9.96380420e-01
9.96511010e-01
9.96677805e-01
9.96885645e-01
9.97137165e-01
9.97432145e-01
9.97767363e-01
9.98137028e-01
9.98533697e-01
9.98949403e-01
9.99376686e-01
9.99809199e-01
1.00024177e+00
1.00066995e+00
1.00108936e+00
1.00149504e+00
1.00188123e+00
1.00224158e+00
1.00256989e+00
1.00286100e+00
1.00311172e+00
1.00332131e+00
1.00349162e+00
1.00362667e+00
1.00373189e+00
1.00381330e+00
1.00387665e+00
1.00392691e+00
1.00396800e+00
1.00400274e+00
1.00403300e+00
1.00405991e+00
1.00408415e+00
1.00410598e+00
1.00412562e+00
1.00414297e+00
1.00415821e+00
1.00417107e+00
1.00418155e+00
1.00419017e+00
1.00419377e+00
1.00419820e+00
1.00419943e+00
1.00419242e+00
9.95789262e-01
9.95783203e-01
9.95783743e-01
9.95787490e-01
9.95790468e-01
9.95797551e-01
9.95806291e-01
9.95817188e-01
9.95829993e-01
9.95844743e-01
9.95861472e-01
9.95880220e-01
9.95901299e-01
9.95925193e-01
9.95952957e-01
9.95986327e-01
9.96028110e-01
9.96082346e-01
9.96154421e-01
9.96250805e-01
9.96378438e-01
9.96543702e-01
9.96751175e-01
9.97002407e-01
9.97295114e-01
9.97623125e-01
9.97977228e-01
9.98346805e-01
9.98721890e-01
9.99095069e-01
9.99462663e-01
9.99824835e-01
1.00018459e+00
1.00054596e+00
1.00091193e+00
1.00128274e+00
1.00165494e+00
1.00202156e+00
1.00237326e+00
1.00270002e+00
1.00299301e+00
1.00324619e+00
1.00345703e+00
1.00362668e+00
1.00375920e+00
1.00386055e+00
1.00393737e+00
1.00399597e+00
1.00404170e+00
1.00407861e+00
1.00410956e+00
1.00413631e+00
1.00415995e+00
1.00418098e+00
1.00419970e+00
1.00421619e+00
1.00423042e+00
1.00424254e+00
1.00425218e+00
1.00425984e+00
1.00426341e+00
1.00426726e+00
1.00426738e+00
1.00426179e+00
9.95718293e-01
9.95714858e-01
9.95715510e-01
9.95719218e-01
9.95722838e-01
9.95729540e-01
9.95738015e-01
9.95748604e-01
9.95760871e-01
9.95775150e-01
9.95791368e-01
9.95809770e-01
9.95830834e-01
9.95855430e-01
9.95885218e-01
9.95922846e-01
9.95972363e-01
9.96039299e-01
9.96130540e-01
9.96253684e-01
9.96415942e-01
9.96622617e-01
9.96875544e-01
9.97171898e-01
9.97503842e-01
9.97859304e-01
9.98223906e-01
9.98583639e-01
9.98927647e-01
9.99250399e-01
9.99552618e-01
9.99840717e-01
1.00012489e+00
1.00041633e+00
1.00072427e+00
1.00105362e+00
1.00140357e+00
1.00176757e+00
1.00213457e+00
1.00249111e+00
1.00282374e+00
1.00312137e+00
1.00337675e+00
1.00358722e+00
1.00375435e+00
1.00388298e+00
1.00397984e+00
1.00405214e+00
1.00410654e+00
1.00414849e+00
1.00418207e+00
1.00420997e+00
1.00423394e+00
1.00425490e+00
1.00427337e+00
1.00428965e+00
1.00430362e+00
1.00431575e+00
1.00432548e+00
1.00433311e+00
1.00433789e+00
1.00434201e+00
1.00434319e+00
1.00434125e+00
9.95641634e-01
9.95641759e-01
9.95643839e-01
9.95647925e-01
9.95652839e-01
9.95659760e-01
9.95668563e-01
9.95679310e-01
9.95691584e-01
9.95705885e-01
9.95722160e-01
9.95740930e-01
9.95762995e-01
9.95789845e-01
9.95824033e-01
9.95869446e-01
9.95931601e-01
9.96017529e-01
9.96135263e-01
9.96292696e-01
9.96496009e-01
9.96747885e-01
9.97045994e-01
9.97382316e-01
9.97743671e-01
9.98113525e-01
9.98474784e-01
9.98812943e-01
9.99118807e-01
9.99390124e-01
9.99631801e-01
9.99854682e-01
1.00007322e+00
1.00030254e+00
1.00055558e+00
1.00084059e+00
1.00115968e+00
1.00150843e+00
1.00187664e+00
1.00225007e+00
1.00261287e+00
1.00295011e+00
1.00324995e+00
1.00350511e+00
1.00371331e+00
1.00387677e+00
1.00400103e+00
1.00409334e+00
1.00416134e+00
1.00421186e+00
1.00425042e+00
1.00428099e+00
1.00430626e+00
1.00432783e+00
1.00434656e+00
1.00436305e+00
1.00437722e+00
1.00438967e+00
1.00439993e+00
1.00440796e+00
1.00441414e+00
1.00441875e+00
1.00442175e+00
1.00442336e+00
9.95565666e-01
9.95568460e-01
9.95572064e-01
9.95576517e-01
9.95582543e-01
9.95589839e-01
9.95599091e-01
9.95610107e-01
9.95622649e-01
9.95637254e-01
9.95654041e-01
9.95673877e-01
9.95698091e-01
9.95729068e-01
9.95770566e-01
9.95828014e-01
9.95908528e-01
9.96020419e-01
9.96172141e-01
9.96370620e-01
9.96619323e-01
9.96916559e-01
9.97254581e-01
9.97619942e-01
9.97995267e-01
9.98362076e-01
9.98703974e-01
9.99009426e-01
9.99273468e-01
9.99498084e-01
9.99691358e-01
9.99865814e-01
1.00003635e+00
1.00021814e+00
1.00042462e+00
1.00066579e+00
1.00094679e+00
1.00126699e+00
1.00161982e+00
1.00199341e+00
1.00237227e+00
1.00273952e+00
1.00307948e+00
1.00337991e+00
1.00363351e+00
1.00383836e+00
1.00399725e+00
1.00411639e+00
1.00420363e+00
1.00426699e+00
1.00431352e+00
1.00434873e+00
1.00437652e+00
1.00439943e+00
1.00441889e+00
1.00443583e+00
1.00445042e+00
1.00446318e+00
1.00447394e+00
1.00448238e+00
1.00448948e+00
1.00449444e+00
1.00449883e+00
1.00450245e+00
9.95494258e-01
9.95497999e-01
9.95502444e-01
9.95507050e-01
9.95513572e-01
9.95521100e-01
9.95530621e-01
9.95541808e-01
9.95554687e-01
9.95569765e-01
9.95587518e-01
9.95609259e-01
9.95637090e-01
9.95674588e-01
9.95727002e-01
9.95801460e-01
9.95906571e-01
9.96051369e-01
9.96243617e-01
9.96487709e-01
9.96782682e-01
9.97121052e-01
9.97489098e-01
9.97868680e-01
9.98240292e-01
9.98586561e-01
9.98895159e-01
9.99160365e-01
9.99383062e-01
9.99569486e-01
9.99729364e-01
9.99874170e-01
1.00001592e+00
1.00016653e+00
1.00033730e+00
1.00053836e+00
1.00077753e+00
1.00105890e+00
1.00138146e+00
1.00173835e+00
1.00211711e+00
1.00250122e+00
1.00287265e+00
1.00321467e+00
1.00351454e+00
1.00376499e+00
1.00396470e+00
1.00411737e+00
1.00423008e+00
1.00431138e+00
1.00436968e+00
1.00441212e+00
1.00444406e+00
1.00446927e+00
1.00448996e+00
1.00450754e+00
1.00452259e+00
1.00453554e+00
1.00454653e+00
1.00455518e+00
1.00456248e+00
1.00456751e+00
1.00457234e+00
1.00457607e+00
9.95428197e-01
9.95431290e-01
9.95435670e-01
9.95440175e-01
9.95446554e-01
9.95454079e-01
9.95463614e-01
9.95474858e-01
9.95488109e-01
9.95503882e-01
9.95523186e-01
9.95547975e-01
9.95581402e-01
9.95628496e-01
9.95696210e-01
9.95793302e-01
9.95929375e-01
9.96113208e-01
9.96350430e-01
9.96641230e-01
9.96978836e-01
9.97349420e-01
9.97733886e-01
9.98111258e-01
9.98462669e-01
9.98774797e-01
9.99041744e-01
9.99264864e-01
9.99450880e-01
9.99609199e-01
9.99749497e-01
9.99880324e-01
1.00000902e+00
1.00014256e+00
1.00028864e+00
1.00045619e+00
1.00065472e+00
1.00089268e+00
1.00117510e+00
1.00150143e+00
1.00186434e+00
1.00225009e+00
1.00264048e+00
1.00301586e+00
1.00335852e+00
1.00365552e+00
1.00390024e+00
1.00409243e+00
1.00423699e+00
1.00434205e+00
1.00441676e+00
1.00446977e+00
1.00450807e+00
1.00453686e+00
1.00455947e+00
1.00457798e+00
1.00459354e+00
1.00460661e+00
1.00461761e+00
1.00462623e+00
1.00463318e+00
1.00463801e+00
1.00464235e+00
1.00464480e+00
9.95365938e-01
9.95367463e-01
9.95371078e-01
9.95375284e-01
9.95381119e-01
9.95388478e-01
9.95397893e-01
9.95409207e-01
9.95422970e-01
9.95439881e-01
9.95461625e-01
9.95491058e-01
9.95532707e-01
9.95593241e-01
9.95681340e-01
9.95807035e-01
9.95980021e-01
9.96207389e-01
9.96490992e-01
9.96825376e-01
9.97197260e-01
9.97587047e-01
9.97972207e-01
9.98331741e-01
9.98650374e-01
9.98921052e-01
9.99145107e-01
9.99330296e-01
9.99487516e-01
9.99627448e-01
9.99758265e-01
9.99884966e-01
1.00001025e+00
1.00013642e+00
1.00026737e+00
1.00040998e+00
1.00057395e+00
1.00077043e+00
1.00100931e+00
1.00129620e+00
1.00163003e+00
1.00200200e+00
1.00239634e+00
1.00279287e+00
1.00317054e+00
1.00351121e+00
1.00380237e+00
1.00403853e+00
1.00422094e+00
1.00435586e+00
1.00445231e+00
1.00451999e+00
1.00456751e+00
1.00460168e+00
1.00462725e+00
1.00464725e+00
1.00466354e+00
1.00467684e+00
1.00468778e+00
1.00469625e+00
1.00470260e+00
1.00470709e+00
1.00471039e+00
1.00471099e+00
9.95304968e-01
9.95304778e-01
9.95307324e-01
9.95311140e-01
9.95316349e-01
9.95323505e-01
9.95332843e-01
9.95344428e-01
9.95359036e-01
9.95377838e-01
9.95403360e-01
9.95439618e-01
9.95492804e-01
9.95571348e-01
9.95685385e-01
9.95845474e-01
9.96060161e-01
9.96333166e-01
9.96660936e-01
9.97031492e-01
9.97425368e-01
9.97818928e-01
9.98189130e-01
9.98518223e-01
9.98797009e-01
9.99025658e-01
9.99211933e-01
9.99367770e-01
9.99505531e-01
9.99635040e-01
9.99762096e-01
9.99888646e-01
1.00001422e+00
1.00013804e+00
1.00026113e+00
1.00038790e+00
1.00052667e+00
1.00068887e+00
1.00088692e+00
1.00113119e+00
1.00142685e+00
1.00177147e+00
1.00215424e+00
1.00255726e+00
1.00295858e+00
1.00333616e+00
1.00367186e+00
1.00395418e+00
1.00417920e+00
1.00434982e+00
1.00447373e+00
1.00456089e+00
1.00462120e+00
1.00466318e+00
1.00469324e+00
1.00471562e+00
1.00473308e+00
1.00474691e+00
1.00475791e+00
1.00476625e+00
1.00477206e+00
1.00477616e+00
1.00477835e+00
1.00477730e+00
9.95243041e-01
9.95241556e-01
9.95243108e-01
9.95246533e-01
9.95251298e-01
9.95258331e-01
9.95267758e-01
9.95279971e-01
9.95296014e-01
9.95317790e-01
9.95348911e-01
9.95394843e-01
9.95463548e-01
9.95565150e-01
9.95710729e-01
9.95910193e-01
9.96169382e-01
9.96487054e-01
9.96853043e-01
9.97248743e-01
9.97649974e-01
9.98031786e-01
9.98373874e-01
9.98664598e-01
9.98902299e-01
9.99093889e-01
9.99251461e-01
9.99388237e-01
9.99515307e-01
9.99639939e-01
9.99765373e-01
9.99891688e-01
1.00001725e+00
1.00014025e+00
1.00026018e+00
1.00037915e+00
1.00050286e+00
1.00064075e+00
1.00080513e+00
1.00100890e+00
1.00126237e+00
1.00156986e+00
1.00192730e+00
1.00232172e+00
1.00273297e+00
1.00313734e+00
1.00351216e+00
1.00383980e+00
1.00411021e+00
1.00432149e+00
1.00447853e+00
1.00459041e+00
1.00466778e+00
1.00472069e+00
1.00475728e+00
1.00478331e+00
1.00480265e+00
1.00481742e+00
1.00482872e+00
1.00483708e+00
1.00484262e+00
1.00484637e+00
1.00484769e+00
1.00484561e+00
9.95178879e-01
9.95176726e-01
9.95177591e-01
9.95180682e-01
9.95185284e-01
9.95192376e-01
9.95202159e-01
9.95215461e-01
9.95233799e-01
9.95260009e-01
9.95299008e-01
9.95358033e-01
9.95446786e-01
9.95576634e-01
9.95758767e-01
9.96001074e-01
9.96304946e-01
9.96662855e-01
9.97057717e-01
9.97465240e-01
9.97858878e-01
9.98215639e-01
9.98520911e-01
9.98770821e-01
9.98971225e-01
9.99134096e-01
9.99273133e-01
9.99400149e-01
9.99523103e-01
9.99645976e-01
9.99769853e-01
9.99894226e-01
1.00001795e+00
1.00013982e+00
1.00025902e+00
1.00037591e+00
1.00049313e+00
1.00061676e+00
1.00075682e+00
1.00092634e+00
1.00113877e+00
1.00140436e+00
1.00172636e+00
1.00209859e+00
1.00250535e+00
1.00292397e+00
1.00332917e+00
1.00369798e+00
1.00401397e+00
1.00426931e+00
1.00446451e+00
1.00460647e+00
1.00470569e+00
1.00477321e+00
1.00481888e+00
1.00485022e+00
1.00487245e+00
1.00488870e+00
1.00490066e+00
1.00490928e+00
1.00491484e+00
1.00491834e+00
1.00491915e+00
1.00491667e+00
9.95112246e-01
9.95109898e-01