# vtk DataFile Version 2.0
LBM Flow Field - Timestep 450
ASCII
DATASET STRUCTURED_POINTS
DIMENSIONS 64 64 1
ORIGIN 0.0 0.0 0.0
SPACING 1.0 1.0 1.0
POINT_DATA 4096
SCALARS density double 1
LOOKUP_TABLE default
1.00031593e+00
1.00027358e+00
1.00020765e+00
1.00013437e+00
1.00003997e+00
9.99928779e-01
9.99808149e-01
9.99682315e-01
9.99555138e-01
9.99431403e-01
9.99315406e-01
9.99210434e-01
9.99119049e-01
9.99043178e-01
9.98983958e-01
9.98941792e-01
9.98916582e-01
9.98907860e-01
9.98914866e-01
9.98936665e-01
9.98972258e-01
9.99020594e-01
9.99080579e-01
9.99151083e-01
9.99230942e-01
9.99318948e-01
9.99413864e-01
9.99514448e-01
9.99619486e-01
9.99727820e-01
9.99838387e-01
9.99950236e-01
1.00006255e+00
1.00017464e+00
1.00028595e+00
1.00039598e+00
1.00050429e+00
1.00061043e+00
1.00071383e+00
1.00081373e+00
1.00090910e+00
1.00099858e+00
1.00108040e+00
1.00115239e+00
1.00121201e+00
1.00125653e+00
1.00128317e+00
1.00128934e+00
1.00127297e+00
1.00123283e+00
1.00116869e+00
1.00108154e+00
1.00097371e+00
1.00084883e+00
1.00071135e+00
1.00056642e+00
1.00042002e+00
1.00027808e+00
1.00014503e+00
1.00002528e+00
9.99925456e-01
9.99848691e-01
9.99783689e-01
9.99743772e-01
1.00028225e+00
1.00025266e+00
1.00019366e+00
1.00012025e+00
1.00002825e+00
9.99921457e-01
9.99804497e-01
9.99682233e-01
9.99559054e-01
9.99439246e-01
9.99326752e-01
9.99224878e-01
9.99136159e-01
9.99062404e-01
9.99004733e-01
9.98963619e-01
9.98939014e-01
9.98930496e-01
9.98937371e-01
9.98958763e-01
9.98993696e-01
9.99041133e-01
9.99099992e-01
9.99169153e-01
9.99247462e-01
9.99333736e-01
9.99426777e-01
9.99525387e-01
9.99628399e-01
9.99734703e-01
9.99843274e-01
9.99953190e-01
1.00006364e+00
1.00017394e+00
1.00028350e+00
1.00039179e+00
1.00049834e+00
1.00060264e+00
1.00070406e+00
1.00080183e+00
1.00089491e+00
1.00098194e+00
1.00106121e+00
1.00113066e+00
1.00118792e+00
1.00123042e+00
1.00125559e+00
1.00126105e+00
1.00124490e+00
1.00120600e+00
1.00114412e+00
1.00106020e+00
1.00095639e+00
1.00083597e+00
1.00070317e+00
1.00056301e+00
1.00042099e+00
1.00028254e+00
1.00015267e+00
1.00003637e+00
9.99938092e-01
9.99860812e-01
9.99801321e-01
9.99771833e-01
1.00025103e+00
1.00022976e+00
1.00018712e+00
1.00011313e+00
1.00002182e+00
9.99919202e-01
9.99806279e-01
9.99687545e-01
9.99568223e-01
9.99452410e-01
9.99343625e-01
9.99245101e-01
9.99159378e-01
9.99088140e-01
9.99032420e-01
9.98992722e-01
9.98969036e-01
9.98960944e-01
9.98967787e-01
9.98988747e-01
9.99022875e-01
9.99069152e-01
9.99126526e-01
9.99193907e-01
9.99270170e-01
9.99354176e-01
9.99444775e-01
9.99540824e-01
9.99641211e-01
9.99744871e-01
9.99850816e-01
9.99958142e-01
1.00006605e+00
1.00017383e+00
1.00028086e+00
1.00038661e+00
1.00049053e+00
1.00059208e+00
1.00069062e+00
1.00078536e+00
1.00087527e+00
1.00095905e+00
1.00103509e+00
1.00110146e+00
1.00115595e+00
1.00119620e+00
1.00121981e+00
1.00122460e+00
1.00120881e+00
1.00117130e+00
1.00111184e+00
1.00103130e+00
1.00093156e+00
1.00081557e+00
1.00068744e+00
1.00055200e+00
1.00041415e+00
1.00027911e+00
1.00015287e+00
1.00004006e+00
9.99941858e-01
9.99863758e-01
9.99817767e-01
9.99795381e-01
1.00024533e+00
1.00022419e+00
1.00017758e+00
1.00010793e+00
1.00002275e+00
9.99923281e-01
9.99813949e-01
9.99699867e-01
9.99585061e-01
9.99473442e-01
9.99368706e-01
9.99273880e-01
9.99191286e-01
9.99122610e-01
9.99068887e-01
9.99030574e-01
9.99007671e-01
9.98999820e-01
9.99006398e-01
9.99026604e-01
9.99059527e-01
9.99104189e-01
9.99159567e-01
9.99224607e-01
9.99298243e-01
9.99379391e-01
9.99466967e-01
9.99559892e-01
9.99657113e-01
9.99757613e-01
9.99860433e-01
9.99964683e-01
1.00006955e+00
1.00017431e+00
1.00027831e+00
1.00038095e+00
1.00048164e+00
1.00057981e+00
1.00067477e+00
1.00076572e+00
1.00085168e+00
1.00093139e+00
1.00100334e+00
1.00106575e+00
1.00111660e+00
1.00115373e+00
1.00117497e+00
1.00117834e+00
1.00116220e+00
1.00112557e+00
1.00106819e+00
1.00099080e+00
1.00089515e+00
1.00078402e+00
1.00066107e+00
1.00053074e+00
1.00039805e+00
1.00026798e+00
1.00014531e+00
1.00003529e+00
9.99942270e-01
9.99867853e-01
9.99818325e-01
9.99795726e-01
1.00024202e+00
1.00021894e+00
1.00017293e+00
1.00010955e+00
1.00002813e+00
9.99931896e-01
9.99827584e-01
9.99718857e-01
9.99609050e-01
9.99502286e-01
9.99402208e-01
9.99311561e-01
9.99232499e-01
9.99166677e-01
9.99115113e-01
9.99078239e-01
9.99056073e-01
9.99048315e-01
9.99054386e-01
9.99073520e-01
9.99104849e-01
9.99147434e-01
9.99200289e-01
9.99262408e-01
9.99332780e-01
9.99410389e-01
9.99494226e-01
9.99583289e-01
9.99676594e-01
9.99773186e-01
9.99872143e-01
9.99972593e-01
1.00007372e+00
1.00017477e+00
1.00027505e+00
1.00037389e+00
1.00047067e+00
1.00056473e+00
1.00065536e+00
1.00074174e+00
1.00082289e+00
1.00089763e+00
1.00096457e+00
1.00102209e+00
1.00106837e+00
1.00110151e+00
1.00111962e+00
1.00112093e+00
1.00110403e+00
1.00106805e+00
1.00101278e+00
1.00093879e+00
1.00084768e+00
1.00074199e+00
1.00062498e+00
1.00050061e+00
1.00037374e+00
1.00024944e+00
1.00013174e+00
1.00002481e+00
9.99935205e-01
9.99865997e-01
9.99816629e-01
9.99792265e-01
1.00024087e+00
1.00021954e+00
1.00017687e+00
1.00011541e+00
1.00003690e+00
9.99946562e-01
9.99847920e-01
9.99744239e-01
9.99639942e-01
9.99538785e-01
9.99443762e-01
9.99357576e-01
9.99282403e-01
9.99219728e-01
9.99170477e-01
9.99135131e-01
9.99113741e-01
9.99106015e-01
9.99111416e-01
9.99129239e-01
9.99158653e-01
9.99198750e-01
9.99248593e-01
9.99307233e-01
9.99373721e-01
9.99447117e-01
9.99526496e-01
9.99610942e-01
9.99699554e-01
9.99791440e-01
9.99885732e-01
9.99981581e-01
1.00007818e+00
1.00017474e+00
1.00027052e+00
1.00036482e+00
1.00045694e+00
1.00054617e+00
1.00063174e+00
1.00071283e+00
1.00078847e+00
1.00085755e+00
1.00091878e+00
1.00097074e+00
1.00101184e+00
1.00104043e+00
1.00105488e+00
1.00105373e+00
1.00103577e+00
1.00100022e+00
1.00094693e+00
1.00087645e+00
1.00079011e+00
1.00069006e+00
1.00057940e+00
1.00046183e+00
1.00034137e+00
1.00022267e+00
1.00011077e+00
1.00000950e+00
9.99922575e-01
9.99854949e-01
9.99808461e-01
9.99785585e-01
1.00024432e+00
1.00022440e+00
1.00018458e+00
1.00012588e+00
1.00005220e+00
9.99967399e-01
9.99874014e-01
9.99776243e-01
9.99678143e-01
9.99582805e-01
9.99493142e-01
9.99411796e-01
9.99340749e-01
9.99281362e-01
9.99234536e-01
9.99200759e-01
9.99180098e-01
9.99172294e-01
9.99176862e-01
9.99193141e-01
9.99220335e-01
9.99257577e-01
9.99303976e-01
9.99358633e-01
9.99420662e-01
9.99489206e-01
9.99563427e-01
9.99642504e-01
9.99725627e-01
9.99811987e-01
9.99900779e-01
9.99991198e-01
1.00008244e+00
1.00017373e+00
1.00026429e+00
1.00035335e+00
1.00044015e+00
1.00052393e+00
1.00060387e+00
1.00067911e+00
1.00074869e+00
1.00081157e+00
1.00086657e+00
1.00091244e+00
1.00094783e+00
1.00097137e+00
1.00098171e+00
1.00097768e+00
1.00095830e+00
1.00092296e+00
1.00087152e+00
1.00080450e+00
1.00072303e+00
1.00062894e+00
1.00052489e+00
1.00041432e+00
1.00030098e+00
1.00018877e+00
1.00008242e+00
9.99986556e-01
9.99904030e-01
9.99838844e-01
9.99794894e-01
9.99773258e-01
1.00025328e+00
1.00023471e+00
1.00019700e+00
1.00014239e+00
1.00007374e+00
9.99993858e-01
9.99906459e-01
9.99815358e-01
9.99723537e-01
9.99634161e-01
9.99550222e-01
9.99473969e-01
9.99407138e-01
9.99351104e-01
9.99306760e-01
9.99274531e-01
9.99254505e-01
9.99246495e-01
9.99250056e-01
9.99264553e-01
9.99289235e-01
9.99323279e-01
9.99365827e-01
9.99416029e-01
9.99473065e-01
9.99536156e-01
9.99604556e-01
9.99677543e-01
9.99754410e-01
9.99834445e-01
9.99916921e-01
1.00000109e+00
1.00008620e+00
1.00017145e+00
1.00025606e+00
1.00033922e+00
1.00042011e+00
1.00049790e+00
1.00057172e+00
1.00064066e+00
1.00070378e+00
1.00076007e+00
1.00080847e+00
1.00084788e+00
1.00087718e+00
1.00089529e+00
1.00090116e+00
1.00089389e+00
1.00087276e+00
1.00083735e+00
1.00078759e+00
1.00072385e+00
1.00064714e+00
1.00055911e+00
1.00046193e+00
1.00035843e+00
1.00025227e+00
1.00014732e+00
1.00004719e+00
9.99956195e-01
9.99878418e-01
9.99816995e-01
9.99774869e-01
9.99754409e-01
1.00026709e+00
1.00025012e+00
1.00021531e+00
1.00016485e+00
1.00010097e+00
1.00002679e+00
9.99945900e-01
9.99861296e-01
9.99775948e-01
9.99692971e-01
9.99614897e-01
9.99543753e-01
9.99481232e-01
9.99428606e-01
9.99386685e-01
9.99355908e-01
9.99336407e-01
9.99328027e-01
9.99330363e-01
9.99342829e-01
9.99364713e-01
9.99395223e-01
9.99433535e-01
9.99478845e-01
9.99530394e-01
9.99587473e-01
9.99649430e-01
9.99715649e-01
9.99785531e-01
9.99858473e-01
9.99933844e-01
1.00001098e+00
1.00008917e+00
1.00016765e+00
1.00024563e+00
1.00032227e+00
1.00039670e+00
1.00046802e+00
1.00053531e+00
1.00059760e+00
1.00065395e+00
1.00070336e+00
1.00074489e+00
1.00077758e+00
1.00080054e+00
1.00081294e+00
1.00081406e+00
1.00080327e+00
1.00078012e+00
1.00074434e+00
1.00069598e+00
1.00063537e+00
1.00056331e+00
1.00048115e+00
1.00039081e+00
1.00029468e+00
1.00019580e+00
1.00009786e+00
1.00000441e+00
9.99919024e-01
9.99845765e-01
9.99788099e-01
9.99748539e-01
9.99729577e-01
1.00028672e+00
1.00027170e+00
1.00024005e+00
1.00019352e+00
1.00013468e+00
1.00006669e+00
9.99992246e-01
9.99914214e-01
9.99835659e-01
9.99759176e-01
9.99686926e-01
9.99620906e-01
9.99562694e-01
9.99513383e-01
9.99473746e-01
9.99444270e-01
9.99425110e-01
9.99416136e-01
9.99416998e-01
9.99427165e-01
9.99445954e-01
9.99472597e-01
9.99506309e-01
9.99546325e-01
9.99591935e-01
9.99642502e-01
9.99697463e-01
9.99756308e-01
9.99818554e-01
9.99883713e-01
9.99951268e-01
1.00002065e+00
1.00009121e+00
1.00016225e+00
1.00023298e+00
1.00030254e+00
1.00037001e+00
1.00043445e+00
1.00049485e+00
1.00055021e+00
1.00059954e+00
1.00064190e+00
1.00067638e+00
1.00070220e+00
1.00071865e+00
1.00072518e+00
1.00072132e+00
1.00070676e+00
1.00068132e+00
1.00064490e+00
1.00059761e+00
1.00053984e+00
1.00047220e+00
1.00039571e+00
1.00031195e+00
1.00022311e+00
1.00013166e+00
1.00004066e+00
9.99953762e-01
9.99874386e-01
9.99805819e-01
9.99751677e-01
9.99714977e-01
9.99697810e-01
1.00031310e+00
1.00029997e+00
1.00027142e+00
1.00022909e+00
1.00017559e+00
1.00011362e+00
1.00004567e+00
9.99974498e-01
9.99902706e-01
9.99832556e-01
9.99766129e-01
9.99705194e-01
9.99651102e-01
9.99604901e-01
9.99567366e-01
9.99538961e-01
9.99519865e-01
9.99510013e-01
9.99509113e-01
9.99516669e-01
9.99532032e-01
9.99554474e-01
9.99583236e-01
9.99617584e-01
9.99656856e-01
9.99700482e-01
9.99747983e-01
9.99798949e-01
9.99853016e-01
9.99909819e-01
9.99968962e-01
1.00002998e+00
1.00009233e+00
1.00015534e+00
1.00021827e+00
1.00028025e+00
1.00034033e+00
1.00039751e+00
1.00045072e+00
1.00049891e+00
1.00054105e+00
1.00057620e+00
1.00060353e+00
1.00062237e+00
1.00063221e+00
1.00063273e+00
1.00062375e+00
1.00060523e+00
1.00057723e+00
1.00053988e+00
1.00049338e+00
1.00043806e+00
1.00037445e+00
1.00030336e+00
1.00022595e+00
1.00014399e+00
1.00005973e+00
9.99975793e-01
9.99895309e-01
9.99821663e-01
9.99757985e-01
9.99707586e-01
9.99673609e-01
9.99658106e-01
1.00034694e+00
1.00033572e+00
1.00031023e+00
1.00027222e+00
1.00022403e+00
1.00016802e+00
1.00010662e+00
1.00004223e+00
9.99977013e-01
9.99913083e-01
9.99852324e-01
9.99796210e-01
9.99745966e-01
9.99702609e-01
9.99666865e-01
9.99639188e-01
9.99619811e-01
9.99608736e-01
9.99605715e-01
9.99610297e-01
9.99621885e-01
9.99639781e-01
9.99663251e-01
9.99691594e-01
9.99724193e-01
9.99760535e-01
9.99800216e-01
9.99842928e-01
9.99888417e-01
9.99936443e-01
9.99986731e-01
1.00003893e+00
1.00009260e+00
1.00014713e+00
1.00020182e+00
1.00025582e+00
1.00030814e+00
1.00035774e+00
1.00040350e+00
1.00044430e+00
1.00047909e+00
1.00050692e+00
1.00052702e+00
1.00053881e+00
1.00054197e+00
1.00053639e+00
1.00052216e+00
1.00049950e+00
1.00046871e+00
1.00043012e+00
1.00038405e+00
1.00033079e+00
1.00027075e+00
1.00020457e+00
1.00013312e+00
1.00005769e+00
9.99980191e-01
9.99903027e-01
9.99828843e-01
9.99760690e-01
9.99701758e-01
9.99655116e-01
9.99623739e-01
9.99609864e-01
1.00038891e+00
1.00037963e+00
1.00035726e+00
1.00032343e+00
1.00028041e+00
1.00023035e+00
1.00017534e+00
1.00011742e+00
1.00005856e+00
1.00000063e+00
9.99945163e-01
9.99893490e-01
9.99846752e-01
9.99805849e-01
9.99771464e-01
9.99744095e-01
9.99724027e-01
9.99711300e-01
9.99705732e-01
9.99706940e-01
9.99714372e-01
9.99727362e-01
9.99745211e-01
9.99767255e-01
9.99792911e-01
9.99821718e-01
9.99853346e-01
9.99887573e-01
9.99924251e-01
9.99963253e-01
1.00000442e+00
1.00004753e+00
1.00009221e+00
1.00013796e+00
1.00018411e+00
1.00022981e+00
1.00027409e+00
1.00031584e+00
1.00035391e+00
1.00038714e+00
1.00041442e+00
1.00043482e+00
1.00044760e+00
1.00045228e+00
1.00044870e+00
1.00043694e+00
1.00041734e+00
1.00039038e+00
1.00035658e+00
1.00031643e+00
1.00027037e+00
1.00021872e+00
1.00016178e+00
1.00009993e+00
1.00003383e+00
9.99964456e-01
9.99893274e-01
9.99822328e-01
9.99754086e-01
9.99691257e-01
9.99636769e-01
9.99593617e-01
9.99564825e-01
9.99552555e-01
1.00043990e+00
1.00043252e+00
1.00041315e+00
1.00038333e+00
1.00034529e+00
1.00030093e+00
1.00025196e+00
1.00020016e+00
1.00014730e+00
1.00009488e+00
1.00004424e+00
9.99996547e-01
9.99952814e-01
9.99913840e-01
9.99880311e-01
9.99852751e-01
9.99831480e-01
9.99816603e-01
9.99808019e-01
9.99805410e-01
9.99808273e-01
9.99815995e-01
9.99827918e-01
9.99843410e-01
9.99861927e-01
9.99883057e-01
9.99906530e-01
9.99932199e-01
9.99960005e-01
9.99989926e-01
1.00002191e+00
1.00005583e+00
1.00009142e+00
1.00012823e+00
1.00016566e+00
1.00020288e+00
1.00023890e+00
1.00027261e+00
1.00030280e+00
1.00032827e+00
1.00034790e+00
1.00036074e+00
1.00036611e+00
1.00036361e+00
1.00035322e+00
1.00033521e+00
1.00031013e+00
1.00027869e+00
1.00024162e+00
1.00019959e+00
1.00015311e+00
1.00010253e+00
1.00004809e+00
9.99989967e-01
9.99928539e-01
9.99864536e-01
9.99799073e-01
9.99733792e-01
9.99670938e-01
9.99613015e-01
9.99562646e-01
9.99522687e-01
9.99496282e-01
9.99485479e-01
1.00050080e+00
1.00049515e+00
1.00047855e+00
1.00045249e+00
1.00041913e+00
1.00038000e+00
1.00033660e+00
1.00029045e+00
1.00024299e+00
1.00019547e+00
1.00014907e+00
1.00010475e+00
1.00006338e+00
1.00002573e+00
9.99992473e-01
9.99964130e-01
9.99941079e-01
9.99923510e-01
9.99911396e-01
9.99904488e-01
9.99902361e-01
9.99904461e-01
9.99910176e-01
9.99918917e-01
9.99930180e-01
9.99943597e-01
9.99958945e-01
9.99976138e-01
9.99995190e-01
1.00001616e+00
1.00003909e+00
1.00006392e+00
1.00009047e+00
1.00011838e+00
1.00014705e+00
1.00017571e+00
1.00020337e+00
1.00022888e+00
1.00025104e+00
1.00026860e+00
1.00028043e+00
1.00028559e+00
1.00028344e+00
1.00027368e+00
1.00025640e+00
1.00023204e+00
1.00020136e+00
1.00016525e+00
1.00012464e+00
1.00008036e+00
1.00003301e+00
9.99982944e-01
9.99930319e-01
9.99875202e-01
9.99817714e-01
9.99758267e-01
9.99697737e-01
9.99637469e-01
9.99579368e-01
9.99525731e-01
9.99479053e-01
9.99441966e-01
9.99417617e-01
9.99408056e-01
1.00057238e+00
1.00056829e+00
1.00055414e+00
1.00053146e+00
1.00050226e+00
1.00046780e+00
1.00042934e+00
1.00038812e+00
1.00034532e+00
1.00030198e+00
1.00025905e+00
1.00021735e+00
1.00017763e+00
1.00014061e+00
1.00010693e+00
1.00007715e+00
1.00005170e+00
1.00003086e+00
1.00001466e+00
1.00000297e+00
9.99995432e-01
9.99991572e-01
9.99990837e-01
9.99992689e-01
9.99996669e-01
1.00000244e+00
1.00000982e+00
1.00001877e+00
1.00002935e+00
1.00004167e+00
1.00005584e+00
1.00007187e+00
1.00008962e+00
1.00010879e+00
1.00012883e+00
1.00014898e+00
1.00016825e+00
1.00018551e+00
1.00019952e+00
1.00020904e+00
1.00021295e+00
1.00021031e+00
1.00020053e+00
1.00018341e+00
1.00015913e+00
1.00012832e+00
1.00009188e+00
1.00005090e+00
1.00000647e+00
9.99959540e-01
9.99910813e-01
9.99860647e-01
9.99809125e-01
9.99756184e-01
9.99701773e-01
9.99646027e-01
9.99589547e-01
9.99533440e-01
9.99479352e-01
9.99429340e-01
9.99385770e-01
9.99351087e-01
9.99328437e-01
9.99319879e-01
1.00065542e+00
1.00065262e+00
1.00064053e+00
1.00062066e+00
1.00059498e+00
1.00056445e+00
1.00053011e+00
1.00049293e+00
1.00045389e+00
1.00041383e+00
1.00037348e+00
1.00033353e+00
1.00029464e+00
1.00025746e+00
1.00022262e+00
1.00019071e+00
1.00016222e+00
1.00013748e+00
1.00011666e+00
1.00009970e+00
1.00008636e+00
1.00007623e+00
1.00006886e+00
1.00006375e+00
1.00006050e+00
1.00005879e+00
1.00005849e+00
1.00005955e+00
1.00006208e+00
1.00006621e+00
1.00007208e+00
1.00007973e+00
1.00008908e+00
1.00009983e+00
1.00011147e+00
1.00012325e+00
1.00013422e+00
1.00014323e+00
1.00014906e+00
1.00015047e+00
1.00014634e+00
1.00013580e+00
1.00011829e+00
1.00009369e+00
1.00006233e+00
1.00002494e+00
9.99982581e-01
9.99936504e-01
9.99887944e-01
9.99837957e-01
9.99787300e-01
9.99736360e-01
9.99685170e-01
9.99633526e-01
9.99581222e-01
9.99528205e-01
9.99474813e-01
9.99421900e-01
9.99370945e-01
9.99323806e-01
9.99282666e-01
9.99249813e-01
9.99228448e-01
9.99220602e-01
1.00075062e+00
1.00074874e+00
1.00073817e+00
1.00072046e+00
1.00069748e+00
1.00066996e+00
1.00063872e+00
1.00060454e+00
1.00056821e+00
1.00053036e+00
1.00049157e+00
1.00045241e+00
1.00041345e+00
1.00037526e+00
1.00033848e+00
1.00030371e+00
1.00027151e+00
1.00024229e+00
1.00021632e+00
1.00019364e+00
1.00017413e+00
1.00015749e+00
1.00014335e+00
1.00013128e+00
1.00012092e+00
1.00011200e+00
1.00010438e+00
1.00009803e+00
1.00009304e+00
1.00008955e+00
1.00008770e+00
1.00008753e+00
1.00008896e+00
1.00009172e+00
1.00009531e+00
1.00009900e+00
1.00010183e+00
1.00010268e+00
1.00010035e+00
1.00009362e+00
1.00008141e+00
1.00006288e+00
1.00003755e+00
1.00000540e+00
9.99966854e-01
9.99922771e-01
9.99874344e-01
9.99822941e-01
9.99769919e-01
9.99716431e-01
9.99663278e-01
9.99610848e-01
9.99559143e-01
9.99507864e-01
9.99456646e-01
9.99405271e-01
9.99353896e-01
9.99303153e-01
9.99254347e-01
9.99209186e-01
9.99169726e-01
9.99138081e-01
9.99117478e-01
9.99109968e-01
1.00085852e+00
1.00085710e+00
1.00084739e+00
1.00083104e+00
1.00080981e+00
1.00078420e+00
1.00075490e+00
1.00072252e+00
1.00068768e+00
1.00065085e+00
1.00061251e+00
1.00057308e+00
1.00053306e+00
1.00049298e+00
1.00045346e+00
1.00041512e+00
1.00037856e+00
1.00034429e+00
1.00031267e+00
1.00028387e+00
1.00025789e+00
1.00023456e+00
1.00021358e+00
1.00019462e+00
1.00017737e+00
1.00016157e+00
1.00014707e+00
1.00013386e+00
1.00012197e+00
1.00011152e+00
1.00010260e+00
1.00009524e+00
1.00008935e+00
1.00008463e+00
1.00008060e+00
1.00007652e+00
1.00007146e+00
1.00006433e+00
1.00005393e+00
1.00003909e+00
1.00001879e+00
9.99992256e-01
9.99959084e-01
9.99919332e-01
9.99873531e-01
9.99822652e-01
9.99768002e-01
9.99711050e-01
9.99653237e-01
9.99595786e-01
9.99539543e-01
9.99484887e-01
9.99431780e-01
9.99379861e-01
9.99328650e-01
9.99277773e-01
9.99227246e-01
9.99177553e-01
9.99129834e-01
9.99085668e-01
9.99047045e-01
9.99015918e-01
9.98995484e-01
9.98987885e-01
1.00097942e+00
1.00097793e+00
1.00096835e+00
1.00095243e+00
1.00093185e+00
1.00090693e+00
1.00087826e+00
1.00084633e+00
1.00081164e+00
1.00077456e+00
1.00073544e+00
1.00069463e+00
1.00065254e+00
1.00060967e+00
1.00056661e+00
1.00052398e+00
1.00048246e+00
1.00044261e+00
1.00040491e+00
1.00036967e+00
1.00033699e+00
1.00030684e+00
1.00027904e+00
1.00025333e+00
1.00022945e+00
1.00020716e+00
1.00018630e+00
1.00016681e+00
1.00014868e+00
1.00013195e+00
1.00011666e+00
1.00010280e+00
1.00009021e+00
1.00007858e+00
1.00006741e+00
1.00005596e+00
1.00004333e+00
1.00002843e+00
1.00001013e+00
9.99987301e-01
9.99958984e-01
9.99924480e-01
9.99883478e-01
9.99836124e-01
9.99783048e-01
9.99725314e-01
9.99664316e-01
9.99601605e-01
9.99538686e-01
9.99476820e-01
9.99416877e-01
9.99359241e-01
9.99303833e-01
9.99250234e-01
9.99197891e-01
9.99146327e-01
9.99095433e-01
9.99045583e-01
9.98997818e-01
9.98953615e-01
9.98914907e-01
9.98883525e-01
9.98862628e-01
9.98854465e-01
1.00111335e+00
1.00111118e+00
1.00110092e+00
1.00108443e+00
1.00106330e+00
1.00103774e+00
1.00100828e+00
1.00097536e+00
1.00093942e+00
1.00090074e+00
1.00085958e+00
1.00081624e+00
1.00077106e+00
1.00072449e+00
1.00067709e+00
1.00062952e+00
1.00058247e+00
1.00053659e+00
1.00049246e+00
1.00045050e+00
1.00041098e+00
1.00037398e+00
1.00033943e+00
1.00030717e+00
1.00027697e+00
1.00024862e+00
1.00022193e+00
1.00019677e+00
1.00017305e+00
1.00015075e+00
1.00012979e+00
1.00011010e+00
1.00009145e+00
1.00007349e+00
1.00005568e+00
1.00003731e+00
1.00001745e+00
9.99995080e-01
9.99969099e-01
9.99938456e-01
9.99902258e-01
9.99859898e-01
9.99811153e-01
9.99756263e-01
9.99695944e-01
9.99631345e-01
9.99563920e-01
9.99495274e-01
9.99426954e-01
9.99360240e-01
9.99296004e-01
9.99234626e-01
9.99176008e-01
9.99119684e-01
9.99065048e-01
9.99011569e-01
9.98959059e-01
9.98907813e-01
9.98858814e-01
9.98813489e-01
9.98773731e-01
9.98741287e-01
9.98719249e-01
9.98710003e-01
1.00125997e+00
1.00125648e+00
1.00124469e+00
1.00122659e+00
1.00120365e+00
1.00117607e+00
1.00114438e+00
1.00110900e+00
1.00107035e+00
1.00102868e+00
1.00098422e+00
1.00093719e+00
1.00088790e+00
1.00083675e+00
1.00078428e+00
1.00073114e+00
1.00067806e+00
1.00062576e+00
1.00057492e+00
1.00052608e+00
1.00047964e+00
1.00043582e+00
1.00039466e+00
1.00035609e+00
1.00031993e+00
1.00028596e+00
1.00025396e+00
1.00022371e+00
1.00019506e+00
1.00016783e+00
1.00014188e+00
1.00011700e+00
1.00009290e+00
1.00006917e+00
1.00004525e+00
1.00002038e+00
9.99993687e-01
9.99964169e-01
9.99930787e-01
9.99892562e-01
9.99848689e-01
9.99798652e-01
9.99742322e-01
9.99680029e-01
9.99612568e-01
9.99541146e-01
9.99467269e-01
9.99392565e-01
9.99318588e-01
9.99246625e-01
9.99177538e-01
9.99111691e-01
9.99048968e-01
9.98988893e-01
9.98930828e-01
9.98874212e-01
9.98818834e-01
9.98764959e-01
9.98713534e-01
9.98665979e-01
9.98624190e-01
9.98589869e-01
9.98565987e-01
9.98555091e-01
1.00141853e+00
1.00141306e+00
1.00139891e+00
1.00137815e+00
1.00135218e+00
1.00132121e+00
1.00128585e+00
1.00124656e+00
1.00120378e+00
1.00115778e+00
1.00110876e+00
1.00105693e+00
1.00100255e+00
1.00094598e+00
1.00088774e+00
1.00082848e+00
1.00076894e+00
1.00070992e+00
1.00065216e+00
1.00059634e+00
1.00054298e+00
1.00049243e+00
1.00044485e+00
1.00040024e+00
1.00035848e+00
1.00031932e+00
1.00028250e+00
1.00024772e+00
1.00021470e+00
1.00018316e+00
1.00015281e+00
1.00012333e+00
1.00009435e+00
1.00006538e+00
1.00003581e+00
1.00000489e+00
9.99971749e-01
9.99935431e-01
9.99894958e-01
9.99849435e-01
9.99798146e-01
9.99740672e-01
9.99676979e-01
9.99607483e-01
9.99533040e-01
9.99454904e-01
9.99374605e-01
9.99293770e-01
9.99213938e-01
9.99136375e-01
9.99061925e-01
9.98990928e-01
9.98923262e-01
9.98858451e-01
9.98795860e-01
9.98734939e-01
9.98675483e-01
9.98617775e-01
9.98562771e-01
9.98511915e-01
9.98467136e-01
9.98430139e-01
9.98403733e-01
9.98390637e-01
1.00158778e+00
1.00157972e+00
1.00156243e+00
1.00153806e+00
1.00150789e+00
1.00147228e+00
1.00143190e+00
1.00138735e+00
1.00133911e+00
1.00128751e+00
1.00123277e+00
1.00117509e+00
1.00111470e+00
1.00105194e+00
1.00098731e+00
1.00092144e+00
1.00085508e+00
1.00078908e+00
1.00072428e+00
1.00066145e+00
1.00060123e+00
1.00054409e+00
1.00049030e+00
1.00043994e+00
1.00039291e+00
1.00034896e+00
1.00030776e+00
1.00026893e+00
1.00023205e+00
1.00019670e+00
1.00016247e+00
1.00012891e+00
1.00009553e+00
1.00006178e+00
1.00002701e+00
9.99990439e-01
9.99951228e-01
9.99908458e-01
9.99861223e-01
9.99808712e-01
9.99750304e-01
9.99685679e-01
9.99614899e-01
9.99538448e-01
9.99457241e-01
9.99372560e-01
9.99285926e-01
9.99198944e-01
9.99113122e-01
9.99029681e-01
9.98949424e-01
9.98872681e-01
9.98799324e-01
9.98728890e-01
9.98660779e-01
9.98594489e-01
9.98529852e-01
9.98467211e-01
9.98407567e-01
9.98352429e-01
9.98303771e-01
9.98263358e-01
9.98233807e-01
9.98217965e-01
1.00176603e+00
1.00175483e+00
1.00173374e+00
1.00170492e+00
1.00166957e+00
1.00162821e+00
1.00158166e+00
1.00153065e+00
1.00147578e+00
1.00141746e+00
1.00135596e+00
1.00129148e+00
1.00122427e+00
1.00115465e+00
1.00108306e+00
1.00101016e+00
1.00093670e+00
1.00086355e+00
1.00079164e+00
1.00072181e+00
1.00065483e+00
1.00059126e+00
1.00053149e+00
1.00047564e+00
1.00042364e+00
1.00037524e+00
1.00033004e+00
1.00028754e+00
1.00024720e+00
1.00020846e+00
1.00017077e+00
1.00013353e+00
1.00009616e+00
1.00005803e+00
1.00001842e+00
9.99976562e-01
9.99931623e-01
9.99882734e-01
9.99829061e-01
9.99769877e-01
9.99704664e-01
9.99633203e-01
9.99555637e-01
9.99472520e-01
9.99384809e-01
9.99293790e-01
9.99200958e-01
9.99107878e-01
9.99015995e-01
9.98926468e-01
9.98840057e-01
9.98757073e-01
9.98677389e-01
9.98600575e-01
9.98526092e-01
9.98453510e-01
9.98382743e-01
9.98314224e-01
9.98249030e-01
9.98188768e-01
9.98135479e-01
9.98091029e-01
9.98057810e-01
9.98038771e-01
1.00195107e+00
1.00193631e+00
1.00191092e+00
1.00187702e+00
1.00183571e+00
1.00178775e+00
1.00173412e+00
1.00167571e+00
1.00161326e+00
1.00154730e+00
1.00147817e+00
1.00140612e+00
1.00133140e+00
1.00125433e+00
1.00117534e+00
1.00109506e+00
1.00101426e+00
1.00093386e+00
1.00085479e+00
1.00077802e+00
1.00070440e+00
1.00063458e+00
1.00056901e+00
1.00050791e+00
1.00045120e+00
1.00039861e+00
1.00034967e+00
1.00030379e+00
1.00026028e+00
1.00021846e+00
1.00017760e+00
1.00013699e+00
1.00009594e+00
1.00005372e+00
1.00000958e+00
9.99962740e-01
9.99912370e-01
9.99857660e-01
9.99797844e-01
9.99732290e-01
9.99660582e-01
9.99582594e-01
9.99498551e-01
9.99409073e-01
9.99315140e-01
9.99218018e-01
9.99119173e-01
9.99020101e-01
9.98922157e-01
9.98826435e-01
9.98733648e-01
9.98644069e-01
9.98557586e-01
9.98473831e-01
9.98392332e-01
9.98312759e-01
9.98235140e-01
9.98160030e-01
9.98088596e-01
9.98022575e-01
9.97964087e-01
9.97915131e-01
9.97877862e-01
9.97855241e-01
1.00214030e+00
1.00212172e+00
1.00209173e+00
1.00205235e+00
1.00200461e+00
1.00194950e+00
1.00188817e+00
1.00182172e+00
1.00175103e+00
1.00167677e+00
1.00159937e+00
1.00151915e+00
1.00143639e+00
1.00135141e+00
1.00126466e+00
1.00117675e+00
1.00108845e+00
1.00100071e+00
1.00091451e+00
1.00083087e+00
1.00075071e+00
1.00067479e+00
1.00060361e+00
1.00053741e+00
1.00047617e+00
1.00041956e+00
1.00036705e+00
1.00031794e+00
1.00027145e+00
1.00022671e+00
1.00018287e+00
1.00013909e+00
1.00009456e+00
1.00004848e+00
1.00000003e+00
9.99948427e-01
9.99892863e-01
9.99832571e-01
9.99766863e-01
9.99695204e-01
9.99617276e-01
9.99533042e-01
9.99442821e-01
9.99347280e-01
9.99247401e-01
9.99144438e-01
9.99039801e-01
9.98934885e-01
9.98830961e-01
9.98729046e-01
9.98629779e-01
9.98533409e-01
9.98439858e-01
9.98348807e-01
9.98259877e-01
9.98172872e-01
9.98087949e-01
9.98005795e-01
9.97927700e-01
9.97855545e-01
9.97791529e-01
9.97737800e-01
9.97696282e-01
9.97669892e-01
1.00233080e+00
1.00230828e+00
1.00227363e+00
1.00222865e+00
1.00217432e+00
1.00211186e+00
1.00204258e+00
1.00196778e+00
1.00188853e+00
1.00180560e+00
1.00171954e+00
1.00163078e+00
1.00153964e+00
1.00144646e+00
1.00135170e+00
1.00125599e+00
1.00116011e+00
1.00106499e+00
1.00097169e+00
1.00088127e+00
1.00079468e+00
1.00071276e+00
1.00063608e+00
1.00056490e+00
1.00049919e+00
1.00043862e+00
1.00038260e+00
1.00033032e+00
1.00028087e+00
1.00023327e+00
1.00018652e+00
1.00013965e+00
1.00009174e+00
1.00004190e+00
9.99989279e-01
9.99933060e-01
9.99872459e-01
9.99806754e-01
9.99735344e-01
9.99657784e-01
9.99573851e-01
9.99483619e-01
9.99387483e-01
9.99286138e-01
9.99180587e-01
9.99072061e-01
9.98961871e-01
9.98851322e-01
9.98741604e-01
9.98633619e-01
9.98527933e-01
9.98424799e-01
9.98324150e-01
9.98225724e-01
9.98129266e-01
9.98034719e-01
9.97942365e-01
9.97853052e-01
9.97768204e-01
9.97689831e-01
9.97620218e-01
9.97561681e-01
9.97515911e-01
9.97485652e-01
1.00251939e+00
1.00249303e+00
1.00245387e+00
1.00240348e+00
1.00234273e+00
1.00227308e+00
1.00219599e+00
1.00211293e+00
1.00202511e+00
1.00193347e+00
1.00183869e+00
1.00174125e+00
1.00164159e+00
1.00154009e+00
1.00143722e+00
1.00133363e+00
1.00123015e+00
1.00112769e+00
1.00102733e+00
1.00093019e+00
1.00083727e+00
1.00074942e+00
1.00066727e+00
1.00059113e+00
1.00052095e+00
1.00045638e+00
1.00039677e+00
1.00034123e+00
1.00028874e+00
1.00023820e+00
1.00018848e+00
1.00013848e+00
1.00008718e+00
1.00003360e+00
9.99976841e-01
9.99916059e-01
9.99850486e-01
9.99779464e-01
9.99702460e-01
9.99619120e-01
9.99529341e-01
9.99433299e-01
9.99331444e-01
9.99224529e-01
9.99113577e-01
9.98999748e-01
9.98884274e-01
9.98768391e-01
9.98653150e-01
9.98539339e-01
9.98427493e-01
9.98317831e-01
9.98210284e-01
9.98104691e-01
9.98000920e-01
9.97899025e-01
9.97799446e-01
9.97703202e-01
9.97611828e-01
9.97527462e-01
9.97452485e-01
9.97389348e-01
9.97339532e-01
9.97305572e-01
1.00270285e+00
1.00267292e+00
1.00262964e+00
1.00257429e+00
1.00250765e+00
1.00243132e+00
1.00234692e+00
1.00225606e+00
1.00216004e+00
1.00205998e+00
1.00195668e+00
1.00185073e+00
1.00174262e+00
1.00163285e+00
1.00152194e+00
1.00141053e+00
1.00129948e+00
1.00118977e+00
1.00108245e+00
1.00097865e+00
1.00087945e+00
1.00078572e+00
1.00069808e+00
1.00061691e+00
1.00054215e+00
1.00047341e+00
1.00041001e+00
1.00035101e+00
1.00029528e+00
1.00024159e+00
1.00018871e+00
1.00013544e+00
1.00008061e+00
1.00002320e+00
9.99962229e-01
9.99896835e-01
9.99826271e-01
9.99749927e-01
9.99667340e-01
9.99578271e-01
9.99482733e-01
9.99380984e-01
9.99273563e-01
9.99161297e-01
9.99045179e-01
9.98926317e-01
9.98805908e-01
9.98685059e-01
9.98564671e-01
9.98445481e-01
9.98327956e-01
9.98212237e-01
9.98098314e-01
9.97986121e-01
9.97875590e-01
9.97766917e-01
9.97660722e-01
9.97558132e-01
9.97460789e-01
9.97370976e-01
9.97291134e-01
9.97223812e-01
9.97170339e-01
9.97132926e-01
1.00287800e+00
1.00284494e+00
1.00279814e+00
1.00273851e+00
1.00266678e+00
1.00258465e+00
1.00249377e+00
1.00239589e+00
1.00229243e+00
1.00218456e+00
1.00207323e+00
1.00195920e+00
1.00184300e+00
1.00172520e+00
1.00160645e+00
1.00148744e+00
1.00136897e+00
1.00125212e+00
1.00113798e+00
1.00102762e+00
1.00092216e+00
1.00082253e+00
1.00072936e+00
1.00064299e+00
1.00056343e+00
1.00049028e+00
1.00042280e+00
1.00035999e+00
1.00030068e+00
1.00024352e+00
1.00018718e+00
1.00013035e+00
1.00007178e+00
1.00001032e+00
9.99944953e-01
9.99874802e-01
9.99799127e-01
9.99717351e-01
9.99629113e-01
9.99534292e-01
9.99432992e-01
9.99325583e-01
9.99212733e-01
9.99095287e-01
9.98974223e-01
9.98850666e-01
9.98725723e-01
9.98600333e-01
9.98475343e-01
9.98351410e-01
9.98228845e-01
9.98107795e-01
9.97988320e-01
9.97870345e-01
9.97753898e-01
9.97639360e-01
9.97527446e-01
9.97419373e-01
9.97316928e-01
9.97222490e-01
9.97138526e-01
9.97067650e-01
9.97011084e-01
9.96970724e-01
1.00304189e+00
1.00300626e+00