# vtk DataFile Version 2.0
LBM Flow Field - Timestep 350
ASCII
DATASET STRUCTURED_POINTS
DIMENSIONS 64 64 1
ORIGIN 0.0 0.0 0.0
SPACING 1.0 1.0 1.0
POINT_DATA 4096
SCALARS density double 1
LOOKUP_TABLE default
9.95290265e-01
9.95414985e-01
9.95573787e-01
9.95741875e-01
9.95950077e-01
9.96180076e-01
9.96425018e-01
9.96676212e-01
9.96924685e-01
9.97164272e-01
9.97391071e-01
9.97602111e-01
9.97796059e-01
9.97973160e-01
9.98134479e-01
9.98281620e-01
9.98416519e-01
9.98541256e-01
9.98657872e-01
9.98768308e-01
9.98874340e-01
9.98977537e-01
9.99079218e-01
9.99180434e-01
9.99281961e-01
9.99384313e-01
9.99487783e-01
9.99592490e-01
9.99698442e-01
9.99805589e-01
9.99913871e-01
1.00002325e+00
1.00013372e+00
1.00024534e+00
1.00035817e+00
1.00047234e+00
1.00058798e+00
1.00070527e+00
1.00082440e+00
1.00094558e+00
1.00106903e+00
1.00119494e+00
1.00132345e+00
1.00145464e+00
1.00158845e+00
1.00172477e+00
1.00186341e+00
1.00200427e+00
1.00214741e+00
1.00229319e+00
1.00244231e+00
1.00259577e+00
1.00275481e+00
1.00292064e+00
1.00309367e+00
1.00327331e+00
1.00345861e+00
1.00364645e+00
1.00383128e+00
1.00400750e+00
1.00416972e+00
1.00430088e+00
1.00444472e+00
1.00456581e+00
9.95436826e-01
9.95536991e-01
9.95680950e-01
9.95842523e-01
9.96043744e-01
9.96263525e-01
9.96498339e-01
9.96739093e-01
9.96978200e-01
9.97209672e-01
9.97429317e-01
9.97634383e-01
9.97823564e-01
9.97996875e-01
9.98155135e-01
9.98299829e-01
9.98432757e-01
9.98555889e-01
9.98671187e-01
9.98780528e-01
9.98885621e-01
9.98987965e-01
9.99088816e-01
9.99189171e-01
9.99289769e-01
9.99391114e-01
9.99493501e-01
9.99597070e-01
9.99701852e-01
9.99807821e-01
9.99914934e-01
1.00002316e+00
1.00013249e+00
1.00024296e+00
1.00035463e+00
1.00046760e+00
1.00058199e+00
1.00069796e+00
1.00081566e+00
1.00093529e+00
1.00105702e+00
1.00118101e+00
1.00130740e+00
1.00143624e+00
1.00156753e+00
1.00170119e+00
1.00183716e+00
1.00197542e+00
1.00211611e+00
1.00225959e+00
1.00240649e+00
1.00255767e+00
1.00271402e+00
1.00287638e+00
1.00304495e+00
1.00321911e+00
1.00339741e+00
1.00357672e+00
1.00375263e+00
1.00391876e+00
1.00407498e+00
1.00420016e+00
1.00432539e+00
1.00441543e+00
9.95644478e-01
9.95729268e-01
9.95843917e-01
9.96002102e-01
9.96190549e-01
9.96399262e-01
9.96622280e-01
9.96849927e-01
9.97077046e-01
9.97297735e-01
9.97507216e-01
9.97703108e-01
9.97884326e-01
9.98050652e-01
9.98202790e-01
9.98342143e-01
9.98470412e-01
9.98589462e-01
9.98701176e-01
9.98807355e-01
9.98909624e-01
9.99009397e-01
9.99107848e-01
9.99205904e-01
9.99304251e-01
9.99403359e-01
9.99503509e-01
9.99604842e-01
9.99707397e-01
9.99811154e-01
9.99916073e-01
1.00002211e+00
1.00012926e+00
1.00023751e+00
1.00034691e+00
1.00045753e+00
1.00056944e+00
1.00068277e+00
1.00079764e+00
1.00091419e+00
1.00103258e+00
1.00115294e+00
1.00127538e+00
1.00139996e+00
1.00152672e+00
1.00165566e+00
1.00178680e+00
1.00192022e+00
1.00205613e+00
1.00219489e+00
1.00233704e+00
1.00248333e+00
1.00263436e+00
1.00279053e+00
1.00295202e+00
1.00311835e+00
1.00328711e+00
1.00345519e+00
1.00362034e+00
1.00377533e+00
1.00391890e+00
1.00404224e+00
1.00413023e+00
1.00420152e+00
9.95879998e-01
9.95953305e-01
9.96064744e-01
9.96212137e-01
9.96383668e-01
9.96577555e-01
9.96785674e-01
9.96999255e-01
9.97212519e-01
9.97419639e-01
9.97616902e-01
9.97801858e-01
9.97973116e-01
9.98130452e-01
9.98274590e-01
9.98406773e-01
9.98528601e-01
9.98641866e-01
9.98748371e-01
9.98849820e-01
9.98947744e-01
9.99043462e-01
9.99138059e-01
9.99232389e-01
9.99327085e-01
9.99422588e-01
9.99519170e-01
9.99616971e-01
9.99716037e-01
9.99816350e-01
9.99917862e-01
1.00002052e+00
1.00012427e+00
1.00022908e+00
1.00033496e+00
1.00044193e+00
1.00055002e+00
1.00065930e+00
1.00076988e+00
1.00088184e+00
1.00099529e+00
1.00111036e+00
1.00122711e+00
1.00134565e+00
1.00146603e+00
1.00158834e+00
1.00171270e+00
1.00183930e+00
1.00196844e+00
1.00210054e+00
1.00223609e+00
1.00237563e+00
1.00251968e+00
1.00266839e+00
1.00282136e+00
1.00297772e+00
1.00313586e+00
1.00329250e+00
1.00344489e+00
1.00358649e+00
1.00371185e+00
1.00382362e+00
1.00390927e+00
1.00396852e+00
9.96163922e-01
9.96228492e-01
9.96326545e-01
9.96456618e-01
9.96614243e-01
9.96792078e-01
9.96982667e-01
9.97179789e-01
9.97376746e-01
9.97568569e-01
9.97752094e-01
9.97924477e-01
9.98084320e-01
9.98231476e-01
9.98366482e-01
9.98490397e-01
9.98604729e-01
9.98711171e-01
9.98811422e-01
9.98907085e-01
9.98999592e-01
9.99090160e-01
9.99179780e-01
9.99269226e-01
9.99359077e-01
9.99449744e-01
9.99541489e-01
9.99634460e-01
9.99728714e-01
9.99824241e-01
9.99920991e-01
1.00001889e+00
1.00011788e+00
1.00021788e+00
1.00031885e+00
1.00042076e+00
1.00052361e+00
1.00062742e+00
1.00073225e+00
1.00083814e+00
1.00094517e+00
1.00105341e+00
1.00116295e+00
1.00127388e+00
1.00138635e+00
1.00150052e+00
1.00161667e+00
1.00173511e+00
1.00185627e+00
1.00198061e+00
1.00210862e+00
1.00224060e+00
1.00237674e+00
1.00251703e+00
1.00266075e+00
1.00280627e+00
1.00295224e+00
1.00309577e+00
1.00323292e+00
1.00336067e+00
1.00347309e+00
1.00356613e+00
1.00363833e+00
1.00368826e+00
9.96474512e-01
9.96527460e-01
9.96614260e-01
9.96729651e-01
9.96871039e-01
9.97031387e-01
9.97203996e-01
9.97382945e-01
9.97562706e-01
9.97738854e-01
9.97907618e-01
9.98066463e-01
9.98214287e-01
9.98350653e-01
9.98475858e-01
9.98590896e-01
9.98697150e-01
9.98796156e-01
9.98889490e-01
9.98978648e-01
9.99064948e-01
9.99149497e-01
9.99233192e-01
9.99316732e-01
9.99400647e-01
9.99485319e-01
9.99571009e-01
9.99657876e-01
9.99745992e-01
9.99835362e-01
9.99925943e-01
1.00001766e+00
1.00011042e+00
1.00020413e+00
1.00029871e+00
1.00039410e+00
1.00049025e+00
1.00058714e+00
1.00068478e+00
1.00078319e+00
1.00088241e+00
1.00098250e+00
1.00108355e+00
1.00118569e+00
1.00128913e+00
1.00139416e+00
1.00150119e+00
1.00161069e+00
1.00172318e+00
1.00183916e+00
1.00195905e+00
1.00208307e+00
1.00221102e+00
1.00234234e+00
1.00247628e+00
1.00261116e+00
1.00274466e+00
1.00287427e+00
1.00299654e+00
1.00310874e+00
1.00320683e+00
1.00328615e+00
1.00334648e+00
1.00338366e+00
9.96801200e-01
9.96842546e-01
9.96917286e-01
9.97017969e-01
9.97141931e-01
9.97284496e-01
9.97438924e-01
9.97599762e-01
9.97762463e-01
9.97922511e-01
9.98076403e-01
9.98222055e-01
9.98358072e-01
9.98483746e-01
9.98599331e-01
9.98705658e-01
9.98803879e-01
9.98895375e-01
9.98981603e-01
9.99063927e-01
9.99143546e-01
9.99221466e-01
9.99298496e-01
9.99375268e-01
9.99452269e-01
9.99529864e-01
9.99608319e-01
9.99687809e-01
9.99768436e-01
9.99850232e-01
9.99933173e-01
1.00001719e+00
1.00010220e+00
1.00018809e+00
1.00027477e+00
1.00036213e+00
1.00045012e+00
1.00053867e+00
1.00062778e+00
1.00071742e+00
1.00080763e+00
1.00089845e+00
1.00098999e+00
1.00108245e+00
1.00117612e+00
1.00127142e+00
1.00136890e+00
1.00146919e+00
1.00157294e+00
1.00168065e+00
1.00179262e+00
1.00190889e+00
1.00202908e+00
1.00215210e+00
1.00227658e+00
1.00240090e+00
1.00252256e+00
1.00263880e+00
1.00274706e+00
1.00284433e+00
1.00292682e+00
1.00299294e+00
1.00304148e+00
1.00306688e+00
9.97129521e-01
9.97159101e-01
9.97221467e-01
9.97308610e-01
9.97416494e-01
9.97541241e-01
9.97677769e-01
9.97821448e-01
9.97967497e-01
9.98111973e-01
9.98252076e-01
9.98385431e-01
9.98510365e-01
9.98626228e-01
9.98733082e-01
9.98831418e-01
9.98922191e-01
9.99006630e-01
9.99086018e-01
9.99161573e-01
9.99234382e-01
9.99305357e-01
9.99375228e-01
9.99444574e-01
9.99513852e-01
9.99583422e-01
9.99653564e-01
9.99724487e-01
9.99796332e-01
9.99869174e-01
9.99943028e-01
1.00001786e+00
1.00009360e+00
1.00017015e+00
1.00024742e+00
1.00032531e+00
1.00040374e+00
1.00048265e+00
1.00056199e+00
1.00064175e+00
1.00072195e+00
1.00080266e+00
1.00088402e+00
1.00096629e+00
1.00104988e+00
1.00113535e+00
1.00122340e+00
1.00131478e+00
1.00141022e+00
1.00151028e+00
1.00161516e+00
1.00172454e+00
1.00183773e+00
1.00195347e+00
1.00206978e+00
1.00218442e+00
1.00229519e+00
1.00239945e+00
1.00249436e+00
1.00257762e+00
1.00264672e+00
1.00270115e+00
1.00273842e+00
1.00275251e+00
9.97446989e-01
9.97467285e-01
9.97518143e-01
9.97591969e-01
9.97684354e-01
9.97792530e-01
9.97912411e-01
9.98039638e-01
9.98170071e-01
9.98300551e-01
9.98428163e-01
9.98550383e-01
9.98665692e-01
9.98773232e-01
9.98872652e-01
9.98964201e-01
9.99048628e-01
9.99126910e-01
9.99200127e-01
9.99269355e-01
9.99335569e-01
9.99399589e-01
9.99462084e-01
9.99523597e-01
9.99584572e-01
9.99645376e-01
9.99706317e-01
9.99767650e-01
9.99829569e-01
9.99892211e-01
9.99955653e-01
1.00001992e+00
1.00008499e+00
1.00015081e+00
1.00021731e+00
1.00028442e+00
1.00035207e+00
1.00042020e+00
1.00048879e+00
1.00055781e+00
1.00062730e+00
1.00069736e+00
1.00076820e+00
1.00084017e+00
1.00091379e+00
1.00098977e+00
1.00106895e+00
1.00115221e+00
1.00124033e+00
1.00133381e+00
1.00143275e+00
1.00153663e+00
1.00164421e+00
1.00175383e+00
1.00186335e+00
1.00197003e+00
1.00207123e+00
1.00216472e+00
1.00224794e+00
1.00231887e+00
1.00237593e+00
1.00241939e+00
1.00244670e+00
1.00245256e+00
9.97744988e-01
9.97757602e-01
9.97798606e-01
9.97859970e-01
9.97937968e-01
9.98031139e-01
9.98135488e-01
9.98247475e-01
9.98364026e-01
9.98482057e-01
9.98598608e-01
9.98711472e-01
9.98818991e-01
9.98919864e-01
9.99013477e-01
9.99099831e-01
9.99179325e-01
9.99252643e-01
9.99320669e-01
9.99384321e-01
9.99444446e-01
9.99501786e-01
9.99556966e-01
9.99610511e-01
9.99662864e-01
9.99714417e-01
9.99765518e-01
9.99816480e-01
9.99867570e-01
9.99919005e-01
9.99970947e-01
1.00002350e+00
1.00007673e+00
1.00013066e+00
1.00018527e+00
1.00024054e+00
1.00029645e+00
1.00035297e+00
1.00041008e+00
1.00046781e+00
1.00052621e+00
1.00058545e+00
1.00064580e+00
1.00070772e+00
1.00077187e+00
1.00083909e+00
1.00091034e+00
1.00098660e+00
1.00106868e+00
1.00115700e+00
1.00125143e+00
1.00135122e+00
1.00145481e+00
1.00155992e+00
1.00166399e+00
1.00176427e+00
1.00185774e+00
1.00194193e+00
1.00201505e+00
1.00207562e+00
1.00212219e+00
1.00215609e+00
1.00217566e+00
1.00217520e+00
9.98018678e-01
9.98025129e-01
9.98057070e-01
9.98107300e-01
9.98172416e-01
9.98251570e-01
9.98341598e-01
9.98440069e-01
9.98544233e-01
9.98651207e-01
9.98758492e-01
9.98863884e-01
9.98965341e-01
9.99061343e-01
9.99151009e-01
9.99233899e-01
9.99310024e-01
9.99379795e-01
9.99443849e-01
9.99502908e-01
9.99557699e-01
9.99608898e-01
9.99657098e-01
9.99702817e-01
9.99746521e-01
9.99788635e-01
9.99829566e-01
9.99869693e-01
9.99909370e-01
9.99948913e-01
9.99988592e-01
1.00002862e+00
1.00006918e+00
1.00011038e+00
1.00015231e+00
1.00019503e+00
1.00023856e+00
1.00028295e+00
1.00032822e+00
1.00037444e+00
1.00042171e+00
1.00047028e+00
1.00052052e+00
1.00057299e+00
1.00062848e+00
1.00068796e+00
1.00075250e+00
1.00082312e+00
1.00090062e+00
1.00098531e+00
1.00107683e+00
1.00117402e+00
1.00127502e+00
1.00137718e+00
1.00147736e+00
1.00157251e+00
1.00165973e+00
1.00173645e+00
1.00180093e+00
1.00185252e+00
1.00189047e+00
1.00191654e+00
1.00192949e+00
1.00192449e+00
9.98265021e-01
9.98266812e-01
9.98290771e-01
9.98330987e-01
9.98384305e-01
9.98450465e-01
9.98527570e-01
9.98613825e-01
9.98706802e-01
9.98804278e-01
9.98903968e-01
9.99003447e-01
9.99100533e-01
9.99193495e-01
9.99280975e-01
9.99362078e-01
9.99436458e-01
9.99504176e-01
9.99565568e-01
9.99621157e-01
9.99671552e-01
9.99717360e-01
9.99759152e-01
9.99797459e-01
9.99832779e-01
9.99865591e-01
9.99896361e-01
9.99925554e-01
9.99953618e-01
9.99980983e-01
1.00000804e+00
1.00003515e+00
1.00006261e+00
1.00009068e+00
1.00011955e+00
1.00014939e+00
1.00018032e+00
1.00021245e+00
1.00024587e+00
1.00028071e+00
1.00031716e+00
1.00035554e+00
1.00039632e+00
1.00044020e+00
1.00048808e+00
1.00054105e+00
1.00060024e+00
1.00066670e+00
1.00074111e+00
1.00082364e+00
1.00091368e+00
1.00100971e+00
1.00110938e+00
1.00120974e+00
1.00130734e+00
1.00139864e+00
1.00148070e+00
1.00155127e+00
1.00160865e+00
1.00165255e+00
1.00168330e+00
1.00170299e+00
1.00171070e+00
1.00170278e+00
9.98483831e-01
9.98482339e-01
9.98499227e-01
9.98530065e-01
9.98572399e-01
9.98626607e-01
9.98691758e-01
9.98766648e-01
9.98849595e-01
9.98938853e-01
9.99032131e-01
9.99127032e-01
9.99221273e-01
9.99312705e-01
9.99399504e-01
9.99480374e-01
9.99554525e-01
9.99621597e-01
9.99681626e-01
9.99734923e-01
9.99781958e-01
9.99823269e-01
9.99859421e-01
9.99890969e-01
9.99918457e-01
9.99942423e-01
9.99963408e-01
9.99981964e-01
9.99998645e-01
1.00001400e+00
1.00002856e+00
1.00004283e+00
1.00005726e+00
1.00007226e+00
1.00008816e+00
1.00010526e+00
1.00012378e+00
1.00014392e+00
1.00016586e+00
1.00018981e+00
1.00021605e+00
1.00024499e+00
1.00027722e+00
1.00031357e+00
1.00035504e+00
1.00040281e+00
1.00045804e+00
1.00052174e+00
1.00059448e+00
1.00067616e+00
1.00076589e+00
1.00086183e+00
1.00096120e+00
1.00106060e+00
1.00115633e+00
1.00124471e+00
1.00132253e+00
1.00138773e+00
1.00143905e+00
1.00147650e+00
1.00150111e+00
1.00151534e+00
1.00151891e+00
1.00150955e+00
9.98676891e-01
9.98672851e-01
9.98683316e-01
9.98705284e-01
9.98737239e-01
9.98780096e-01
9.98833839e-01
9.98898067e-01
9.98971802e-01
9.99053580e-01
9.99141308e-01
9.99232678e-01
9.99325134e-01
9.99416138e-01
9.99503476e-01
9.99585372e-01
9.99660525e-01
9.99728168e-01
9.99788013e-01
9.99840129e-01
9.99884835e-01
9.99922613e-01
9.99954023e-01
9.99979654e-01
1.00000011e+00
1.00001599e+00
1.00002792e+00
1.00003655e+00
1.00004252e+00
1.00004652e+00
1.00004922e+00
1.00005126e+00
1.00005327e+00
1.00005579e+00
1.00005932e+00
1.00006429e+00
1.00007104e+00
1.00007988e+00
1.00009108e+00
1.00010494e+00
1.00012184e+00
1.00014232e+00
1.00016709e+00
1.00019707e+00
1.00023338e+00
1.00027725e+00
1.00032982e+00
1.00039201e+00
1.00046422e+00
1.00054611e+00
1.00063640e+00
1.00073289e+00
1.00083249e+00
1.00093140e+00
1.00102561e+00
1.00111137e+00
1.00118547e+00
1.00124584e+00
1.00129165e+00
1.00132338e+00
1.00134265e+00
1.00135216e+00
1.00135242e+00
1.00134240e+00
9.98847008e-01
9.98840780e-01
9.98845141e-01
9.98858527e-01
9.98880392e-01
9.98912155e-01
9.98954819e-01
9.99008783e-01
9.99073636e-01
9.99148318e-01
9.99231022e-01
9.99319394e-01
9.99410633e-01
9.99501913e-01
9.99590575e-01
9.99674312e-01
9.99751346e-01
9.99820490e-01
9.99881093e-01
9.99932969e-01
9.99976296e-01
1.00001149e+00
1.00003911e+00
1.00005980e+00
1.00007421e+00
1.00008303e+00
1.00008698e+00
1.00008677e+00
1.00008317e+00
1.00007696e+00
1.00006895e+00
1.00005993e+00
1.00005065e+00
1.00004184e+00
1.00003414e+00
1.00002808e+00
1.00002416e+00
1.00002277e+00
1.00002430e+00
1.00002916e+00
1.00003784e+00
1.00005100e+00
1.00006947e+00
1.00009429e+00
1.00012665e+00
1.00016780e+00
1.00021884e+00
1.00028054e+00
1.00035307e+00
1.00043579e+00
1.00052710e+00
1.00062440e+00
1.00072425e+00
1.00082263e+00
1.00091527e+00
1.00099829e+00
1.00106862e+00
1.00112434e+00
1.00116490e+00
1.00119124e+00
1.00120559e+00
1.00121087e+00
1.00120827e+00
1.00119797e+00
9.98997301e-01
9.98988946e-01
9.98987356e-01
9.98992233e-01
9.99004054e-01
9.99024813e-01
9.99056496e-01
9.99100235e-01
9.99156244e-01
9.99223922e-01
9.99301671e-01
9.99387103e-01
9.99477279e-01
9.99569055e-01
9.99659305e-01
9.99745246e-01
9.99824629e-01
9.99895818e-01
9.99957801e-01
1.00001014e+00
1.00005287e+00
1.00008634e+00
1.00011111e+00
1.00012788e+00
1.00013739e+00
1.00014040e+00
1.00013770e+00
1.00013011e+00
1.00011847e+00
1.00010366e+00
1.00008660e+00
1.00006820e+00
1.00004934e+00
1.00003086e+00
1.00001354e+00
9.99998040e-01
9.99984949e-01
9.99974785e-01
9.99968039e-01
9.99965234e-01
9.99966989e-01
9.99974080e-01
9.99987470e-01
1.00000830e+00
1.00003782e+00
1.00007727e+00
1.00012765e+00
1.00018955e+00
1.00026288e+00
1.00034668e+00
1.00043900e+00
1.00053691e+00
1.00063664e+00
1.00073396e+00
1.00082450e+00
1.00090434e+00
1.00097049e+00
1.00102130e+00
1.00105656e+00
1.00107757e+00
1.00108714e+00
1.00108839e+00
1.00108317e+00
1.00107268e+00
9.99130850e-01
9.99120228e-01
9.99112684e-01
9.99109014e-01
9.99110727e-01
9.99120452e-01
9.99141062e-01
9.99174432e-01
9.99221433e-01
9.99281874e-01
9.99354360e-01
9.99436552e-01
9.99525375e-01
9.99617361e-01
9.99708989e-01
9.99797033e-01
9.99878771e-01
9.99952136e-01
1.00001578e+00
1.00006900e+00
1.00011170e+00
1.00014415e+00
1.00016695e+00
1.00018084e+00
1.00018665e+00
1.00018523e+00
1.00017746e+00
1.00016421e+00
1.00014642e+00
1.00012503e+00
1.00010101e+00
1.00007538e+00
1.00004909e+00
1.00002310e+00
9.99998240e-01
9.99975290e-01
9.99954925e-01
9.99937759e-01
9.99924390e-01
9.99915459e-01
9.99911714e-01
9.99914064e-01
9.99923597e-01
9.99941543e-01
9.99969193e-01
1.00000774e+00
1.00005806e+00
1.00012054e+00
1.00019478e+00
1.00027950e+00
1.00037241e+00
1.00047029e+00
1.00056912e+00
1.00066449e+00
1.00075202e+00
1.00082786e+00
1.00088916e+00
1.00093454e+00
1.00096415e+00
1.00097970e+00
1.00098442e+00
1.00098164e+00
1.00097384e+00
1.00096305e+00
9.99250302e-01
9.99237153e-01
9.99223598e-01
9.99211343e-01
9.99202860e-01
9.99201464e-01
9.99210845e-01
9.99233620e-01
9.99271279e-01
9.99324015e-01
9.99390686e-01
9.99469009e-01
9.99555782e-01
9.99647284e-01
9.99739656e-01
9.99829254e-01
9.99912923e-01
9.99988212e-01
1.00005344e+00
1.00010768e+00
1.00015068e+00
1.00018267e+00
1.00020426e+00
1.00021628e+00
1.00021963e+00
1.00021525e+00
1.00020411e+00
1.00018715e+00
1.00016534e+00
1.00013966e+00
1.00011113e+00
1.00008077e+00
1.00004960e+00
1.00001858e+00
9.99988633e-01
9.99960561e-01
9.99935112e-01
9.99912977e-01
9.99894852e-01
9.99881494e-01
9.99873784e-01
9.99872767e-01
9.99879648e-01
9.99895738e-01
9.99922341e-01
9.99960583e-01
1.00001120e+00
1.00007431e+00
1.00014923e+00
1.00023436e+00
1.00032709e+00
1.00042393e+00
1.00052072e+00
1.00061297e+00
1.00069632e+00
1.00076707e+00
1.00082263e+00
1.00086188e+00
1.00088535e+00
1.00089511e+00
1.00089477e+00
1.00088788e+00
1.00087743e+00
1.00086604e+00
9.99357718e-01
9.99341789e-01
9.99322171e-01
9.99301332e-01
9.99282613e-01
9.99270040e-01
9.99268054e-01
9.99279974e-01
9.99307867e-01
9.99352315e-01
9.99412431e-01
9.99485994e-01
9.99569730e-01
9.99659733e-01
9.99751850e-01
9.99842082e-01
9.99926914e-01
1.00000355e+00
1.00007000e+00
1.00012515e+00
1.00016858e+00
1.00020051e+00
1.00022158e+00
1.00023266e+00
1.00023477e+00
1.00022894e+00
1.00021621e+00
1.00019757e+00
1.00017401e+00
1.00014651e+00
1.00011608e+00
1.00008372e+00
1.00005042e+00
1.00001714e+00
9.99984755e-01
9.99954106e-01
9.99925960e-01
9.99901064e-01
9.99880198e-01
9.99864229e-01
9.99854170e-01
9.99851194e-01
9.99856617e-01
9.99871817e-01
9.99898088e-01
9.99936462e-01
9.99987496e-01
1.00005106e+00
1.00012617e+00
1.00021091e+00
1.00030241e+00
1.00039697e+00
1.00049034e+00
1.00057805e+00
1.00065586e+00
1.00072030e+00
1.00076907e+00
1.00080138e+00
1.00081809e+00
1.00082166e+00
1.00081598e+00
1.00080483e+00
1.00079159e+00
1.00077928e+00
9.99454559e-01
9.99435649e-01
9.99409978e-01
9.99380633e-01
9.99351728e-01
9.99328004e-01
9.99314566e-01
9.99315393e-01
9.99333084e-01
9.99368603e-01
9.99421305e-01
9.99489062e-01
9.99568586e-01
9.99655840e-01
9.99746451e-01
9.99836152e-01
9.99921133e-01
9.99998303e-01
1.00006543e+00
1.00012119e+00
1.00016508e+00
1.00019726e+00
1.00021840e+00
1.00022945e+00
1.00023151e+00
1.00022571e+00
1.00021315e+00
1.00019486e+00
1.00017183e+00
1.00014500e+00
1.00011533e+00
1.00008373e+00
1.00005111e+00
1.00001835e+00
9.99986267e-01
9.99955655e-01
9.99927275e-01
9.99901903e-01
9.99880385e-01
9.99863691e-01
9.99852952e-01
9.99849463e-01
9.99854636e-01
9.99869887e-01
9.99896479e-01
9.99935327e-01
9.99986786e-01
1.00005047e+00
1.00012510e+00
1.00020848e+00
1.00029752e+00
1.00038840e+00
1.00047684e+00
1.00055848e+00
1.00062931e+00
1.00068614e+00
1.00072701e+00
1.00075148e+00
1.00076079e+00
1.00075773e+00
1.00074640e+00
1.00073079e+00
1.00071458e+00
1.00070104e+00
9.99541752e-01
9.99519743e-01
9.99488100e-01
9.99450413e-01
9.99411482e-01
9.99376719e-01
9.99351824e-01
9.99341374e-01
9.99348457e-01
9.99374392e-01
9.99418778e-01
9.99479617e-01
9.99553656e-01
9.99636790e-01
9.99724522e-01
9.99812402e-01
9.99896399e-01
9.99973196e-01
1.00004036e+00
1.00009641e+00
1.00014073e+00
1.00017344e+00
1.00019523e+00
1.00020712e+00
1.00021029e+00
1.00020595e+00
1.00019525e+00
1.00017924e+00
1.00015890e+00
1.00013511e+00
1.00010870e+00
1.00008048e+00
1.00005121e+00
1.00002164e+00
9.99992478e-01
9.99964432e-01
9.99938220e-01
9.99914623e-01
9.99894538e-01
9.99879021e-01
9.99869306e-01
9.99866793e-01
9.99872959e-01
9.99889229e-01
9.99916806e-01
9.99956455e-01
1.00000831e+00
1.00007172e+00
1.00014515e+00
1.00022614e+00
1.00031145e+00
1.00039720e+00
1.00047918e+00
1.00055322e+00
1.00061561e+00
1.00066351e+00
1.00069536e+00
1.00071111e+00
1.00071236e+00
1.00070218e+00
1.00068488e+00
1.00066461e+00
1.00064524e+00
1.00063020e+00
9.99619784e-01
9.99594627e-01
9.99557163e-01
9.99511383e-01
9.99462678e-01
9.99417074e-01
9.99380794e-01
9.99358948e-01
9.99355061e-01
9.99370791e-01
9.99405981e-01
9.99458795e-01
9.99526066e-01
9.99603709e-01
9.99687187e-01
9.99771953e-01
9.99853845e-01
9.99929391e-01
9.99996002e-01
1.00005205e+00
1.00009683e+00
1.00013042e+00
1.00015349e+00
1.00016711e+00
1.00017252e+00
1.00017099e+00
1.00016372e+00
1.00015177e+00
1.00013605e+00
1.00011738e+00
1.00009645e+00
1.00007390e+00
1.00005033e+00
1.00002632e+00
1.00000242e+00
9.99979221e-01
9.99957386e-01
9.99937677e-01
9.99921023e-01
9.99908546e-01
9.99901568e-01
9.99901556e-01
9.99910017e-01
9.99928349e-01
9.99957646e-01
9.99998491e-01
1.00005078e+00
1.00011360e+00
1.00018515e+00
1.00026279e+00
1.00034316e+00
1.00042241e+00
1.00049648e+00
1.00056146e+00
1.00061402e+00
1.00065174e+00
1.00067351e+00
1.00067968e+00
1.00067220e+00
1.00065443e+00
1.00063081e+00
1.00060565e+00
1.00058295e+00
1.00056614e+00
9.99688785e-01
9.99660487e-01
9.99617408e-01
9.99563839e-01
9.99505687e-01
9.99449506e-01
9.99401981e-01
9.99368684e-01
9.99353530e-01
9.99358495e-01
9.99383677e-01
9.99427431e-01
9.99486736e-01
9.99557608e-01
9.99635559e-01
9.99716038e-01
9.99794835e-01
9.99868392e-01
9.99934005e-01
9.99989928e-01
1.00003535e+00
1.00007028e+00
1.00009536e+00
1.00011165e+00
1.00012042e+00
1.00012298e+00
1.00012054e+00
1.00011416e+00
1.00010470e+00
1.00009286e+00
1.00007919e+00
1.00006417e+00
1.00004820e+00
1.00003165e+00
1.00001493e+00
9.99998500e-01
9.99982941e-01
9.99968991e-01
9.99957597e-01
9.99949934e-01
9.99947374e-01
9.99951412e-01
9.99963542e-01
9.99985076e-01
1.00001695e+00
1.00005952e+00
1.00011243e+00
1.00017449e+00
1.00024366e+00
1.00031715e+00
1.00039156e+00
1.00046311e+00
1.00052797e+00
1.00058260e+00
1.00062408e+00
1.00065049e+00
1.00066120e+00
1.00065698e+00
1.00064014e+00
1.00061430e+00
1.00058403e+00
1.00055373e+00
1.00052750e+00
1.00050869e+00
9.99748597e-01
9.99717198e-01
9.99668743e-01
9.99607727e-01
9.99540500e-01
9.99474060e-01
9.99415485e-01
9.99370743e-01
9.99344101e-01
9.99337836e-01
9.99352304e-01
9.99386096e-01
9.99436398e-01
9.99499395e-01
9.99570741e-01
9.99645975e-01
9.99720912e-01
9.99791968e-01
9.99856370e-01
9.99912260e-01
9.99958710e-01
9.99995623e-01
1.00002356e+00
1.00004352e+00
1.00005677e+00
1.00006460e+00
1.00006822e+00
1.00006866e+00
1.00006671e+00
1.00006298e+00
1.00005788e+00
1.00005169e+00
1.00004465e+00
1.00003694e+00
1.00002880e+00
1.00002060e+00
1.00001282e+00
1.00000618e+00
1.00000165e+00
1.00000042e+00
1.00000389e+00
1.00001352e+00
1.00003074e+00
1.00005671e+00
1.00009215e+00
1.00013716e+00
1.00019106e+00
1.00025240e+00
1.00031893e+00
1.00038773e+00
1.00045540e+00
1.00051832e+00
1.00057297e+00
1.00061619e+00
1.00064557e+00
1.00065972e+00
1.00065852e+00
1.00064319e+00
1.00061642e+00
1.00058205e+00
1.00054478e+00
1.00050908e+00
1.00047909e+00
1.00045805e+00
9.99798827e-01
9.99764377e-01
9.99710798e-01
9.99642703e-01
9.99566802e-01
9.99490458e-01
9.99421082e-01
9.99364973e-01
9.99326714e-01
9.99308874e-01
9.99312081e-01
9.99335196e-01
9.99375673e-01
9.99429943e-01
9.99493873e-01
9.99563176e-01
9.99633774e-01
9.99702099e-01
9.99765338e-01
9.99821535e-01
9.99869614e-01
9.99909323e-01
9.99941086e-01
9.99965797e-01
9.99984622e-01
9.99998809e-01
1.00000952e+00
1.00001773e+00
1.00002419e+00
1.00002938e+00
1.00003361e+00
1.00003702e+00
1.00003966e+00
1.00004158e+00
1.00004290e+00
1.00004386e+00
1.00004493e+00
1.00004681e+00
1.00005046e+00
1.00005709e+00
1.00006806e+00
1.00008478e+00
1.00010852e+00
1.00014023e+00
1.00018035e+00
1.00022864e+00
1.00028412e+00
1.00034504e+00
1.00040895e+00
1.00047281e+00
1.00053331e+00
1.00058702e+00
1.00063074e+00
1.00066181e+00
1.00067834e+00
1.00067952e+00
1.00066574e+00
1.00063873e+00
1.00060152e+00
1.00055821e+00
1.00051359e+00
1.00047220e+00
1.00043824e+00
1.00041472e+00
9.99838862e-01
9.99801414e-01
9.99742969e-01
9.99668180e-01
9.99584034e-01
9.99498183e-01
9.99418316e-01
9.99351008e-01
9.99301122e-01
9.99271520e-01
9.99263120e-01
9.99275084e-01
9.99305181e-01
9.99350166e-01
9.99406188e-01
9.99469191e-01
9.99535269e-01
9.99600928e-01
9.99663319e-01
9.99720382e-01
9.99770881e-01
9.99814348e-01
9.99850998e-01
9.99881549e-01
9.99907012e-01
9.99928515e-01
9.99947146e-01
9.99963813e-01
9.99979189e-01
9.99993700e-01
1.00000755e+00
1.00002077e+00
1.00003331e+00
1.00004511e+00
1.00005623e+00
1.00006684e+00
1.00007740e+00
1.00008862e+00
1.00010147e+00
1.00011712e+00
1.00013691e+00
1.00016209e+00
1.00019372e+00
1.00023247e+00
1.00027843e+00
1.00033098e+00
1.00038880e+00
1.00044983e+00
1.00051140e+00
1.00057043e+00
1.00062368e+00
1.00066796e+00
1.00070046e+00
1.00071900e+00
1.00072228e+00
1.00071005e+00
1.00068329e+00
1.00064419e+00
1.00059616e+00
1.00054356e+00
1.00049129e+00
1.00044395e+00
1.00040577e+00
1.00037953e+00
9.99867894e-01
9.99827509e-01
9.99764465e-01
9.99683384e-01
9.99591460e-01
9.99496562e-01
9.99406593e-01
9.99328371e-01
9.99267016e-01
9.99225662e-01
9.99205546e-01
9.99206171e-01
9.99225653e-01
9.99261118e-01
9.99309071e-01
9.99365737e-01
9.99427410e-01
9.99490720e-01
9.99552804e-01
9.99611471e-01
9.99665291e-01
9.99713551e-01
9.99756176e-01
9.99793621e-01
9.99826691e-01
9.99856335e-01
9.99883505e-01
9.99909037e-01
9.99933541e-01
9.99957387e-01
9.99980727e-01
1.00000355e+00
1.00002575e+00
1.00004725e+00
1.00006805e+00
1.00008838e+00
1.00010871e+00
1.00012975e+00
1.00015249e+00
1.00017811e+00
1.00020778e+00
1.00024260e+00
1.00028336e+00
1.00033036e+00
1.00038328e+00
1.00044111e+00
1.00050213e+00
1.00056396e+00
1.00062375e+00
1.00067836e+00
1.00072465e+00
1.00075968e+00
1.00078106e+00
1.00078712e+00
1.00077711e+00
1.00075140e+00
1.00071153e+00
1.00066017e+00
1.00060113e+00
1.00053901e+00
1.00047887e+00
1.00042535e+00
1.00038272e+00
1.00035353e+00
9.99884949e-01
9.99841701e-01
9.99774344e-01
9.99687415e-01
9.99588235e-01
9.99484839e-01
9.99385284e-01
9.99296583e-01
9.99224113e-01
9.99171276e-01
9.99139618e-01
9.99129022e-01
9.99138003e-01
9.99164065e-01
9.99204106e-01
9.99254700e-01
9.99312362e-01
9.99373837e-01
9.99436289e-01
9.99497396e-01
9.99555474e-01
9.99609522e-01
9.99659142e-01
9.99704443e-01
9.99745939e-01
9.99784365e-01
9.99820504e-01
9.99855075e-01
9.99888644e-01
9.99921560e-01
9.99953963e-01
9.99985854e-01
1.00001716e+00
1.00004783e+00
1.00007792e+00
1.00010773e+00
1.00013778e+00
1.00016884e+00
1.00020193e+00
1.00023813e+00
1.00027851e+00
1.00032392e+00
1.00037481e+00
1.00043108e+00
1.00049197e+00
1.00055603e+00
1.00062112e+00
1.00068455e+00
1.00074329e+00
1.00079417e+00
1.00083411e+00
1.00086048e+00
1.00087127e+00
1.00086529e+00
1.00084239e+00
1.00080352e+00
1.00075076e+00
1.00068728e+00
1.00061727e+00
1.00054560e+00
1.00047747e+00
1.00041764e+00
1.00037039e+00
1.00033801e+00
9.99888931e-01
9.99842919e-01
9.99771573e-01
9.99679312e-01
9.99573486e-01
9.99462253e-01
9.99353794e-01
9.99255266e-01
9.99172265e-01
9.99108491e-01
9.99065804e-01
9.99044443e-01
9.99043363e-01
9.99060494e-01
9.99093103e-01
9.99138128e-01
9.99192371e-01
9.99252684e-01
9.99316223e-01
9.99380573e-01
9.99443787e-01
9.99504500e-01
9.99561955e-01
9.99615890e-01
9.99666449e-01
9.99714091e-01
9.99759418e-01
9.99803020e-01
9.99845401e-01
9.99886924e-01
9.99927781e-01
9.99968035e-01
1.00000770e+00
1.00004685e+00
1.00008565e+00
1.00012452e+00
1.00016406e+00
1.00020514e+00
1.00024876e+00
1.00029593e+00
1.00034755e+00
1.00040419e+00
1.00046592e+00
1.00053222e+00
1.00060186e+00
1.00067292e+00
1.00074286e+00
1.00080871e+00
1.00086725e+00
1.00091523e+00
1.00094973e+00
1.00096837e+00
1.00096947e+00
1.00095235e+00
1.00091740e+00
1.00086609e+00
1.00080104e+00
1.00072591e+00
1.00064526e+00
1.00056423e+00
1.00048821e+00
1.00042206e+00
1.00037009e+00
1.00033440e+00
9.99878664e-01
9.99830045e-01
9.99755095e-01
9.99658104e-01
9.99546380e-01
9.99428136e-01
9.99311641e-01
9.99204187e-01
9.99111537e-01
9.99037666e-01
9.98984790e-01
9.98953495e-01
9.98943124e-01
9.98952079e-01
9.98978028e-01
9.99018208e-01
9.99069716e-01
9.99129583e-01
9.99194926e-01
9.99263191e-01
9.99332222e-01
9.99400281e-01
9.99466169e-01
9.99529241e-01
9.99589267e-01
9.99646359e-01
9.99700897e-01
9.99753359e-01
9.99804189e-01
9.99853772e-01
9.99902399e-01
9.99950260e-01
9.99997521e-01
1.00004442e+00
1.00009131e+00
1.00013874e+00
1.00018747e+00
1.00023842e+00
1.00029258e+00
1.00035087e+00
1.00041399e+00
1.00048218e+00
1.00055513e+00
1.00063189e+00
1.00071074e+00
1.00078932e+00
1.00086473e+00
1.00093372e+00
1.00099286e+00
1.00103893e+00
1.00106911e+00
1.00108119e+00
1.00107388e+00
1.00104693e+00
1.00100117e+00
1.00093857e+00
1.00086227e+00
1.00077635e+00
1.00068573e+00
1.00059584e+00
1.00051224e+00
1.00043996e+00
1.00038331e+00
1.00034424e+00
9.99852975e-01
9.99802000e-01
9.99723922e-01
9.99622905e-01
9.99506188e-01
9.99381981e-01
9.99258546e-01
9.99143310e-01
9.99042219e-01
9.98959436e-01
9.98897505e-01
9.98857429e-01
9.98838892e-01
9.98840669e-01
9.98860894e-01
9.98897130e-01
9.98946657e-01
9.99006706e-01
9.99074451e-01
9.99147147e-01
9.99222390e-01
9.99298159e-01
9.99372811e-01
9.99445230e-01
9.99514831e-01
9.99581398e-01
9.99645026e-01
9.99706055e-01
9.99764915e-01
9.99822022e-01
9.99877771e-01
9.99932543e-01
9.99986715e-01
1.00004072e+00
1.00009513e+00
1.00015069e+00
1.00020829e+00
1.00026890e+00
1.00033349e+00
1.00040286e+00
1.00047746e+00
1.00055721e+00
1.00064143e+00
1.00072871e+00
1.00081687e+00
1.00090318e+00
1.00098444e+00
1.00105707e+00
1.00111758e+00
1.00116275e+00
1.00118978e+00
1.00119670e+00
1.00118255e+00
1.00114737e+00
1.00109239e+00
1.00102008e+00
1.00093396e+00
1.00083847e+00
1.00073891e+00
1.00064099e+00
1.00055042e+00
1.00047239e+00
1.00041127e+00
1.00036894e+00
9.99810818e-01
9.99757798e-01