# vtk DataFile Version 2.0
LBM Flow Field - Timestep 200
ASCII
DATASET STRUCTURED_POINTS
DIMENSIONS 64 64 1
ORIGIN 0.0 0.0 0.0
SPACING 1.0 1.0 1.0
POINT_DATA 4096
SCALARS density double 1
LOOKUP_TABLE default
1.00475096e+00
1.00475454e+00
1.00475654e+00
1.00474728e+00
1.00473532e+00
1.00472308e+00
1.00470824e+00
1.00469101e+00
1.00467235e+00
1.00465175e+00
1.00462810e+00
1.00460098e+00
1.00456992e+00
1.00453432e+00
1.00449383e+00
1.00444845e+00
1.00439800e+00
1.00434162e+00
1.00427732e+00
1.00420141e+00
1.00410816e+00
1.00398987e+00
1.00383759e+00
1.00364198e+00
1.00339466e+00
1.00308949e+00
1.00272377e+00
1.00229887e+00
1.00182040e+00
1.00129780e+00
1.00074354e+00
1.00017201e+00
9.99598410e-01
9.99037714e-01
9.98503739e-01
9.98008416e-01
9.97561188e-01
9.97168541e-01
9.96833697e-01
9.96556538e-01
9.96333815e-01
9.96159663e-01
9.96026391e-01
9.95925493e-01
9.95848632e-01
9.95788460e-01
9.95739209e-01
9.95696967e-01
9.95659439e-01
9.95625542e-01
9.95595019e-01
9.95567955e-01
9.95544230e-01
9.95523501e-01
9.95505450e-01
9.95489729e-01
9.95475337e-01
9.95461771e-01
9.95449818e-01
9.95439752e-01
9.95429619e-01
9.95421598e-01
9.95422952e-01
9.95425652e-01
1.00475601e+00
1.00475356e+00
1.00475098e+00
1.00474270e+00
1.00473175e+00
1.00471927e+00
1.00470440e+00
1.00468745e+00
1.00466837e+00
1.00464706e+00
1.00462284e+00
1.00459530e+00
1.00456388e+00
1.00452813e+00
1.00448756e+00
1.00444173e+00
1.00438993e+00
1.00433085e+00
1.00426212e+00
1.00418004e+00
1.00407930e+00
1.00395312e+00
1.00379363e+00
1.00359271e+00
1.00334290e+00
1.00303860e+00
1.00267700e+00
1.00225890e+00
1.00178902e+00
1.00127589e+00
1.00073125e+00
1.00016908e+00
9.99604509e-01
9.99052569e-01
9.98527124e-01
9.98039954e-01
9.97600081e-01
9.97213358e-01
9.96882323e-01
9.96606327e-01
9.96381922e-01
9.96203480e-01
9.96063974e-01
9.95955825e-01
9.95871688e-01
9.95805097e-01
9.95750872e-01
9.95705268e-01
9.95665817e-01
9.95631093e-01
9.95600347e-01
9.95573205e-01
9.95549288e-01
9.95528291e-01
9.95509765e-01
9.95493394e-01
9.95478536e-01
9.95465147e-01
9.95453133e-01
9.95442914e-01
9.95433618e-01
9.95426491e-01
9.95423780e-01
9.95421198e-01
1.00476049e+00
1.00475282e+00
1.00474209e+00
1.00473514e+00
1.00472604e+00
1.00471243e+00
1.00469699e+00
1.00468022e+00
1.00466081e+00
1.00463866e+00
1.00461393e+00
1.00458604e+00
1.00455428e+00
1.00451817e+00
1.00447710e+00
1.00443011e+00
1.00437597e+00
1.00431294e+00
1.00423843e+00
1.00414876e+00
1.00403916e+00
1.00390382e+00
1.00373611e+00
1.00352916e+00
1.00327656e+00
1.00297328e+00
1.00261649e+00
1.00220646e+00
1.00174701e+00
1.00124568e+00
1.00071338e+00
1.00016355e+00
9.99611092e-01
9.99070965e-01
9.98556945e-01
9.98080539e-01
9.97650239e-01
9.97271173e-01
9.96945125e-01
9.96670886e-01
9.96444823e-01
9.96261608e-01
9.96114965e-01
9.95998349e-01
9.95905535e-01
9.95831069e-01
9.95770455e-01
9.95720176e-01
9.95677700e-01
9.95641328e-01
9.95609824e-01
9.95582274e-01
9.95558094e-01
9.95536861e-01
9.95517925e-01
9.95500798e-01
9.95485588e-01
9.95472249e-01
9.95459697e-01
9.95448468e-01
9.95440809e-01
9.95434631e-01
9.95424758e-01
9.95417409e-01
1.00475447e+00
1.00474668e+00
1.00473662e+00
1.00472722e+00
1.00471605e+00
1.00470300e+00
1.00468784e+00
1.00467019e+00
1.00465023e+00
1.00462786e+00
1.00460266e+00
1.00457416e+00
1.00454191e+00
1.00450517e+00
1.00446295e+00
1.00441397e+00
1.00435649e+00
1.00428820e+00
1.00420617e+00
1.00410679e+00
1.00398576e+00
1.00383826e+00
1.00365907e+00
1.00344292e+00
1.00318489e+00
1.00288098e+00
1.00252883e+00
1.00212846e+00
1.00168290e+00
1.00119855e+00
1.00068508e+00
1.00015488e+00
9.99621943e-01
9.99100560e-01
9.98603889e-01
9.98142781e-01
9.97724993e-01
9.97354893e-01
9.97033647e-01
9.96759743e-01
9.96529725e-01
9.96338939e-01
9.96182202e-01
9.96054310e-01
9.95950361e-01
9.95865941e-01
9.95797212e-01
9.95740932e-01
9.95694435e-01
9.95655561e-01
9.95622622e-01
9.95594329e-01
9.95569680e-01
9.95547921e-01
9.95528590e-01
9.95511243e-01
9.95495521e-01
9.95481362e-01
9.95469010e-01
9.95458180e-01
9.95448684e-01
9.95440257e-01
9.95430845e-01
9.95423130e-01
1.00474477e+00
1.00473703e+00
1.00472828e+00
1.00471669e+00
1.00470427e+00
1.00469152e+00
1.00467590e+00
1.00465739e+00
1.00463696e+00
1.00461415e+00
1.00458827e+00
1.00455907e+00
1.00452607e+00
1.00448818e+00
1.00444398e+00
1.00439175e+00
1.00432923e+00
1.00425358e+00
1.00416167e+00
1.00405007e+00
1.00391519e+00
1.00375336e+00
1.00356094e+00
1.00333439e+00
1.00307038e+00
1.00276609e+00
1.00241971e+00
1.00203111e+00
1.00160252e+00
1.00113915e+00
1.00064927e+00
1.00014389e+00
9.99635803e-01
9.99138232e-01
9.98663410e-01
9.98221300e-01
9.97818793e-01
9.97459477e-01
9.97143950e-01
9.96870507e-01
9.96635985e-01
9.96436531e-01
9.96268168e-01
9.96127125e-01
9.96009929e-01
9.95913340e-01
9.95834320e-01
9.95770031e-01
9.95717775e-01
9.95675036e-01
9.95639681e-01
9.95609993e-01
9.95584512e-01
9.95562084e-01
9.95542153e-01
9.95524417e-01
9.95508254e-01
9.95493316e-01
9.95480499e-01
9.95469838e-01
9.95459143e-01
9.95448721e-01
9.95440354e-01
9.95432662e-01
1.00473310e+00
1.00472460e+00
1.00471452e+00
1.00470327e+00
1.00469103e+00
1.00467668e+00
1.00466006e+00
1.00464155e+00
1.00462058e+00
1.00459685e+00
1.00457029e+00
1.00454031e+00
1.00450588e+00
1.00446577e+00
1.00441828e+00
1.00436113e+00
1.00429161e+00
1.00420673e+00
1.00410331e+00
1.00397821e+00
1.00382855e+00
1.00365181e+00
1.00344580e+00
1.00320858e+00
1.00293838e+00
1.00263366e+00
1.00229339e+00
1.00191759e+00
1.00150798e+00
1.00106866e+00
1.00060645e+00
1.00013066e+00
9.99652378e-01
9.99183285e-01
9.98734227e-01
9.98314008e-01
9.97928593e-01
9.97580928e-01
9.97271310e-01
9.96998137e-01
9.96758778e-01
9.96550313e-01
9.96369989e-01
9.96215364e-01
9.96084244e-01
9.95974503e-01
9.95883899e-01
9.95809986e-01
9.95750183e-01
9.95701923e-01
9.95662743e-01
9.95630428e-01
9.95603248e-01
9.95579886e-01
9.95559233e-01
9.95540652e-01
9.95524011e-01
9.95509054e-01
9.95495328e-01
9.95483202e-01
9.95472550e-01
9.95462336e-01
9.95452754e-01
9.95444395e-01
1.00471718e+00
1.00470850e+00
1.00469767e+00
1.00468649e+00
1.00467375e+00
1.00465838e+00
1.00464129e+00
1.00462221e+00
1.00460042e+00
1.00457597e+00
1.00454856e+00
1.00451718e+00
1.00448057e+00
1.00443718e+00
1.00438488e+00
1.00432099e+00
1.00424259e+00
1.00414667e+00
1.00403025e+00
1.00389069e+00
1.00372591e+00
1.00353442e+00
1.00331532e+00
1.00306806e+00
1.00279228e+00
1.00248769e+00
1.00215415e+00
1.00179204e+00
1.00140287e+00
1.00098984e+00
1.00055829e+00
1.00011567e+00
9.99671011e-01
9.99233991e-01
9.98813700e-01
9.98417555e-01
9.98050588e-01
9.97715271e-01
9.97411880e-01
9.97139203e-01
9.96895330e-01
9.96678305e-01
9.96486493e-01
9.96318610e-01
9.96173546e-01
9.96050129e-01
9.95946882e-01
9.95861887e-01
9.95792859e-01
9.95737319e-01
9.95692702e-01
9.95656528e-01
9.95626710e-01
9.95601642e-01
9.95579962e-01
9.95560615e-01
9.95543216e-01
9.95527749e-01
9.95513567e-01
9.95500501e-01
9.95489332e-01
9.95479126e-01
9.95468801e-01
9.95460210e-01
1.00469727e+00
1.00468879e+00
1.00467810e+00
1.00466598e+00
1.00465234e+00
1.00463690e+00
1.00461924e+00
1.00459907e+00
1.00457660e+00
1.00455144e+00
1.00452256e+00
1.00448894e+00
1.00444914e+00
1.00440103e+00
1.00434205e+00
1.00426949e+00
1.00418044e+00
1.00407204e+00
1.00394175e+00
1.00378759e+00
1.00360825e+00
1.00340313e+00
1.00317230e+00
1.00291634e+00
1.00263606e+00
1.00233231e+00
1.00200596e+00
1.00165805e+00
1.00129016e+00
1.00090486e+00
1.00050610e+00
1.00009933e+00
9.99691224e-01
9.99289031e-01
9.98899725e-01
9.98529144e-01
9.98181410e-01
9.97858746e-01
9.97561737e-01
9.97289869e-01
9.97042153e-01
9.96817618e-01
9.96615573e-01
9.96435625e-01
9.96277479e-01
9.96140674e-01
9.96024377e-01
9.95927285e-01
9.95847577e-01
9.95782996e-01
9.95731113e-01
9.95689530e-01
9.95655882e-01
9.95628063e-01
9.95604585e-01
9.95584320e-01
9.95566179e-01
9.95549690e-01
9.95534980e-01
9.95521816e-01
9.95509808e-01
9.95498716e-01
9.95488429e-01
9.95479903e-01
1.00467451e+00
1.00466561e+00
1.00465457e+00
1.00464186e+00
1.00462771e+00
1.00461172e+00
1.00459324e+00
1.00457237e+00
1.00454906e+00
1.00452244e+00
1.00449142e+00
1.00445465e+00
1.00441018e+00
1.00435553e+00
1.00428807e+00
1.00420505e+00
1.00410380e+00
1.00398193e+00
1.00383755e+00
1.00366938e+00
1.00347678e+00
1.00325986e+00
1.00301939e+00
1.00275671e+00
1.00247350e+00
1.00217166e+00
1.00185311e+00
1.00151974e+00
1.00117349e+00
1.00081657e+00
1.00045169e+00
1.00008226e+00
9.99712382e-01
9.99346608e-01
9.98989533e-01
9.98645287e-01
9.98317132e-01
9.98007265e-01
9.97716883e-01
9.97446441e-01
9.97196008e-01
9.96965570e-01
9.96755196e-01
9.96565064e-01
9.96395366e-01
9.96246126e-01
9.96117028e-01
9.96007320e-01
9.95915762e-01
9.95840614e-01
9.95779778e-01
9.95730981e-01
9.95691890e-01
9.95660227e-01
9.95634073e-01
9.95611994e-01
9.95592798e-01
9.95575537e-01
9.95560034e-01
9.95546338e-01
9.95533841e-01
9.95522181e-01
9.95511516e-01
9.95502553e-01
1.00464844e+00
1.00463886e+00
1.00462701e+00
1.00461406e+00
1.00459946e+00
1.00458254e+00
1.00456333e+00
1.00454175e+00
1.00451699e+00
1.00448813e+00
1.00445402e+00
1.00441269e+00
1.00436177e+00
1.00429879e+00
1.00422114e+00
1.00412623e+00
1.00401185e+00
1.00387632e+00
1.00371844e+00
1.00353756e+00
1.00333365e+00
1.00310727e+00
1.00285958e+00
1.00259236e+00
1.00230799e+00
1.00200925e+00
1.00169913e+00
1.00138050e+00
1.00105591e+00
1.00072741e+00
1.00039665e+00
1.00006504e+00
9.99733995e-01
9.99405232e-01
9.99080803e-01
9.98763065e-01
9.98454487e-01
9.98157420e-01
9.97873917e-01
9.97605622e-01
9.97353769e-01
9.97119260e-01
9.96902754e-01
9.96704741e-01
9.96525581e-01
9.96365515e-01
9.96224576e-01
9.96102480e-01
9.95998563e-01
9.95911757e-01
9.95840507e-01
9.95782807e-01
9.95736512e-01
9.95699478e-01
9.95669499e-01
9.95644619e-01
9.95623583e-01
9.95605353e-01
9.95589016e-01
9.95574409e-01
9.95561476e-01
9.95549578e-01
9.95538183e-01
9.95528596e-01
1.00461810e+00
1.00460799e+00
1.00459562e+00
1.00458220e+00
1.00456692e+00
1.00454932e+00
1.00452926e+00
1.00450625e+00
1.00447937e+00
1.00444745e+00
1.00440876e+00
1.00436108e+00
1.00430201e+00
1.00422904e+00
1.00413974e+00
1.00403204e+00
1.00390440e+00
1.00375581e+00
1.00358574e+00
1.00339414e+00
1.00318134e+00
1.00294811e+00
1.00269575e+00
1.00242631e+00
1.00214262e+00
1.00184827e+00
1.00154728e+00
1.00124358e+00
1.00094042e+00
1.00063987e+00
1.00034266e+00
1.00004828e+00
9.99755572e-01
9.99463365e-01
9.99171169e-01
9.98879570e-01
9.98590310e-01
9.98306019e-01
9.98029744e-01
9.97764444e-01
9.97512587e-01
9.97275948e-01
9.97055633e-01
9.96852245e-01
9.96666082e-01
9.96497328e-01
9.96346139e-01
9.96212601e-01
9.96096583e-01
9.95997627e-01
9.95914838e-01
9.95846818e-01
9.95791737e-01
9.95747540e-01
9.95712125e-01
9.95683398e-01
9.95659634e-01
9.95639532e-01
9.95622078e-01
9.95606663e-01
9.95593069e-01
9.95580741e-01
9.95568921e-01
9.95558906e-01
1.00458312e+00
1.00457258e+00
1.00455987e+00
1.00454585e+00
1.00452988e+00
1.00451151e+00
1.00449009e+00
1.00446489e+00
1.00443495e+00
1.00439855e+00
1.00435358e+00
1.00429783e+00
1.00422896e+00
1.00414462e+00
1.00404286e+00
1.00392233e+00
1.00378214e+00
1.00362192e+00
1.00344172e+00
1.00324185e+00
1.00302278e+00
1.00278529e+00
1.00253069e+00
1.00226113e+00
1.00197986e+00
1.00169117e+00
1.00140008e+00
1.00111151e+00
1.00082943e+00
1.00055600e+00
1.00029113e+00
1.00003258e+00
9.99776752e-01
9.99519773e-01
9.99258716e-01
9.98992481e-01
9.98722129e-01
9.98450604e-01
9.98181983e-01
9.97920556e-01
9.97670032e-01
9.97433052e-01
9.97211107e-01
9.97004786e-01
9.96814176e-01
9.96639219e-01
9.96479968e-01
9.96336656e-01
9.96209566e-01
9.96098786e-01
9.96004056e-01
9.95924686e-01
9.95859401e-01
9.95806425e-01
9.95763857e-01
9.95729743e-01
9.95702077e-01
9.95679137e-01
9.95659867e-01
9.95643396e-01
9.95629038e-01
9.95616135e-01
9.95604063e-01
9.95593791e-01
1.00454306e+00
1.00453215e+00
1.00451907e+00
1.00450457e+00
1.00448787e+00
1.00446813e+00
1.00444463e+00
1.00441639e+00
1.00438195e+00
1.00433932e+00
1.00428641e+00
1.00422100e+00
1.00414095e+00
1.00404447e+00
1.00393031e+00
1.00379774e+00
1.00364653e+00
1.00347687e+00
1.00328913e+00
1.00308368e+00
1.00286096e+00
1.00262162e+00
1.00236690e+00
1.00209906e+00
1.00182175e+00
1.00153996e+00
1.00125956e+00
1.00098638e+00
1.00072498e+00
1.00047757e+00
1.00024332e+00
1.00001847e+00
9.99797257e-01
9.99573419e-01
9.99341836e-01
9.99099865e-01
9.98847922e-01
9.98589207e-01
9.98328738e-01
9.98072060e-01
9.97824068e-01
9.97588266e-01
9.97366557e-01
9.97159512e-01
9.96966924e-01
9.96788380e-01
9.96623649e-01
9.96472863e-01
9.96336463e-01
9.96214982e-01
9.96108736e-01
9.96017641e-01
9.95941112e-01
9.95878012e-01
9.95826739e-01
9.95785463e-01
9.95752338e-01
9.95725496e-01
9.95703475e-01
9.95685168e-01
9.95669843e-01
9.95656380e-01
9.95643980e-01
9.95633506e-01
1.00449733e+00
1.00448625e+00
1.00447280e+00
1.00445768e+00
1.00443988e+00
1.00441804e+00
1.00439147e+00
1.00435879e+00
1.00431820e+00
1.00426766e+00
1.00420522e+00
1.00412886e+00
1.00403696e+00
1.00392845e+00
1.00380277e+00
1.00365983e+00
1.00349995e+00
1.00332360e+00
1.00313114e+00
1.00292281e+00
1.00269882e+00
1.00245964e+00
1.00220647e+00
1.00194181e+00
1.00166976e+00
1.00139599e+00
1.00112713e+00
1.00086966e+00
1.00062854e+00
1.00040589e+00
1.00020019e+00
1.00000639e+00
9.99816937e-01
9.99623590e-01
9.99419397e-01
9.99200375e-01
9.98966307e-01
9.98720512e-01
9.98468741e-01
9.98217617e-01
9.97973137e-01
9.97739669e-01
9.97519605e-01
9.97313608e-01
9.97121226e-01
9.96941621e-01
9.96774141e-01
9.96618607e-01
9.96475348e-01
9.96345066e-01
9.96228510e-01
9.96126172e-01
9.96038116e-01
9.95963933e-01
9.95902592e-01
9.95852600e-01
9.95812362e-01
9.95780119e-01
9.95754164e-01
9.95733102e-01
9.95716225e-01
9.95701897e-01
9.95689000e-01
9.95678388e-01
1.00444562e+00
1.00443442e+00
1.00442048e+00
1.00440428e+00
1.00438465e+00
1.00435977e+00
1.00432877e+00
1.00428995e+00
1.00424153e+00
1.00418159e+00
1.00410835e+00
1.00402040e+00
1.00391683e+00
1.00379729e+00
1.00366186e+00
1.00351105e+00
1.00334541e+00
1.00316534e+00
1.00297099e+00
1.00276223e+00
1.00253895e+00
1.00230145e+00
1.00205106e+00
1.00179067e+00
1.00152496e+00
1.00126024e+00
1.00100374e+00
1.00076236e+00
1.00054113e+00
1.00034189e+00
1.00016245e+00
9.99996698e-01
9.99835741e-01
9.99669851e-01
9.99490683e-01
9.99293147e-01
9.99076394e-01
9.98843671e-01
9.98601167e-01
9.98356316e-01
9.98116083e-01
9.97885716e-01
9.97668221e-01
9.97464524e-01
9.97274081e-01
9.97095667e-01
9.96928103e-01
9.96770717e-01
9.96623492e-01
9.96486989e-01
9.96362119e-01
9.96249848e-01
9.96150836e-01
9.96065321e-01
9.95993007e-01
9.95933062e-01
9.95884197e-01
9.95844874e-01
9.95813533e-01
9.95788589e-01
9.95769165e-01
9.95753278e-01
9.95739519e-01
9.95728591e-01
1.00438794e+00
1.00437630e+00
1.00436129e+00
1.00434328e+00
1.00432070e+00
1.00429139e+00
1.00425432e+00
1.00420773e+00
1.00414996e+00
1.00407942e+00
1.00399483e+00
1.00389556e+00
1.00378142e+00
1.00365275e+00
1.00351021e+00
1.00335455e+00
1.00318627e+00
1.00300546e+00
1.00281177e+00
1.00260458e+00
1.00238344e+00
1.00214864e+00
1.00190184e+00
1.00164650e+00
1.00138799e+00
1.00113327e+00
1.00088996e+00
1.00066503e+00
1.00046330e+00
1.00028609e+00
1.00013052e+00
9.99989651e-01
9.99853717e-01
9.99712055e-01
9.99555393e-01
9.99377798e-01
9.99177783e-01
9.98958287e-01
9.98725598e-01
9.98487643e-01
9.98252164e-01
9.98025297e-01
9.97810818e-01
9.97610129e-01
9.97422797e-01
9.97247353e-01
9.97082085e-01
9.96925676e-01
9.96777536e-01
9.96637842e-01
9.96507374e-01
9.96387285e-01
9.96278717e-01
9.96182536e-01
9.96099135e-01
9.96028439e-01
9.95969719e-01
9.95921858e-01
9.95883538e-01
9.95853200e-01
9.95829900e-01
9.95811465e-01
9.95796008e-01
9.95784150e-01
1.00432418e+00
1.00431132e+00
1.00429420e+00
1.00427325e+00
1.00424624e+00
1.00421078e+00
1.00416597e+00
1.00411016e+00
1.00404193e+00
1.00396029e+00
1.00386472e+00
1.00375532e+00
1.00363263e+00
1.00349756e+00
1.00335108e+00
1.00319386e+00
1.00302604e+00
1.00284714e+00
1.00265615e+00
1.00245193e+00
1.00223382e+00
1.00200228e+00
1.00175952e+00
1.00150977e+00
1.00125921e+00
1.00101536e+00
1.00078601e+00
1.00057790e+00
1.00039526e+00
1.00023867e+00
1.00010455e+00
9.99985390e-01
9.99870985e-01
9.99750287e-01
9.99613567e-01
9.99454323e-01
9.99270429e-01
9.99064275e-01
9.98841890e-01
9.98611349e-01
9.98380960e-01
9.98157704e-01
9.97946272e-01
9.97748788e-01
9.97565175e-01
9.97393897e-01
9.97232808e-01
9.97079898e-01
9.96933821e-01
9.96794136e-01
9.96661238e-01
9.96536168e-01
9.96420291e-01
9.96314995e-01
9.96221297e-01
9.96139817e-01
9.96070551e-01
9.96013025e-01
9.95966211e-01
9.95928805e-01
9.95900012e-01
9.95877711e-01
9.95859331e-01
9.95845517e-01
1.00425369e+00
1.00423845e+00
1.00421789e+00
1.00419245e+00
1.00415915e+00
1.00411586e+00
1.00406181e+00
1.00399571e+00
1.00391663e+00
1.00382435e+00
1.00371911e+00
1.00360174e+00
1.00347336e+00
1.00333521e+00
1.00318818e+00
1.00303260e+00
1.00286797e+00
1.00269306e+00
1.00250615e+00
1.00230568e+00
1.00209096e+00
1.00186287e+00
1.00162438e+00
1.00138068e+00
1.00113876e+00
1.00090660e+00
1.00069193e+00
1.00050091e+00
1.00033688e+00
1.00019951e+00
1.00008448e+00
9.99983954e-01
9.99887711e-01
9.99784813e-01
9.99665522e-01
9.99523018e-01
9.99354558e-01
9.99161777e-01
9.98950097e-01
9.98727398e-01
9.98502315e-01
9.98282604e-01
9.98073954e-01
9.97879438e-01
9.97699605e-01
9.97533080e-01
9.97377428e-01
9.97230008e-01
9.97088650e-01
9.96952092e-01
9.96820107e-01
9.96693372e-01
9.96573181e-01
9.96461169e-01
9.96358859e-01
9.96267507e-01
9.96187785e-01
9.96119943e-01
9.96063456e-01
9.96017490e-01
9.95981441e-01
9.95953684e-01
9.95931037e-01
9.95914009e-01
1.00417492e+00
1.00415590e+00
1.00413046e+00
1.00409882e+00
1.00405736e+00
1.00400477e+00
1.00394042e+00
1.00386369e+00
1.00377431e+00
1.00367284e+00
1.00356021e+00
1.00343786e+00
1.00330724e+00
1.00316953e+00
1.00302528e+00
1.00287415e+00
1.00271484e+00
1.00254526e+00
1.00236311e+00
1.00216658e+00
1.00195519e+00
1.00173048e+00
1.00149642e+00
1.00125921e+00
1.00102663e+00
1.00080694e+00
1.00060756e+00
1.00043379e+00
1.00028782e+00
1.00016823e+00
1.00007004e+00
9.99985280e-01
9.99904070e-01
9.99816016e-01
9.99711751e-01
9.99584381e-01
9.99430578e-01
9.99251070e-01
9.99050386e-01
9.98835885e-01
9.98616272e-01
9.98399961e-01
9.98193676e-01
9.98001591e-01
9.97825130e-01
9.97663351e-01
9.97513739e-01
9.97373142e-01
9.97238607e-01
9.97107967e-01
9.96980162e-01
9.96855262e-01
9.96734227e-01
9.96618630e-01
9.96510247e-01
9.96410836e-01
9.96321644e-01
9.96243615e-01
9.96176876e-01
9.96121268e-01
9.96076443e-01
9.96041744e-01
9.96013603e-01
9.95992093e-01
1.00408501e+00
1.00406090e+00
1.00402931e+00
1.00399000e+00
1.00393897e+00
1.00387614e+00
1.00380126e+00
1.00371453e+00
1.00361638e+00
1.00350813e+00
1.00339124e+00
1.00326748e+00
1.00313826e+00
1.00300443e+00
1.00286587e+00
1.00272137e+00
1.00256870e+00
1.00240504e+00
1.00222765e+00
1.00203473e+00
1.00182630e+00
1.00160483e+00
1.00137537e+00
1.00114517e+00
1.00092267e+00
1.00071622e+00
1.00053263e+00
1.00037610e+00
1.00024751e+00
1.00014428e+00
1.00006081e+00
9.99989208e-01
9.99920221e-01
9.99844333e-01
9.99752853e-01
9.99639026e-01
9.99499004e-01
9.99332517e-01
9.99142991e-01
9.98936989e-01
9.98723023e-01
9.98509993e-01
9.98305620e-01
9.98115275e-01
9.97941450e-01
9.97783898e-01
9.97640289e-01
9.97507157e-01
9.97380869e-01
9.97258374e-01
9.97137677e-01
9.97018016e-01
9.96899764e-01
9.96784166e-01
9.96672949e-01
9.96568104e-01
9.96471345e-01
9.96384232e-01
9.96307544e-01
9.96241942e-01
9.96187534e-01
9.96144952e-01
9.96110526e-01
9.96083625e-01
1.00397955e+00
1.00394963e+00
1.00391130e+00
1.00386355e+00
1.00380244e+00
1.00372943e+00
1.00364484e+00
1.00354980e+00
1.00344543e+00
1.00333359e+00
1.00321611e+00
1.00309470e+00
1.00297042e+00
1.00284347e+00
1.00271282e+00
1.00257630e+00
1.00243080e+00
1.00227290e+00
1.00209970e+00
1.00190971e+00
1.00170375e+00
1.00148539e+00
1.00126084e+00
1.00103831e+00
1.00082670e+00
1.00063418e+00
1.00046675e+00
1.00032729e+00
1.00021526e+00
1.00012695e+00
1.00005625e+00
9.99995489e-01
9.99936277e-01
9.99870200e-01
9.99789464e-01
9.99687621e-01
9.99560406e-01
9.99406532e-01
9.99228194e-01
9.99030945e-01
9.98822857e-01
9.98613097e-01
9.98410267e-01
9.98220950e-01
9.98048850e-01
9.97894638e-01
9.97756442e-01
9.97630745e-01
9.97513411e-01
9.97400584e-01
9.97289329e-01
9.97177929e-01
9.97065946e-01
9.96954038e-01
9.96843633e-01
9.96736662e-01
9.96635110e-01
9.96541033e-01
9.96455834e-01
9.96381031e-01
9.96317345e-01
9.96266865e-01
9.96226252e-01
9.96193841e-01
1.00385289e+00
1.00381743e+00
1.00377290e+00
1.00371708e+00
1.00364674e+00
1.00356500e+00
1.00347283e+00
1.00337226e+00
1.00326504e+00
1.00315338e+00
1.00303913e+00
1.00292364e+00
1.00280736e+00
1.00268956e+00
1.00256821e+00
1.00244015e+00
1.00230156e+00
1.00214866e+00
1.00197867e+00
1.00179076e+00
1.00158679e+00
1.00137153e+00
1.00115237e+00
1.00093830e+00
1.00073843e+00
1.00056049e+00
1.00040940e+00
1.00028664e+00
1.00019023e+00
1.00011542e+00
1.00005570e+00
1.00000379e+00
9.99952287e-01
9.99894012e-01
9.99822199e-01
9.99730846e-01
9.99615380e-01
9.99473567e-01
9.99306324e-01
9.99118043e-01
9.98916135e-01
9.98709794e-01
9.98508310e-01
9.98319418e-01
9.98148102e-01
9.97996135e-01
9.97862358e-01
9.97743477e-01
9.97635092e-01
9.97532692e-01
9.97432459e-01
9.97331695e-01
9.97229023e-01
9.97124308e-01
9.97018454e-01
9.96913114e-01
9.96810316e-01
9.96712421e-01
9.96621420e-01
9.96539622e-01
9.96468409e-01
9.96411281e-01
9.96365761e-01
9.96328793e-01
1.00369887e+00
1.00365939e+00
1.00361054e+00
1.00354855e+00
1.00347155e+00
1.00338405e+00
1.00328777e+00
1.00318548e+00
1.00307944e+00
1.00297192e+00
1.00286453e+00
1.00275804e+00
1.00265203e+00
1.00254475e+00
1.00243316e+00
1.00231325e+00
1.00218065e+00
1.00203153e+00
1.00186359e+00
1.00167690e+00
1.00147455e+00
1.00126261e+00
1.00104951e+00
1.00084480e+00
1.00065754e+00
1.00049470e+00
1.00035997e+00
1.00025336e+00
1.00017151e+00
1.00010877e+00
1.00005843e+00
1.00001370e+00
9.99968221e-01
9.99916090e-01
9.99851620e-01
9.99769350e-01
9.99664538e-01
9.99534112e-01
9.99377758e-01
9.99198632e-01
9.99003284e-01
9.98800681e-01
9.98600579e-01
9.98411714e-01
9.98240342e-01
9.98089472e-01
9.97958877e-01
9.97845739e-01
9.97745654e-01
9.97653678e-01
9.97565224e-01
9.97476663e-01
9.97385664e-01
9.97291201e-01
9.97193490e-01
9.97093731e-01
9.96993832e-01
9.96896236e-01
9.96803405e-01
9.96718275e-01
9.96642876e-01
9.96581806e-01
9.96533885e-01
9.96494452e-01
1.00351186e+00
1.00347113e+00
1.00342117e+00
1.00335655e+00
1.00327715e+00
1.00318840e+00
1.00309274e+00
1.00299340e+00
1.00289293e+00
1.00279341e+00
1.00269607e+00
1.00260089e+00
1.00250652e+00
1.00241019e+00
1.00230795e+00
1.00219513e+00
1.00206712e+00
1.00192034e+00
1.00175323e+00
1.00156704e+00
1.00136619e+00
1.00115801e+00
1.00095182e+00
1.00075746e+00
1.00058362e+00
1.00043627e+00
1.00031772e+00
1.00022649e+00
1.00015805e+00
1.00010602e+00
1.00006364e+00
1.00002472e+00
9.99983959e-01
9.99936663e-01
9.99878210e-01
9.99803746e-01
9.99708493e-01
9.99588705e-01
9.99442950e-01
9.99273133e-01
9.99084789e-01
9.98886417e-01
9.98687974e-01
9.98498997e-01
9.98326937e-01
9.98176093e-01
9.98047339e-01
9.97938570e-01
9.97845631e-01
9.97763379e-01
9.97686659e-01
9.97611041e-01
9.97533303e-01
9.97451545e-01
9.97365242e-01
9.97275023e-01
9.97182539e-01
9.97090135e-01
9.97000538e-01
9.96917028e-01
9.96842202e-01
9.96781226e-01
9.96734450e-01
9.96695629e-01
1.00328797e+00
1.00324974e+00
1.00320291e+00
1.00314052e+00
1.00306439e+00
1.00298013e+00
1.00289074e+00
1.00279954e+00
1.00270914e+00
1.00262125e+00
1.00253653e+00
1.00245415e+00
1.00237188e+00
1.00228606e+00
1.00219203e+00
1.00208473e+00
1.00195964e+00
1.00181369e+00
1.00164636e+00
1.00146019e+00
1.00126099e+00
1.00105725e+00
1.00085895e+00
1.00067593e+00
1.00051620e+00
1.00038452e+00
1.00028176e+00
1.00020503e+00
1.00014876e+00
1.00010613e+00
1.00007050e+00
1.00003631e+00
9.99999293e-01
9.99955857e-01
9.99902368e-01
9.99834596e-01
9.99747863e-01
9.99637947e-01
9.99502445e-01
9.99342055e-01
9.99161205e-01
9.98967699e-01
9.98771412e-01
9.98582452e-01
9.98409331e-01
9.98257618e-01
9.98129391e-01
9.98023469e-01
9.97936183e-01
9.97862427e-01
9.97796731e-01
9.97734070e-01
9.97670468e-01
9.97603251e-01
9.97531203e-01
9.97454337e-01
9.97373921e-01
9.97292032e-01
9.97211434e-01
9.97135377e-01
9.97066821e-01
9.97010857e-01
9.96969393e-01
9.96934860e-01
1.00302626e+00
1.00299462e+00
1.00295559e+00
1.00290105e+00
1.00283456e+00
1.00276116e+00
1.00268411e+00
1.00260640e+00
1.00253043e+00
1.00245737e+00
1.00238724e+00
1.00231846e+00
1.00224804e+00
1.00217166e+00
1.00208423e+00
1.00198063e+00
1.00185668e+00
1.00171019e+00
1.00154179e+00
1.00135547e+00
1.00115836e+00
1.00095993e+00
1.00077056e+00
1.00059981e+00
1.00045473e+00
1.00033870e+00
1.00025111e+00
1.00018782e+00
1.00014247e+00
1.00010801e+00
1.00007810e+00
1.00004787e+00
1.00001394e+00
9.99973705e-01
9.99924406e-01
9.99862421e-01
9.99783290e-01
9.99682507e-01
9.99556887e-01
9.99406014e-01
9.99233157e-01
9.99045232e-01
9.98851774e-01
9.98663207e-01
9.98488914e-01
9.98335666e-01
9.98206808e-01
9.98102227e-01
9.98018955e-01
9.97952194e-01
9.97896405e-01
9.97846206e-01
9.97797085e-01
9.97745753e-01
9.97690371e-01
9.97630365e-01
9.97566529e-01
9.97500484e-01
9.97434757e-01
9.97372204e-01
9.97315839e-01
9.97270028e-01
9.97238038e-01
9.97211472e-01
1.00272944e+00
1.00270814e+00
1.00268119e+00
1.00264000e+00
1.00258933e+00
1.00253300e+00
1.00247409e+00
1.00241492e+00
1.00235732e+00
1.00230182e+00
1.00224776e+00
1.00219292e+00
1.00213370e+00
1.00206540e+00
1.00198283e+00
1.00188110e+00
1.00175671e+00
1.00160854e+00
1.00143859e+00
1.00125225e+00
1.00105790e+00
1.00086579e+00
1.00068640e+00
1.00052869e+00
1.00039855e+00
1.00029789e+00
1.00022466e+00
1.00017366e+00
1.00013798e+00
1.00011057e+00
1.00008554e+00
1.00005873e+00
1.00002755e+00
9.99990174e-01
9.99944573e-01
9.99887713e-01
9.99815438e-01
9.99723130e-01
9.99607026e-01
9.99465726e-01
9.99301325e-01
9.99119714e-01
9.98929868e-01
9.98742261e-01
9.98566931e-01
9.98411765e-01
9.98281384e-01
9.98176832e-01
9.98096052e-01
9.98034803e-01
9.97987712e-01
9.97949291e-01
9.97914726e-01
9.97880278e-01
9.97843565e-01
9.97803471e-01
9.97760227e-01
9.97714825e-01
9.97669274e-01
9.97625692e-01
9.97586809e-01
9.97555741e-01
9.97536700e-01
9.97521142e-01
1.00240407e+00
1.00239574e+00
1.00238406e+00
1.00236069e+00
1.00233084e+00
1.00229670e+00
1.00226076e+00
1.00222428e+00
1.00218832e+00
1.00215257e+00
1.00211570e+00
1.00207490e+00
1.00202621e+00
1.00196475e+00
1.00188551e+00
1.00178417e+00
1.00165816e+00
1.00150761e+00
1.00133602e+00
1.00115014e+00
1.00095944e+00
1.00077469e+00
1.00060621e+00
1.00046210e+00
1.00034692e+00
1.00026109e+00
1.00020122e+00
1.00016126e+00
1.00013402e+00
1.00011270e+00
1.00009194e+00
1.00006827e+00
1.00003975e+00
1.00000518e+00
9.99963086e-01
9.99910956e-01
9.99844990e-01
9.99760620e-01
9.99653697e-01
9.99521977e-01
9.99366422e-01
9.99191829e-01
9.99006417e-01
9.98820472e-01
9.98644502e-01
9.98487378e-01
9.98354949e-01
9.98249517e-01
9.98170104e-01
9.98113198e-01
9.98073830e-01
9.98046643e-01
9.98026679e-01
9.98009880e-01
9.97993425e-01
9.97975650e-01
9.97956112e-01
9.97935061e-01
9.97913730e-01
9.97893223e-01
9.97875660e-01
9.97862645e-01
9.97858756e-01
9.97856051e-01
1.00205996e+00
1.00206564e+00
1.00207070e+00
1.00206780e+00
1.00206177e+00
1.00205310e+00
1.00204327e+00
1.00203227e+00
1.00202013e+00
1.00200568e+00
1.00198680e+00
1.00196017e+00
1.00192157e+00
1.00186616e+00
1.00178930e+00
1.00168749e+00
1.00155933e+00
1.00140634e+00
1.00123347e+00
1.00104888e+00
1.00086289e+00
1.00068654e+00
1.00052974e+00
1.00039954e+00
1.00029905e+00
1.00022722e+00
1.00017955e+00
1.00014935e+00
1.00012940e+00
1.00011334e+00
1.00009645e+00
1.00007587e+00
1.00005019e+00
1.00001863e+00
9.99980141e-01
9.99932614e-01
9.99872636e-01
9.99795818e-01
9.99697782e-01
9.99575595e-01
9.99429199e-01
9.99262267e-01
9.99082113e-01
9.98898675e-01
9.98722755e-01
9.98564033e-01
9.98429553e-01
9.98322947e-01
9.98244383e-01
9.98191227e-01
9.98159118e-01
9.98142953e-01
9.98137723e-01
9.98139163e-01
9.98144035e-01
9.98150077e-01
9.98156096e-01
9.98161521e-01
9.98166597e-01
9.98171281e-01
9.98176839e-01
9.98183363e-01
9.98195191e-01
9.98205661e-01
1.00170897e+00
1.00172795e+00
1.00174929e+00
1.00176724e+00
1.00178555e+00
1.00180321e+00
1.00182042e+00
1.00183590e+00
1.00184845e+00
1.00185593e+00
1.00185546e+00
1.00184316e+00
1.00181456e+00
1.00176502e+00
1.00169043e+00
1.00158816e+00
1.00145812e+00
1.00130336e+00
1.00113026e+00
1.00094816e+00
1.00076813e+00
1.00060124e+00
1.00045670e+00
1.00034042e+00
1.00025405e+00
1.00019520e+00
1.00015841e+00
1.00013667e+00
1.00012298e+00
1.00011152e+00
1.00009827e+00
1.00008096e+00
1.00005852e+00
1.00003044e+00
9.99995898e-01
9.99953117e-01
9.99899052e-01
9.99829558e-01
9.99740178e-01
9.99627479e-01
9.99490502e-01
9.99331812e-01
9.99157793e-01
9.98977914e-01
9.98803059e-01
9.98643601e-01
9.98507745e-01
9.98400392e-01
9.98322894e-01
9.98273638e-01
9.98248918e-01
9.98243905e-01
9.98253633e-01
9.98273632e-01
9.98300164e-01
9.98330360e-01
9.98362241e-01
9.98394327e-01
9.98425784e-01
9.98455488e-01
9.98483670e-01
9.98509162e-01
9.98535568e-01
9.98557986e-01
1.00136344e+00
1.00139350e+00
1.00142892e+00
1.00146577e+00
1.00150641e+00
1.00154874e+00
1.00159155e+00
1.00163241e+00
1.00166891e+00
1.00169786e+00
1.00171555e+00
1.00171760e+00
1.00169925e+00
1.00165596e+00
1.00158427e+00
1.00148252e+00
1.00135184e+00
1.00119678e+00
1.00102516e+00
1.00084728e+00
1.00067471e+00
1.00051836e+00
1.00038662e+00
1.00028406e+00
1.00021103e+00
1.00016395e+00
1.00013668e+00
1.00012215e+00
1.00011378e+00
1.00010644e+00
1.00009680e+00
1.00008308e+00
1.00006446e+00
1.00004051e+00
1.00001049e+00
9.99972855e-01
9.99924867e-01
9.99862659e-01
9.99781845e-01
9.99678664e-01
9.99551377e-01
9.99401567e-01
9.99234723e-01
9.99059700e-01
9.98887335e-01
9.98728619e-01
9.98592753e-01
9.98485802e-01
9.98410364e-01
9.98365827e-01
9.98349056e-01
9.98355544e-01
9.98380364e-01
9.98418695e-01
9.98466274e-01
9.98519640e-01
9.98575949e-01
9.98632823e-01
9.98688434e-01
9.98740733e-01
9.98788845e-01
9.98830840e-01
9.98869240e-01
9.98901076e-01
1.00103471e+00
1.00107258e+00