# vtk DataFile Version 2.0
LBM Flow Field - Timestep 540
ASCII
DATASET STRUCTURED_POINTS
DIMENSIONS 128 128 1
ORIGIN 0.0 0.0 0.0
SPACING 1.0 1.0 1.0
POINT_DATA 16384
SCALARS density double 1
LOOKUP_TABLE default
1.31862696e+00
1.30441604e+00
1.28764750e+00
1.27084097e+00
1.25457130e+00
1.23823410e+00
1.22270878e+00
1.20708939e+00
1.19251875e+00
1.17783189e+00
1.16438241e+00
1.15080099e+00
1.13859006e+00
1.12624008e+00
1.11533440e+00
1.10429295e+00
1.09471045e+00
1.08500671e+00
1.07672149e+00
1.06834041e+00
1.06128984e+00
1.05417794e+00
1.04827119e+00
1.04234393e+00
1.03747092e+00
1.03262080e+00
1.02866083e+00
1.02476570e+00
1.02159508e+00
1.01852604e+00
1.01602431e+00
1.01365266e+00
1.01170720e+00
1.00991019e+00
1.00841926e+00
1.00708436e+00
1.00595866e+00
1.00498643e+00
1.00414950e+00
1.00345506e+00
1.00284282e+00
1.00235607e+00
1.00191587e+00
1.00158073e+00
1.00127005e+00
1.00104307e+00
1.00082815e+00
1.00067669e+00
1.00053119e+00
1.00043142e+00
1.00033516e+00
1.00027018e+00
1.00020804e+00
1.00016615e+00
1.00012704e+00
1.00010029e+00
1.00007631e+00
1.00005941e+00
1.00004507e+00
1.00003453e+00
1.00002617e+00
1.00001970e+00
1.00001493e+00
1.00001103e+00
1.00000836e+00
1.00000606e+00
1.00000459e+00
1.00000328e+00
1.00000247e+00
1.00000174e+00
1.00000130e+00
1.00000091e+00
1.00000067e+00
1.00000047e+00
1.00000034e+00
1.00000024e+00
1.00000017e+00
1.00000012e+00
1.00000008e+00
1.00000006e+00
1.00000004e+00
1.00000003e+00
1.00000002e+00
1.00000001e+00
1.00000001e+00
1.00000001e+00
1.00000000e+00
1.00000000e+00
1.00000000e+00
1.00000000e+00
1.00000000e+00
1.00000000e+00
1.00000000e+00
1.00000000e+00
1.00000000e+00
1.00000000e+00
1.00000000e+00
1.00000000e+00
1.00000000e+00
1.00000000e+00
1.00000000e+00
1.00000000e+00
1.00000000e+00
1.00000000e+00
1.00000000e+00
1.00000000e+00
1.00000000e+00
1.00000000e+00
1.00000000e+00
1.00000000e+00
1.00000000e+00
1.00000000e+00
1.00000000e+00
1.00000000e+00
1.00000000e+00
1.00000000e+00
1.00000000e+00
1.00000000e+00
1.00000000e+00
1.00000000e+00
1.00000000e+00
1.00000000e+00
1.00000000e+00
1.00000000e+00
1.00000000e+00
1.00000000e+00
1.00000000e+00
1.00000000e+00
1.11720766e+00
1.09396901e+00
1.07719532e+00
1.07343593e+00
1.06790090e+00
1.06025175e+00
1.05502218e+00
1.04811451e+00
1.04921023e+00
1.04779845e+00
1.04163811e+00
1.04118170e+00
1.04162370e+00
1.04152170e+00
1.04380081e+00
1.04188061e+00
1.04339458e+00
1.04405119e+00
1.04568044e+00
1.04287803e+00
1.04298919e+00
1.04526433e+00
1.04241525e+00
1.03815494e+00
1.04102202e+00
1.04241548e+00
1.04120548e+00
1.04063721e+00
1.03868015e+00
1.04213417e+00
1.04911878e+00
1.05381156e+00
1.05203035e+00
1.05437453e+00
1.05419395e+00
1.04679271e+00
1.03789920e+00
1.04304748e+00
1.05388230e+00
1.05522814e+00
1.04489016e+00
1.03676169e+00
1.04021841e+00
1.05099478e+00
1.05174239e+00
1.04437041e+00
1.04027827e+00
1.04461267e+00
1.04569072e+00
1.04290410e+00
1.04238264e+00
1.04523333e+00
1.04587053e+00
1.04539046e+00
1.04148272e+00
1.04406757e+00
1.04452887e+00
1.04179610e+00
1.04212606e+00
1.04060098e+00
1.04180390e+00
1.04397063e+00
1.03964985e+00
1.04150632e+00
1.03911164e+00
1.04154465e+00
1.04243699e+00
1.03698625e+00
1.03992659e+00
1.04180380e+00
1.03942535e+00
1.04011598e+00
1.04279698e+00
1.03890143e+00
1.03800336e+00
1.04067752e+00
1.04013790e+00
1.03841385e+00
1.04054905e+00
1.03882647e+00
1.03771091e+00
1.03984344e+00
1.03848981e+00
1.03700875e+00
1.03652805e+00
1.03743074e+00
1.03661197e+00
1.03505947e+00
1.03553343e+00
1.03645561e+00
1.03620932e+00
1.03681963e+00
1.03599645e+00
1.03583978e+00
1.03536681e+00
1.03417257e+00
1.03689221e+00
1.03580993e+00
1.03344216e+00
1.03461814e+00
1.03480280e+00
1.03646258e+00
1.03320700e+00
1.03405897e+00
1.03603848e+00
1.03426012e+00
1.03437883e+00
1.03342817e+00
1.03185955e+00
1.03110030e+00
1.03260580e+00
1.03198560e+00
1.03171843e+00
1.03097257e+00
1.03187769e+00
1.03326464e+00
1.03118507e+00
1.03224788e+00
1.03178640e+00
1.03193829e+00
1.02974670e+00
1.02852973e+00
1.03050491e+00
1.03024840e+00
1.02759528e+00
1.02944958e+00
1.02914892e+00
1.02861075e+00
1.09292537e+00
1.09231841e+00
1.08580971e+00
1.07014064e+00
1.05964237e+00
1.06029577e+00
1.06059285e+00
1.04976592e+00
1.04437566e+00
1.04510200e+00
1.04880702e+00
1.04321704e+00
1.03863752e+00
1.04544904e+00
1.04602963e+00
1.04045045e+00
1.04214225e+00
1.04318755e+00
1.04152082e+00
1.04425600e+00
1.04606358e+00
1.04275814e+00
1.04339452e+00
1.04171146e+00
1.04115788e+00
1.03919844e+00
1.04152918e+00
1.03808245e+00
1.03519576e+00
1.03931848e+00
1.04555122e+00
1.05164440e+00
1.05564230e+00
1.05076889e+00
1.04485884e+00
1.04299950e+00
1.04431844e+00
1.05046582e+00
1.05121541e+00
1.04370675e+00
1.04093159e+00
1.04616092e+00
1.05062430e+00
1.04623639e+00
1.04178756e+00
1.04463607e+00
1.04851621e+00
1.04515906e+00
1.04222981e+00
1.04193107e+00
1.04307261e+00
1.04561856e+00
1.04471858e+00
1.04403903e+00
1.04169499e+00
1.04241796e+00
1.04469478e+00
1.04330577e+00
1.03936093e+00
1.04324059e+00
1.03969507e+00
1.04311708e+00
1.04088601e+00
1.04038470e+00
1.04495134e+00
1.03780225e+00
1.04100288e+00
1.04022233e+00
1.03921064e+00
1.04218608e+00
1.04024600e+00
1.03843748e+00
1.04150218e+00
1.04287083e+00
1.03673216e+00
1.03837049e+00
1.03908195e+00
1.03928978e+00
1.03836860e+00
1.03763001e+00
1.03762541e+00
1.03837669e+00
1.03699906e+00
1.03759438e+00
1.03579282e+00
1.03619004e+00
1.03885025e+00
1.03780976e+00
1.03784605e+00
1.03793586e+00
1.03542325e+00
1.03572789e+00
1.03700831e+00
1.03781733e+00
1.03495827e+00
1.03320651e+00
1.03616795e+00
1.03450712e+00
1.03234267e+00
1.03552382e+00
1.03461600e+00
1.03514608e+00
1.03438680e+00
1.03367966e+00
1.03497219e+00
1.03267727e+00
1.03366382e+00
1.03381543e+00
1.03217261e+00
1.03209131e+00
1.03305216e+00
1.03273289e+00
1.03328668e+00
1.03066395e+00
1.03237831e+00
1.03183754e+00
1.03016326e+00
1.03099512e+00
1.02996484e+00
1.03312839e+00
1.03121700e+00
1.02828132e+00
1.02901032e+00
1.03175702e+00
1.02778737e+00
1.02781542e+00
1.02811019e+00
1.02970673e+00
1.08170805e+00
1.09022587e+00
1.08242957e+00
1.06524605e+00
1.05972603e+00
1.06308639e+00
1.05342978e+00
1.04814999e+00
1.04859634e+00
1.04932997e+00
1.04762198e+00
1.03846407e+00
1.03973497e+00
1.04898884e+00
1.04521876e+00
1.03715969e+00
1.03950478e+00
1.04593790e+00
1.04252505e+00
1.03916961e+00
1.04649188e+00
1.04900468e+00
1.04188642e+00
1.03991510e+00
1.04320185e+00
1.04185392e+00
1.03936026e+00
1.03681345e+00
1.03720194e+00
1.04073118e+00
1.04617689e+00
1.04897377e+00
1.05096196e+00
1.04801774e+00
1.04384285e+00
1.04507369e+00
1.05007996e+00
1.04739005e+00
1.04180198e+00
1.04394276e+00
1.05112912e+00
1.04745849e+00
1.04317028e+00
1.04265533e+00
1.04666233e+00
1.04684451e+00
1.04521151e+00
1.04115769e+00
1.04334274e+00
1.04824393e+00
1.04540436e+00
1.04210491e+00
1.04201864e+00
1.04194769e+00
1.04355887e+00
1.04288727e+00
1.04143643e+00
1.04350674e+00
1.04274799e+00
1.04316259e+00
1.04193899e+00
1.04084885e+00
1.04001264e+00
1.03852665e+00
1.04381628e+00
1.04297446e+00
1.03800733e+00
1.04221590e+00
1.04048294e+00
1.03914561e+00
1.04122613e+00
1.04083030e+00
1.03753920e+00
1.04048964e+00
1.04125490e+00
1.04004472e+00
1.03712351e+00
1.03816530e+00
1.03799329e+00
1.03669065e+00
1.03942291e+00
1.03865212e+00
1.03512868e+00
1.03783351e+00
1.03906755e+00
1.03794768e+00
1.03744129e+00
1.03625984e+00
1.03638679e+00
1.03801687e+00
1.03768946e+00
1.03672406e+00
1.03603146e+00
1.03680490e+00
1.03604163e+00
1.03392238e+00
1.03739206e+00
1.03418649e+00
1.03210529e+00
1.03620417e+00
1.03482707e+00
1.03520369e+00
1.03316164e+00
1.03363588e+00
1.03433339e+00
1.03275688e+00
1.03441663e+00
1.03264795e+00
1.03202765e+00
1.03358641e+00
1.03608739e+00
1.03235791e+00
1.03217916e+00
1.03146281e+00
1.03350820e+00
1.03073963e+00
1.02840837e+00
1.03237001e+00
1.03010108e+00
1.03245968e+00
1.02992987e+00
1.02858848e+00
1.02983547e+00
1.03131975e+00
1.02748787e+00
1.02930359e+00
1.02668010e+00
1.02861182e+00
1.08277471e+00
1.07657868e+00
1.06818584e+00
1.06677966e+00
1.06606237e+00
1.05978103e+00
1.05924427e+00
1.06200225e+00
1.04423222e+00
1.04355339e+00
1.05039644e+00
1.04189707e+00
1.03648956e+00
1.04659676e+00
1.04835320e+00
1.03952576e+00
1.04103812e+00
1.04527323e+00
1.04447940e+00
1.04119370e+00
1.04454995e+00
1.04781012e+00
1.04209651e+00
1.04156519e+00
1.04216418e+00
1.04037635e+00
1.04011355e+00
1.03897932e+00
1.04265114e+00
1.04612739e+00
1.04673115e+00
1.04623765e+00
1.04547035e+00
1.04798115e+00
1.04745643e+00
1.04562011e+00
1.04481635e+00
1.04638930e+00
1.04855194e+00
1.04785947e+00
1.04445225e+00
1.04268438e+00
1.04536750e+00
1.04855258e+00
1.04635141e+00
1.04031340e+00
1.04175848e+00
1.04736166e+00
1.04601250e+00
1.04546479e+00
1.04254456e+00
1.04378887e+00
1.04670944e+00
1.04207191e+00
1.03763411e+00
1.04261317e+00
1.04401734e+00
1.04361504e+00
1.04440750e+00
1.04007518e+00
1.04224236e+00
1.04088006e+00
1.04152897e+00
1.04200791e+00
1.03901627e+00
1.04429885e+00
1.03746880e+00
1.04085650e+00
1.04428487e+00
1.04047805e+00
1.03750600e+00
1.04046536e+00
1.04125490e+00
1.03964752e+00
1.03930516e+00
1.03919956e+00
1.03684194e+00
1.03911845e+00
1.04095067e+00
1.03755325e+00
1.03783659e+00
1.03913782e+00
1.03823519e+00
1.03779046e+00
1.03608206e+00
1.03733012e+00
1.03616853e+00
1.03724259e+00
1.03727148e+00
1.03595046e+00
1.03365713e+00
1.03560259e+00
1.03635747e+00
1.03633013e+00
1.03509816e+00
1.03478167e+00
1.03740044e+00
1.03472409e+00
1.03335578e+00
1.03538269e+00
1.03203360e+00
1.03529979e+00
1.03442060e+00
1.03308956e+00
1.03258559e+00
1.03092101e+00
1.03383184e+00
1.03274220e+00
1.03297959e+00
1.03409238e+00
1.03342437e+00
1.03285285e+00
1.03185219e+00
1.03203200e+00
1.03276863e+00
1.03121101e+00
1.02758423e+00
1.03206976e+00
1.02976196e+00
1.03279552e+00
1.03010057e+00
1.02787566e+00
1.03232125e+00
1.03186613e+00
1.02590530e+00
1.02863167e+00
1.02785783e+00
1.02664467e+00
1.08160742e+00
1.06739020e+00
1.06693859e+00
1.06498186e+00
1.05955945e+00
1.06813105e+00
1.07059848e+00
1.05344414e+00
1.04227130e+00
1.04608172e+00
1.04965268e+00
1.04958528e+00
1.03894855e+00
1.04027407e+00
1.04948202e+00
1.04656880e+00
1.04006279e+00
1.04084368e+00
1.04870040e+00
1.04615000e+00
1.04300055e+00
1.04405148e+00
1.04255219e+00
1.04172828e+00
1.04340642e+00
1.04137622e+00
1.04322414e+00
1.04441784e+00
1.04609948e+00
1.04566909e+00
1.04404529e+00
1.04677628e+00
1.04460176e+00
1.04464337e+00
1.04751817e+00
1.04860385e+00
1.04567312e+00
1.04721821e+00
1.04878948e+00
1.04476099e+00
1.04483871e+00
1.04635108e+00
1.04703137e+00
1.04516507e+00
1.04269461e+00
1.04364963e+00
1.04521101e+00
1.04268090e+00
1.03892713e+00
1.04685276e+00
1.04887856e+00
1.04367404e+00
1.04094536e+00
1.04126425e+00
1.04223584e+00
1.04629111e+00
1.04399840e+00
1.03779309e+00
1.04006060e+00
1.04364607e+00
1.04187417e+00
1.04047136e+00
1.03813470e+00
1.04183970e+00
1.04046133e+00
1.04096734e+00
1.04117113e+00
1.03800657e+00
1.04076250e+00
1.04307234e+00
1.04065247e+00
1.03795823e+00
1.03990919e+00
1.03975479e+00
1.03852157e+00
1.04116606e+00
1.03744872e+00
1.03692596e+00
1.03796859e+00
1.04007234e+00
1.04023914e+00
1.03761252e+00
1.03635224e+00
1.03739710e+00
1.03514296e+00
1.03944885e+00
1.03585418e+00
1.03465272e+00
1.03528031e+00
1.03798522e+00
1.03639097e+00
1.03543347e+00
1.03385405e+00
1.03419511e+00
1.03457744e+00
1.03726015e+00
1.03894317e+00
1.03413895e+00
1.03319511e+00
1.03736779e+00
1.03349424e+00
1.03457029e+00
1.03268984e+00
1.03467318e+00
1.03388851e+00
1.03262317e+00
1.03384430e+00
1.03103507e+00
1.03238929e+00
1.03455106e+00
1.03190566e+00
1.03182758e+00
1.03106918e+00
1.03156675e+00
1.03407290e+00
1.03296477e+00
1.03049292e+00
1.03258519e+00
1.02829278e+00
1.03267025e+00
1.03052687e+00
1.02668817e+00
1.03229690e+00
1.03175465e+00
1.02731488e+00
1.02776939e+00
1.02735246e+00
1.02937288e+00
1.06415834e+00
1.06890643e+00
1.07156616e+00
1.06315363e+00
1.06103001e+00
1.06726111e+00
1.06059335e+00
1.05593388e+00
1.05670933e+00
1.05484194e+00
1.04891805e+00
1.04729742e+00
1.04564861e+00
1.04670472e+00
1.04670920e+00
1.04471722e+00
1.04430852e+00
1.04881097e+00
1.04699740e+00
1.04073079e+00
1.04558195e+00
1.04753776e+00
1.04358980e+00
1.04386358e+00
1.04432514e+00
1.04454062e+00
1.04316256e+00
1.04196298e+00
1.04650166e+00
1.04814375e+00
1.04676362e+00
1.04505396e+00
1.04620926e+00
1.04684463e+00
1.04403480e+00
1.04683148e+00
1.04799453e+00
1.04784338e+00
1.04639579e+00
1.04236369e+00
1.04699386e+00
1.04825294e+00
1.04805056e+00
1.04526909e+00
1.04343946e+00
1.04358226e+00
1.04494968e+00
1.04275358e+00
1.04105848e+00
1.04469408e+00
1.04324240e+00
1.04056174e+00
1.04563908e+00
1.04645627e+00
1.04424791e+00
1.03969846e+00
1.04110402e+00
1.04279021e+00
1.04240387e+00
1.04272218e+00
1.03815676e+00
1.04211392e+00
1.04419561e+00
1.04301247e+00
1.04138114e+00
1.03363280e+00
1.03976996e+00
1.04293570e+00
1.04170295e+00
1.03930812e+00
1.04047688e+00
1.03918601e+00
1.03977595e+00
1.04055242e+00
1.03732002e+00
1.03774893e+00
1.03717343e+00
1.04067354e+00
1.03878876e+00
1.03795437e+00
1.03762958e+00
1.03513169e+00
1.03818489e+00
1.04067341e+00
1.03460338e+00
1.03590031e+00
1.03686167e+00
1.03925636e+00
1.03765790e+00
1.03549881e+00
1.03498841e+00
1.03510964e+00
1.03632172e+00
1.03514988e+00
1.03328776e+00
1.03551937e+00
1.03602986e+00
1.03485399e+00
1.03573515e+00
1.03669404e+00
1.02959767e+00
1.03265870e+00
1.03500087e+00
1.03549692e+00
1.03226279e+00
1.03252791e+00
1.03586507e+00
1.03100276e+00
1.03224862e+00
1.03289307e+00
1.03012732e+00
1.03069874e+00
1.03210204e+00
1.03136944e+00
1.03224121e+00
1.02975958e+00
1.03091036e+00
1.03490364e+00
1.02853634e+00
1.03123736e+00
1.02985982e+00
1.02840230e+00
1.03030233e+00
1.02966676e+00
1.02837822e+00
1.03128355e+00
1.02742417e+00
1.02809016e+00
1.05826369e+00
1.06713758e+00
1.06553231e+00
1.07168158e+00
1.06861970e+00
1.05322471e+00
1.05464141e+00
1.06716213e+00
1.06011123e+00
1.04930019e+00
1.05252528e+00
1.05416086e+00
1.04615883e+00
1.04659804e+00
1.05227491e+00
1.05318875e+00
1.04386343e+00
1.04788738e+00
1.04355482e+00
1.04161227e+00
1.05179538e+00
1.04652813e+00
1.04379743e+00
1.04880933e+00
1.04478648e+00
1.04641732e+00
1.04584621e+00
1.04243192e+00
1.04242030e+00
1.04631880e+00
1.04915973e+00
1.04801674e+00
1.04833699e+00
1.04567507e+00
1.04492885e+00
1.04720491e+00
1.04526584e+00
1.04283333e+00
1.04473702e+00
1.04697472e+00
1.05275074e+00
1.04653452e+00
1.04016132e+00
1.04364750e+00
1.04956266e+00
1.04427989e+00
1.04346491e+00
1.04397145e+00
1.04105637e+00
1.04300494e+00
1.04450913e+00
1.04254069e+00
1.04247501e+00
1.03960382e+00
1.04376597e+00
1.04679934e+00
1.04315964e+00
1.04140583e+00
1.04060230e+00
1.03939036e+00
1.04319806e+00
1.04059504e+00
1.03999329e+00
1.03898130e+00
1.04238726e+00
1.04438653e+00
1.03914199e+00
1.03875784e+00
1.03863451e+00
1.03829664e+00
1.04098178e+00
1.04176901e+00
1.03763389e+00
1.03671148e+00
1.04102501e+00
1.04178074e+00
1.03623865e+00
1.03559459e+00
1.03607348e+00
1.03714076e+00
1.04095916e+00
1.03768223e+00
1.03648017e+00
1.03782085e+00
1.03635754e+00
1.03909659e+00
1.03716870e+00
1.03638226e+00
1.03584940e+00
1.03670823e+00
1.03996043e+00
1.03730695e+00
1.03372726e+00
1.03430503e+00
1.03650127e+00
1.03736262e+00
1.03450313e+00
1.03171553e+00
1.03368052e+00
1.03632024e+00
1.03359103e+00
1.03315902e+00
1.03312262e+00
1.03355648e+00
1.03374114e+00
1.03447378e+00
1.03640026e+00
1.02974096e+00
1.03232414e+00
1.03313386e+00
1.03215453e+00
1.03258664e+00
1.03107755e+00
1.03120579e+00
1.03327147e+00
1.03124877e+00
1.02949878e+00
1.03412702e+00
1.02805519e+00
1.03084219e+00
1.02939389e+00
1.02960725e+00
1.03101447e+00
1.02739368e+00
1.02623686e+00
1.03209006e+00
1.03023102e+00
1.02772915e+00
1.06525821e+00
1.05771832e+00
1.06410928e+00
1.08207684e+00
1.06207381e+00
1.04414381e+00
1.05906159e+00
1.07013031e+00
1.06223745e+00
1.05384465e+00
1.05036507e+00
1.05195939e+00
1.05010195e+00
1.05159597e+00
1.05826394e+00
1.05058314e+00
1.03965108e+00
1.05329240e+00
1.04932268e+00
1.04348584e+00
1.04809638e+00
1.04840308e+00
1.04986093e+00
1.05227133e+00
1.04887440e+00
1.04467852e+00
1.04548390e+00
1.04792246e+00
1.04656891e+00
1.04495815e+00
1.04658948e+00
1.04975466e+00
1.04935531e+00
1.04614319e+00
1.04553434e+00
1.04536963e+00
1.04026225e+00
1.04331774e+00
1.05182829e+00
1.04868337e+00
1.04461477e+00
1.04277894e+00
1.04594816e+00
1.04655884e+00
1.04613459e+00
1.03898023e+00
1.04225917e+00
1.04776603e+00
1.04459887e+00
1.04284004e+00
1.04250099e+00
1.04089104e+00
1.04447764e+00
1.04507595e+00
1.03842735e+00
1.04165707e+00
1.04118859e+00
1.04185336e+00
1.04654566e+00
1.03927244e+00
1.03732568e+00
1.03764951e+00
1.04184695e+00
1.04575813e+00
1.03608281e+00
1.04145368e+00
1.03895220e+00
1.04077555e+00
1.04157739e+00
1.04160708e+00
1.03655074e+00
1.03985715e+00
1.04328503e+00
1.03925442e+00
1.03654427e+00
1.03778585e+00
1.03694813e+00
1.04051520e+00
1.04133443e+00
1.03602611e+00
1.03525503e+00
1.03655547e+00
1.04127290e+00
1.03880624e+00
1.03430191e+00
1.03727000e+00
1.03644649e+00
1.03628542e+00
1.03807254e+00
1.03363569e+00
1.03458915e+00
1.03579661e+00
1.03894938e+00
1.03619157e+00
1.03656672e+00
1.03425484e+00
1.03240528e+00
1.03358750e+00
1.03550397e+00
1.03441897e+00
1.03123946e+00
1.03457757e+00
1.03664709e+00
1.03461191e+00
1.03190774e+00
1.03166178e+00
1.03333136e+00
1.03011842e+00
1.03467703e+00
1.03346250e+00
1.02860334e+00
1.03468775e+00
1.03317533e+00
1.03087454e+00
1.02868593e+00
1.03064029e+00
1.03087650e+00
1.03376957e+00
1.02737355e+00
1.03260708e+00
1.03014640e+00
1.02824408e+00
1.03027841e+00
1.02865232e+00
1.02583991e+00
1.02894106e+00
1.02934703e+00
1.02919978e+00
1.06593211e+00
1.06410350e+00
1.07295101e+00
1.06642572e+00
1.05109657e+00
1.05563138e+00
1.06617494e+00
1.06191736e+00
1.05829687e+00
1.05680704e+00
1.05379628e+00
1.05370892e+00
1.05087653e+00
1.05413904e+00
1.05498688e+00
1.05074204e+00
1.05646743e+00
1.05121135e+00
1.03908791e+00
1.04466558e+00
1.05018375e+00
1.05396250e+00
1.04908037e+00
1.04833961e+00
1.05034601e+00
1.04869504e+00
1.04842820e+00
1.04302316e+00
1.04417342e+00
1.04684744e+00
1.05078233e+00
1.04871458e+00
1.05023187e+00
1.04586159e+00
1.04244364e+00
1.04721181e+00
1.04565555e+00
1.04702922e+00
1.04917084e+00
1.04442092e+00
1.04425096e+00
1.05041577e+00
1.04835778e+00
1.04063098e+00
1.04050555e+00
1.04398020e+00
1.04533788e+00
1.04513617e+00
1.04187175e+00
1.04206398e+00
1.04591816e+00
1.04403171e+00
1.04042371e+00
1.04168133e+00
1.03916331e+00
1.04275197e+00
1.04556425e+00
1.04085002e+00
1.03946329e+00
1.04116714e+00
1.04050802e+00
1.04308672e+00
1.03680640e+00
1.04056341e+00
1.03803687e+00
1.04130131e+00
1.04393776e+00
1.04019459e+00
1.03636050e+00
1.04198997e+00
1.04259843e+00
1.03931927e+00
1.03886426e+00
1.03871285e+00
1.03853947e+00
1.04122319e+00
1.03802397e+00
1.03778264e+00
1.03624311e+00
1.03860032e+00
1.04226098e+00
1.03676792e+00
1.03758280e+00
1.03708275e+00
1.03421293e+00
1.03911371e+00
1.03708948e+00
1.03206527e+00
1.03512691e+00
1.03616181e+00
1.03965787e+00
1.03624974e+00
1.03382089e+00
1.03346082e+00
1.03557949e+00
1.03673126e+00
1.03519869e+00
1.03464715e+00
1.03369912e+00
1.03637381e+00
1.03435487e+00
1.03533978e+00
1.03260916e+00
1.03269529e+00
1.03292032e+00
1.03440347e+00
1.03415730e+00
1.02885255e+00
1.03202901e+00
1.03378756e+00
1.03122312e+00
1.03509347e+00
1.03247974e+00
1.03139224e+00
1.03102448e+00
1.02968983e+00
1.03007858e+00
1.03318844e+00
1.02672996e+00
1.03071749e+00
1.03256920e+00
1.02980841e+00
1.02991152e+00
1.02831207e+00
1.02788385e+00
1.02968562e+00
1.02512324e+00
1.02699803e+00
1.05060075e+00
1.06193477e+00
1.07811755e+00
1.06247774e+00
1.04948331e+00
1.06120583e+00
1.06616517e+00
1.06066405e+00
1.05541288e+00
1.05513998e+00
1.06002792e+00
1.05615552e+00
1.04656914e+00
1.05511274e+00
1.05765826e+00
1.05249898e+00
1.05440323e+00
1.05007193e+00
1.04701290e+00
1.04703265e+00
1.04944861e+00
1.05007000e+00
1.04694323e+00
1.05570191e+00
1.05038675e+00
1.04264682e+00
1.04725058e+00
1.04741247e+00
1.04724802e+00
1.04865320e+00
1.04675413e+00
1.04476528e+00
1.04965560e+00
1.04843834e+00
1.04339104e+00
1.04608511e+00
1.04847551e+00
1.04634032e+00
1.04604544e+00
1.04434542e+00
1.04782994e+00
1.04834339e+00
1.04246851e+00
1.04417516e+00
1.04728681e+00
1.04292306e+00
1.03895019e+00
1.04242629e+00
1.04402723e+00
1.04334778e+00
1.04314839e+00
1.04468418e+00
1.04233978e+00
1.04228044e+00
1.04377136e+00
1.03894253e+00
1.03950215e+00
1.04379468e+00
1.04114137e+00
1.04298782e+00
1.03994315e+00
1.04149639e+00
1.04028090e+00
1.04216283e+00
1.04250034e+00
1.03746983e+00
1.03863678e+00
1.04282185e+00
1.04259621e+00
1.04001322e+00
1.03824525e+00
1.03709479e+00
1.03894698e+00
1.04092087e+00
1.03817687e+00
1.03605045e+00
1.03390196e+00
1.04221411e+00
1.03955790e+00
1.03600627e+00
1.03855786e+00
1.03440469e+00
1.03557650e+00
1.03881564e+00
1.03475743e+00
1.03724197e+00
1.03535225e+00
1.03683218e+00
1.03936361e+00
1.03528229e+00
1.03348053e+00
1.03488977e+00
1.03577583e+00
1.03695754e+00
1.03588357e+00
1.03349349e+00
1.03361558e+00
1.03645508e+00
1.03499459e+00
1.03515958e+00
1.03127928e+00
1.03511821e+00
1.03475524e+00
1.03380586e+00
1.03137568e+00
1.03022512e+00
1.03373492e+00
1.03073369e+00
1.03468640e+00
1.03238219e+00
1.03016681e+00
1.03382010e+00
1.03184816e+00
1.03001731e+00
1.03297984e+00
1.02953558e+00
1.02880471e+00
1.03203343e+00
1.02913549e+00
1.03021244e+00
1.02977672e+00
1.02938916e+00
1.03172979e+00
1.02747626e+00
1.02750739e+00
1.03033762e+00
1.02593835e+00
1.02544974e+00
1.05657919e+00
1.06774717e+00
1.06658013e+00
1.06200691e+00
1.05820612e+00
1.06199320e+00
1.06672767e+00
1.06347858e+00
1.04892951e+00
1.05319704e+00
1.06636796e+00
1.05920066e+00
1.04375001e+00
1.04846115e+00
1.06135035e+00
1.05808389e+00
1.04727005e+00
1.05423160e+00
1.04861553e+00
1.03996040e+00
1.05498149e+00
1.05293148e+00
1.04434117e+00
1.05720470e+00
1.04983232e+00
1.04213693e+00
1.05184763e+00
1.04960863e+00
1.04172019e+00
1.04732013e+00
1.05161516e+00
1.04994039e+00
1.04392378e+00
1.04683050e+00
1.04563011e+00
1.04871750e+00
1.04412004e+00
1.04309082e+00
1.04944589e+00
1.05027327e+00
1.04575945e+00
1.04496324e+00
1.04360723e+00
1.04576221e+00
1.04918929e+00
1.04220115e+00
1.04078396e+00
1.04288915e+00
1.04242946e+00
1.04298632e+00
1.04278215e+00
1.04385649e+00
1.04545015e+00
1.04028552e+00
1.04291919e+00
1.04260075e+00
1.03913341e+00
1.04294510e+00
1.04115539e+00
1.03669815e+00
1.04313506e+00
1.04207847e+00
1.04261214e+00
1.03916833e+00
1.03867475e+00
1.04426312e+00
1.03982403e+00
1.03916632e+00
1.03957703e+00
1.03935354e+00
1.03994668e+00
1.04195826e+00
1.03878932e+00
1.03560826e+00
1.03781672e+00
1.04136147e+00
1.03572453e+00
1.03737292e+00
1.03590807e+00
1.03586882e+00
1.04206051e+00
1.03798407e+00
1.03433186e+00
1.03531935e+00
1.03471477e+00
1.04190800e+00
1.03590087e+00
1.03416789e+00
1.03621303e+00
1.03662596e+00
1.03790369e+00
1.03694305e+00
1.03292727e+00
1.03361517e+00
1.03492605e+00
1.03533154e+00
1.03521886e+00
1.03506879e+00
1.03136761e+00
1.03344760e+00
1.03629549e+00
1.03709343e+00
1.03224791e+00
1.03092345e+00
1.03570067e+00
1.03282346e+00
1.03521977e+00
1.02999796e+00
1.03400966e+00
1.03119237e+00
1.03006082e+00
1.03405412e+00
1.03117488e+00
1.02905899e+00
1.03459752e+00
1.03209944e+00
1.02890679e+00
1.02948954e+00
1.02819671e+00
1.03372212e+00
1.03105935e+00
1.02687859e+00
1.03088243e+00
1.02946664e+00
1.02920292e+00
1.02923948e+00
1.02689577e+00
1.02846570e+00
1.06753593e+00
1.07220269e+00
1.06275555e+00
1.05985551e+00
1.06019919e+00
1.06285274e+00
1.06340957e+00
1.05702415e+00
1.04997921e+00
1.06298606e+00
1.06344104e+00
1.04867414e+00
1.05105817e+00
1.06005297e+00
1.05651092e+00
1.04961951e+00
1.04984546e+00
1.05884826e+00
1.04533555e+00
1.04559951e+00
1.05806459e+00
1.04699789e+00
1.04492569e+00
1.06043792e+00
1.05227820e+00
1.04309048e+00
1.04608088e+00
1.04521489e+00
1.04496710e+00
1.05189254e+00
1.05292843e+00
1.04584713e+00
1.04518425e+00
1.04775324e+00
1.04481543e+00
1.04745234e+00
1.04398941e+00
1.04408916e+00
1.04919602e+00
1.04645260e+00
1.04006007e+00
1.05040758e+00
1.05039176e+00
1.04192057e+00
1.04073366e+00
1.04360517e+00
1.04459539e+00
1.04596589e+00
1.03997973e+00
1.04175909e+00
1.04349339e+00
1.04205293e+00
1.04509502e+00
1.04260630e+00
1.04020178e+00
1.04242728e+00
1.04107885e+00
1.04090867e+00
1.04208428e+00
1.03827014e+00
1.04322596e+00
1.03893428e+00
1.03993819e+00
1.04517885e+00
1.03678874e+00
1.04067717e+00
1.03900713e+00
1.03896522e+00
1.03959715e+00
1.04328585e+00
1.03688828e+00
1.03713334e+00
1.03920639e+00
1.03902158e+00
1.03608097e+00
1.04001482e+00
1.03675405e+00
1.04003886e+00
1.03934706e+00
1.03832549e+00
1.03758996e+00
1.03405052e+00
1.03860474e+00
1.04087015e+00
1.03500132e+00
1.03976055e+00
1.03396739e+00
1.03534810e+00
1.04015048e+00
1.03624812e+00
1.03265510e+00
1.03387792e+00
1.03673018e+00
1.03722449e+00
1.03564906e+00
1.03315991e+00
1.03513481e+00
1.03619586e+00
1.03578486e+00
1.03384897e+00
1.03302884e+00
1.03489914e+00
1.03306817e+00
1.03451313e+00
1.03614142e+00
1.03141986e+00
1.03463163e+00
1.03075696e+00
1.03477153e+00
1.03223931e+00
1.02720651e+00
1.03125829e+00
1.03081367e+00
1.03142279e+00
1.03308797e+00
1.03146511e+00
1.02977210e+00
1.03232207e+00
1.02637808e+00
1.03220858e+00
1.02959100e+00
1.02779487e+00
1.02781689e+00
1.02919968e+00
1.03029192e+00
1.02966549e+00
1.02465603e+00
1.02810751e+00
1.06346179e+00
1.06670096e+00
1.07206281e+00
1.05646457e+00
1.05077173e+00
1.06427146e+00
1.06774929e+00
1.05313766e+00
1.05087297e+00
1.06717360e+00
1.06213992e+00
1.04759679e+00
1.05452670e+00
1.05966983e+00
1.04975332e+00
1.04869828e+00
1.06106871e+00
1.05419984e+00
1.04283072e+00
1.05508727e+00
1.05422421e+00
1.04354778e+00
1.05292718e+00
1.06339175e+00
1.04642257e+00
1.04427947e+00
1.04826465e+00
1.04820176e+00
1.04698103e+00
1.04832197e+00
1.05280494e+00
1.04777949e+00
1.04970385e+00
1.04895975e+00
1.04265273e+00
1.04501650e+00
1.04600042e+00
1.04224592e+00
1.04625558e+00
1.04758076e+00
1.04782498e+00
1.04960726e+00
1.04414745e+00
1.03985409e+00
1.04330312e+00
1.04779478e+00
1.04265490e+00
1.04030605e+00
1.04058904e+00
1.04553863e+00
1.04742539e+00
1.04106634e+00
1.03938695e+00
1.04099254e+00
1.04373328e+00
1.04247482e+00
1.04154975e+00
1.04084212e+00
1.04241522e+00
1.04218134e+00
1.03983391e+00
1.04047302e+00
1.03631658e+00
1.04462896e+00
1.04153703e+00
1.03801612e+00
1.04091348e+00
1.04262029e+00
1.03890669e+00
1.04002841e+00
1.03975260e+00
1.03832944e+00
1.03831882e+00
1.03809583e+00
1.03580748e+00
1.04041564e+00
1.03798952e+00
1.03975487e+00
1.03350131e+00
1.03644339e+00
1.04223032e+00
1.03598192e+00
1.03654447e+00
1.03855156e+00
1.03469907e+00
1.03936355e+00
1.03515932e+00
1.03477774e+00
1.03609312e+00
1.03466443e+00
1.03707190e+00
1.03677176e+00
1.03666521e+00
1.03414655e+00
1.03479649e+00
1.03615997e+00
1.03689514e+00
1.03463796e+00
1.03156437e+00
1.03389450e+00
1.03355986e+00
1.03505303e+00
1.02985861e+00
1.03372371e+00
1.03436400e+00
1.03216338e+00
1.03623004e+00
1.03201925e+00
1.03045388e+00
1.03187088e+00
1.03248948e+00
1.03381278e+00
1.02823657e+00
1.03017766e+00
1.03440673e+00
1.03173028e+00
1.02791509e+00
1.03357337e+00
1.02788454e+00
1.03134916e+00
1.02733865e+00
1.03062350e+00
1.03055721e+00
1.02747561e+00
1.02892145e+00
1.03170171e+00
1.02703488e+00
1.02638963e+00
1.05338596e+00
1.05858541e+00
1.07071046e+00
1.05729336e+00
1.05180174e+00
1.06024474e+00
1.06027715e+00
1.05706493e+00
1.06138523e+00
1.06228777e+00
1.05199972e+00
1.05254371e+00
1.05698859e+00
1.05639445e+00
1.05160963e+00
1.05325718e+00
1.06104090e+00
1.05244204e+00
1.04553122e+00
1.05049701e+00
1.05288209e+00
1.04904789e+00
1.05626810e+00
1.05948312e+00
1.04237119e+00
1.04805770e+00
1.05291714e+00
1.04777826e+00
1.04381062e+00
1.05019913e+00
1.05596147e+00
1.04560343e+00
1.04913852e+00
1.05209529e+00
1.04408124e+00
1.04364049e+00
1.04418269e+00
1.04303595e+00
1.04722708e+00
1.04991326e+00
1.04783552e+00
1.04640474e+00
1.04366114e+00
1.04473265e+00
1.04551949e+00
1.04093041e+00
1.03862429e+00
1.04415306e+00
1.04734777e+00
1.04257710e+00
1.04133444e+00
1.04143390e+00
1.04228013e+00
1.04104602e+00
1.04363900e+00
1.03995658e+00
1.04061099e+00
1.04615139e+00
1.04154171e+00
1.03767411e+00
1.03887155e+00
1.04397608e+00
1.04089453e+00
1.03791592e+00
1.04047257e+00
1.03844899e+00
1.04135324e+00
1.04121850e+00
1.04022499e+00
1.03527689e+00
1.04097488e+00
1.03926284e+00
1.03848093e+00
1.03633960e+00
1.03762374e+00
1.03926405e+00
1.03533776e+00
1.03953012e+00
1.03627735e+00
1.03471462e+00
1.03864322e+00
1.03357578e+00
1.03548476e+00
1.03864904e+00
1.03501495e+00
1.03707971e+00
1.03358946e+00
1.03675086e+00
1.03861648e+00
1.03367171e+00
1.03455376e+00
1.03590774e+00
1.03763805e+00
1.03789446e+00
1.03500122e+00
1.03434226e+00
1.03298387e+00
1.03539082e+00
1.03459828e+00
1.03635245e+00
1.03309788e+00
1.03359574e+00
1.02971575e+00
1.03603388e+00
1.03417662e+00
1.03019918e+00
1.03470099e+00
1.03215310e+00
1.03349303e+00
1.03140804e+00
1.03056218e+00
1.03504805e+00
1.03026568e+00
1.03057167e+00
1.03181503e+00
1.03102717e+00
1.02706190e+00
1.03201132e+00
1.02956190e+00
1.03297121e+00
1.02712008e+00
1.02756116e+00
1.03166147e+00
1.02864452e+00
1.02684844e+00
1.02671772e+00
1.02597608e+00
1.02729953e+00
1.04939399e+00
1.06681643e+00
1.06449054e+00
1.05380661e+00
1.05959765e+00
1.06353332e+00
1.05501222e+00
1.05494255e+00
1.06305445e+00
1.06071673e+00
1.05084354e+00
1.05466758e+00
1.05616258e+00
1.05504717e+00
1.05470899e+00
1.05547524e+00
1.05592897e+00
1.05656697e+00
1.04499368e+00
1.04809317e+00
1.05872202e+00
1.04984594e+00
1.04956568e+00
1.05486964e+00
1.04909105e+00
1.04849852e+00
1.05002061e+00
1.04795233e+00
1.04511944e+00
1.05279562e+00
1.05159029e+00
1.04343918e+00
1.05108340e+00
1.05088507e+00
1.04204698e+00
1.04532524e+00
1.04723504e+00
1.04572497e+00
1.05077606e+00
1.04782678e+00
1.04181280e+00
1.04636533e+00
1.04780578e+00
1.04676082e+00
1.04371597e+00
1.04004022e+00
1.04106524e+00
1.04518281e+00
1.04184134e+00
1.04256870e+00
1.04239422e+00
1.04329474e+00
1.04299892e+00
1.04089091e+00
1.04086954e+00
1.04523280e+00
1.03801760e+00
1.04147016e+00
1.04034918e+00
1.04051272e+00
1.04473181e+00
1.03861256e+00
1.03910165e+00
1.03906455e+00
1.04085350e+00