# vtk DataFile Version 2.0
LBM Flow Field - Timestep 1070
ASCII
DATASET STRUCTURED_POINTS
DIMENSIONS 128 128 1
ORIGIN 0.0 0.0 0.0
SPACING 1.0 1.0 1.0
POINT_DATA 16384
SCALARS density double 1
LOOKUP_TABLE default
1.32192792e+00
1.31185733e+00
1.29983401e+00
1.28787423e+00
1.27600158e+00
1.26424102e+00
1.25261729e+00
1.24114696e+00
1.22986453e+00
1.21876816e+00
1.20791127e+00
1.19726357e+00
1.18690640e+00
1.17677172e+00
1.16697684e+00
1.15740821e+00
1.14822545e+00
1.13926401e+00
1.13072995e+00
1.12240474e+00
1.11454255e+00
1.10687073e+00
1.09969054e+00
1.09267794e+00
1.08617761e+00
1.07981952e+00
1.07398578e+00
1.06826804e+00
1.06307787e+00
1.05797810e+00
1.05340031e+00
1.04888925e+00
1.04488623e+00
1.04092914e+00
1.03745851e+00
1.03401657e+00
1.03103289e+00
1.02806456e+00
1.02552089e+00
1.02298312e+00
1.02083237e+00
1.01868175e+00
1.01687793e+00
1.01507166e+00
1.01357081e+00
1.01206754e+00
1.01082847e+00
1.00958894e+00
1.00857377e+00
1.00756134e+00
1.00673582e+00
1.00591680e+00
1.00525039e+00
1.00459429e+00
1.00406019e+00
1.00353979e+00
1.00311478e+00
1.00270613e+00
1.00237032e+00
1.00205265e+00
1.00178921e+00
1.00154474e+00
1.00133959e+00
1.00115332e+00
1.00099476e+00
1.00085423e+00
1.00073263e+00
1.00062763e+00
1.00053514e+00
1.00045741e+00
1.00038766e+00
1.00033063e+00
1.00027852e+00
1.00023701e+00
1.00019845e+00
1.00016848e+00
1.00014024e+00
1.00011875e+00
1.00009830e+00
1.00008298e+00
1.00006833e+00
1.00005748e+00
1.00004712e+00
1.00003947e+00
1.00003222e+00
1.00002686e+00
1.00002186e+00
1.00001812e+00
1.00001470e+00
1.00001211e+00
1.00000981e+00
1.00000802e+00
1.00000649e+00
1.00000527e+00
1.00000426e+00
1.00000343e+00
1.00000277e+00
1.00000221e+00
1.00000178e+00
1.00000141e+00
1.00000114e+00
1.00000090e+00
1.00000072e+00
1.00000056e+00
1.00000045e+00
1.00000035e+00
1.00000028e+00
1.00000022e+00
1.00000017e+00
1.00000013e+00
1.00000011e+00
1.00000008e+00
1.00000006e+00
1.00000005e+00
1.00000004e+00
1.00000003e+00
1.00000002e+00
1.00000002e+00
1.00000001e+00
1.00000001e+00
1.00000001e+00
1.00000001e+00
1.00000000e+00
1.00000000e+00
1.00000000e+00
1.00000000e+00
1.00000000e+00
1.00000000e+00
-1.24765143e+207
5.27476277e+208
9.99958704e+209
2.13476915e+210
1.40173466e+212
-1.09226105e+212
-6.25149045e+212
8.68716856e+212
5.44038957e+212
-3.06971980e+212
3.06740389e+212
6.27750390e+213
2.07329691e+214
-3.10060334e+214
3.44947199e+212
2.63303323e+214
1.04766755e+215
-1.19835193e+215
-3.40802794e+214
4.51570199e+213
2.30260896e+213
-1.29369761e+214
-1.10011855e+214
3.43972262e+213
-5.74836653e+213
-2.25040852e+213
9.86836754e+212
1.85907255e+214
-5.55023453e+214
2.31185898e+214
3.19771670e+214
7.52998161e+214
-5.94580597e+214
-4.99640244e+213
9.04041474e+213
7.67734929e+211
1.86403211e+213
9.70999609e+211
-1.68488066e+212
1.85241171e+212
-3.99174947e+212
-8.95028366e+212
-1.27167239e+213
-2.99615417e+214
6.86240928e+213
8.13606010e+212
-1.19175791e+214
2.96806880e+213
-4.15711752e+211
-1.33365306e+214
-9.20050592e+213
1.93819145e+214
-5.88160175e+213
1.86983477e+214
-4.90998491e+213
-2.30766024e+213
3.58358843e+213
-2.96589414e+214
-8.31393114e+213
-1.64405498e+214
-1.52595142e+214
-2.24188790e+213
-1.82135728e+213
-2.53657580e+213
3.57547115e+213
5.60320498e+213
-3.71654758e+214
1.02232628e+214
-7.16715510e+212
4.66274803e+213
1.92538405e+213
1.13084537e+212
-1.92305446e+212
-6.18320166e+212
4.05283665e+212
8.78776877e+211
2.21610552e+211
-1.24167909e+212
1.27580800e+212
-1.93113164e+211
2.38208941e+212
-2.51375148e+212
2.27854739e+211
5.30353317e+211
9.15749038e+210
6.41273841e+209
1.10667512e+211
-4.14963968e+210
1.56299263e+209
3.33622922e+210
6.55789367e+209
-6.34504865e+210
7.90942010e+210
1.57724418e+210
-3.38025228e+211
-2.34868159e+211
1.30892588e+210
3.15977041e+209
-5.69964273e+209
2.27118855e+208
8.24836595e+208
7.74974739e+208
-3.40294846e+208
3.66104588e+208
4.97806881e+208
1.28129207e+209
-1.68997692e+209
2.31262071e+208
1.53029727e+208
2.54033120e+206
-2.41619754e+207
1.48725089e+206
-5.10444599e+207
9.47580893e+206
-1.10879326e+206
4.22872919e+206
3.28144519e+206
-5.12489713e+206
3.84724205e+205
3.87047492e+205
1.71542398e+205
9.46880082e+205
4.39047928e+205
2.15962971e+205
4.43310543e+204
4.18412165e+203
-4.08729066e+203
-8.15861137e+202
6.69295252e+207
1.09179318e+210
2.22177641e+211
1.54941131e+212
2.53990699e+212
-1.51353219e+213
-7.22178680e+212
-1.91221081e+213
-2.47638334e+212
1.94578088e+213
-5.75099757e+212
7.64657980e+214
-7.33897546e+214
-2.15538659e+214
-2.10337691e+215
1.85858721e+215
7.03640276e+214
3.19545342e+215
-3.09432978e+215
1.31803876e+213
-1.47479461e+214
1.03820307e+214
5.58801193e+213
3.24003925e+214
-8.07246512e+213
4.37907250e+213
5.39273395e+214
7.91427396e+214
-1.10999440e+215
-1.31824506e+215
-3.86755394e+214
1.67040809e+214
-2.12888579e+215
8.79032883e+214
5.13235087e+213
-4.37267227e+213
-2.85679207e+212
-5.41919344e+212
-1.83337896e+212
5.35594595e+212
3.61939088e+212
3.52105817e+213
-2.46036597e+213
7.30009008e+213
-6.10017219e+214
2.18892274e+214
8.22543359e+213
-3.77002943e+213
1.02858070e+214
1.95140551e+214
-1.44943921e+214
-1.39093961e+214
-1.73238976e+214
-6.59163930e+214
-2.00046003e+215
-2.65277087e+215
6.58769204e+215
3.97800049e+215
1.53113930e+216
8.97908066e+215
-2.48601080e+212
-3.59991649e+214
2.39127544e+214
1.47112799e+213
7.40171271e+212
-7.82175452e+213
-3.86413348e+213
1.70383831e+214
2.49201161e+213
-9.76940206e+213
-2.97572253e+212
5.83576976e+212
1.09485964e+212
-3.19564761e+212
2.14282956e+212
8.38113149e+211
-2.58846253e+212
-1.84447101e+212
2.55980109e+212
1.26292344e+212
8.96673884e+212
-1.06305069e+212
-1.53191555e+212
-7.73104267e+211
7.38411793e+211
-4.64347258e+210
4.89526428e+210
-3.44067043e+211
1.17704998e+211
-7.62832819e+210
4.26017157e+210
1.67008305e+210
-5.03318816e+210
1.51133854e+210
8.86801727e+211
1.93775801e+211
3.01931543e+210
-2.08846246e+209
-1.60479146e+210
-2.02510550e+209
-3.36968009e+208
4.79731142e+208
2.49224337e+208
-4.12712907e+208
4.11052958e+209
-4.08608413e+209
-1.04678413e+209
-2.00743998e+209
2.58457563e+209
-5.93892366e+206
7.02181499e+207
2.64120867e+207
1.19406493e+206
3.60363244e+207
-1.25513873e+207
-1.20069055e+207
7.49485599e+206
-5.17431817e+206
-2.00253423e+206
-4.35067742e+206
4.78420113e+205
-3.60679140e+206
2.94645818e+206
-8.89762278e+205
3.07031642e+205
5.24107117e+204
-1.37217516e+204
3.73763929e+203
5.01920335e+208
1.28935740e+211
1.60986941e+212
1.98160731e+212
-5.82015258e+212
3.78809335e+213
2.23020048e+213
-2.57129995e+212
8.02557048e+211
-1.53965906e+213
-1.31405443e+213
4.83612794e+214
-1.03453523e+215
2.85603144e+215
-2.09086102e+215
4.32194035e+215
-2.23163531e+215
4.09919913e+215
-1.59429692e+215
6.82062717e+213
1.10133296e+214
6.93006844e+213
4.54833735e+214
5.21686347e+214
1.27257348e+213
1.02506697e+214
-1.54134089e+214
-5.16037766e+214
4.86830469e+214
3.38860794e+215
2.21478690e+215
-2.13432387e+215
1.20236741e+215
6.52958398e+214
-3.18555616e+213
1.28865583e+214
8.17616708e+213
2.08595821e+211
-1.24894480e+213
-4.79519074e+212
-1.40405254e+213
9.30205010e+213
-1.97210304e+214
-5.72438820e+213
-8.78090748e+214
2.49937141e+215
-9.88197615e+214
-3.13906907e+214
9.75169186e+213
1.35842621e+213
3.65181662e+214
1.18548473e+215
-1.66198644e+214
2.08992763e+214
-2.33643937e+216
-7.06574557e+216
6.07471781e+216
-6.73524612e+215
-1.65557895e+216
-6.79287699e+215
1.15007532e+216
-7.17196395e+214
-1.68897446e+214
-7.78522566e+213
-5.10857767e+214
6.90833892e+214
-8.50216910e+214
-1.68374960e+214
6.17664241e+213
-1.70100707e+214
1.30725027e+214
-1.10836895e+211
-1.66275655e+212
-5.83331483e+212
-2.43305386e+212
4.27937188e+212
5.32573619e+211
-1.03527669e+212
2.01253282e+212
2.69073419e+212
-1.36148243e+213
-4.50369569e+212
8.50546278e+211
-8.39653545e+211
1.17213746e+212
-2.91194384e+210
-4.82922312e+210
-7.48794883e+210
1.34241562e+211
4.30340577e+210
-2.93533985e+210
-6.51200045e+210
4.78134782e+210
-6.04004102e+211
-2.79253416e+211
-2.27455017e+211
-9.09173205e+210
5.95053026e+210
-2.06053386e+210
-6.67575995e+209
4.41469441e+209
-7.77366343e+209
-2.98944363e+209
9.03331241e+208
2.57565041e+209
-4.99223789e+209
5.01357439e+209
-5.06520072e+209
2.59349029e+209
-9.24110520e+207
-8.24129447e+206
-7.86483532e+207
-2.52608625e+207
4.44513383e+206
-1.58398490e+207
4.20175103e+207
4.54861345e+206
-1.20882428e+207
-1.33095511e+206
-2.82214454e+207
-2.69078289e+207
-4.17813536e+207
1.15542247e+207
-6.77406583e+206
6.05822752e+204
4.22363875e+203
-2.79066168e+204
6.35529816e+203
-1.61439421e+210
8.21589813e+211
1.43076983e+212
-1.25953709e+213
-3.08212548e+213
-5.84392236e+213
-5.73376040e+213
8.16813569e+212
1.65111252e+212
3.14090811e+213
6.89444604e+212
6.48935944e+214
-5.03542450e+214
-5.68598738e+214
-1.14889918e+216
-9.59948574e+214
-2.76051096e+215
-4.47652148e+214
-1.73154666e+215
9.10192992e+213
1.02944938e+215
8.50661853e+214
6.57479840e+214
-1.51666707e+215
-1.84993390e+215
-8.58108546e+215
-7.27959810e+214
3.56307317e+214
3.06210814e+214
-2.00766015e+215
-5.63038673e+214
-1.02939391e+215
2.16682940e+214
-2.13368581e+215
-2.24742414e+215
-2.30955167e+214
2.12715080e+214
7.36350038e+214
9.28139494e+214
-1.95457568e+212
1.13777455e+213
-5.84324851e+213
9.41910662e+213
-1.19337779e+215
1.31483776e+215
1.90965029e+216
-1.67325291e+216
2.99131023e+215
1.77664204e+214
3.49378002e+214
9.54724220e+214
-1.12975477e+215
1.80669408e+215
3.73254006e+215
-1.85148351e+217
1.64334600e+217
4.51280723e+216
7.89902507e+216
-6.09660064e+216
-1.24529399e+216
1.22889980e+216
-1.18921307e+215
-2.84278556e+214
-2.90839545e+214
8.70477455e+214
1.85137742e+214
1.69791533e+215
-1.56594554e+215
1.33914228e+214
-3.58822001e+214
1.46959501e+214
-1.46014622e+213
7.92751389e+212
1.66566056e+213
1.04780057e+213
3.72027087e+213
4.97757653e+213
2.14440927e+213
2.21816104e+213
-5.83967592e+213
1.05325759e+213
2.87332176e+212
-1.69600327e+211
-9.28940624e+211
8.99912660e+211
3.85960634e+211
1.99619072e+211
-1.03729916e+211
-2.93498949e+210
-3.50433514e+210
-2.32064948e+210
2.56881368e+211
-1.59755750e+211
5.32897239e+211
8.80116016e+210
3.99303923e+211
7.49361116e+209
3.89784737e+210
-3.39804721e+209
-5.19984702e+209
1.15247850e+210
4.47331370e+209
1.77628989e+210
-1.11576962e+209
2.31036631e+209
-2.00359331e+209
-9.36238172e+208
-4.12343576e+209
4.18739305e+209
-1.60988498e+208
8.43044333e+207
6.15201263e+206
-6.61670915e+207
-6.60504564e+207
-6.87098039e+207
-5.88274449e+206
1.32850163e+207
-5.94918665e+206
-6.31932610e+206
3.21346860e+207
4.94427472e+207
3.23948183e+207
-6.11391583e+206
-2.34748372e+206
-2.12040957e+205
-1.68624109e+205
-7.28700641e+204
1.00925149e+203
2.04726707e+211
4.32200371e+211
1.64240450e+213
1.49090222e+213
3.52881370e+212
8.41577510e+213
5.33639963e+213
1.05837210e+214
-1.85131180e+213
-1.23396008e+213
-8.63905995e+213
-4.09712150e+214
-7.27854878e+214
3.37418856e+214
7.35016275e+215
5.66809549e+215
5.97952251e+215
2.29942967e+215
8.80456946e+214
-4.14987427e+215
-1.14747796e+215
-1.22580521e+214
-6.51942713e+212
-7.36327195e+214
8.33234692e+215
7.42775318e+215
-4.33801885e+215
-4.44425255e+214
3.63757356e+213
-6.32743419e+213
2.97723556e+214
3.17830220e+214
5.40081811e+213
5.85562056e+215
9.62940324e+214
6.55676269e+214
-2.96915340e+214
-2.71626959e+214
-2.70762963e+215
-4.04856016e+214
1.33162046e+214
-2.44628617e+214
-1.01352337e+215
-6.73225491e+214
3.43547645e+215
4.01208743e+216
-8.55926587e+216
3.75227080e+216
-2.98506609e+214
-1.95862292e+215
1.84385950e+215
-1.05842383e+215
-3.22797334e+215
-2.30421916e+215
-1.05223234e+217
3.18712425e+217
-1.26634217e+217
3.36219129e+217
-1.43459086e+217
-2.00517604e+216
-4.28003056e+214
-9.94299971e+214
2.77020988e+215
2.96412344e+215
4.24251317e+215
-1.77132042e+215
1.69481312e+215
-7.79283437e+214
2.01858196e+214
1.82583213e+214
8.27753599e+212
-1.15529737e+214
-2.41084140e+212
1.84714608e+213
-1.51355682e+212
-2.68281669e+213
-4.82615674e+213
-9.95907372e+213
1.46572795e+214
-4.05083602e+213
-8.63109493e+212
-1.20797355e+212
3.78411104e+211
-1.09692160e+212
2.87222850e+211
-1.97142958e+211
-2.51371067e+210
-6.35499556e+210
1.02103232e+211
5.61984214e+210
-2.49078268e+210
3.01841696e+211
-4.88125786e+211
9.31464448e+210
-7.86852156e+211
7.65616211e+211
4.89169833e+211
1.29114969e+212
6.65645628e+210
-2.31860607e+210
-1.54169856e+208
5.12544893e+209
-1.80561583e+209
-5.40572929e+209
3.95885195e+208
4.66468090e+207
-1.46118247e+209
1.21117900e+209
3.86707512e+208
1.31148565e+208
3.19017784e+207
-1.91294119e+208
2.91329946e+208
1.47033269e+208
8.63379582e+207
1.70724733e+207
-2.95857973e+207
1.57314693e+206
1.26795593e+207
1.60363729e+207
-5.35372581e+207
3.24936026e+206
1.61609180e+207
2.02528969e+206
6.36071957e+205
1.79239663e+205
2.11607561e+204
-2.48476238e+204
-6.26980382e+213
-8.59514763e+213
-1.94642101e+214
-2.81383021e+214
-1.61545538e+214
-3.03000383e+214
-3.22320904e+214
-1.44941317e+214
-9.68070612e+213
1.96162421e+214
-1.51978821e+214
-4.45825825e+214
9.49720906e+214
-1.60311241e+215
-4.00369274e+215
-5.35476070e+215
-5.34379154e+215
-1.25515172e+215
1.57458863e+215
6.14040345e+215
-2.04980343e+215
2.70680701e+215
4.35226567e+215
-2.09633785e+215
-6.57408525e+215
7.84797185e+214
8.54857279e+215
-4.40490208e+215
2.31304533e+214
-6.83253691e+214
2.30003496e+214
1.22661720e+214
-7.36394983e+214
-1.05896321e+215
-3.66730152e+215
9.60299934e+214
1.01792962e+214
-3.15582470e+214
1.60212235e+215
1.30428496e+215
-3.36110027e+214
-6.03106150e+214
-7.07353986e+215
2.88449117e+215
2.85740576e+214
6.76260825e+214
-1.72338349e+216
1.94028432e+216
-2.32624971e+215
2.08285724e+212
2.27830729e+215
-5.80426663e+215
1.36973625e+215
6.11820802e+215
-9.23653812e+216
-3.37338010e+216
-1.57440341e+217
1.68567329e+217
7.77805550e+216
-4.67919903e+216
1.20898558e+216
-4.06675260e+215
-6.18569734e+215
-8.86015562e+215
2.78060797e+215
-2.21454815e+214
1.24165276e+214
-8.70085541e+214
-3.42017194e+214
3.19738082e+214
6.08817330e+214
-6.81487135e+213
-1.20384253e+214
4.00114555e+213
3.01696065e+213
-5.98050706e+213
3.58214005e+213
-3.31033493e+213
7.45766681e+211
-7.55655931e+212
1.44794642e+213
-2.29298000e+211
-1.09057425e+212
1.01088616e+212
1.40841411e+212
-6.62214471e+212
-7.35790762e+210
1.34696469e+211
1.55420263e+210
2.52233797e+210
-4.64914108e+209
3.15823421e+211
-3.12756585e+211
-2.54166129e+210
-3.39504662e+211
1.10517526e+211
-1.19587078e+212
-1.03471503e+212
3.41151377e+211
-1.97343634e+209
6.87684970e+209
-8.45078064e+209
2.31871713e+209
5.35156846e+208
-7.86901406e+207
-1.88945749e+208
3.38733992e+206
3.64118273e+207
1.38132706e+207
1.27024068e+208
1.12448200e+208
8.10318796e+207
2.09442903e+207
-1.62709958e+208
3.55877371e+207
-1.06760562e+208
4.71233052e+207
-3.79012330e+206
-3.36180507e+206
2.17135027e+207
6.55544362e+207
2.23631490e+207
-2.37131032e+207
-1.16728644e+207
-2.67187508e+207
-1.13497806e+207
-1.43041627e+207
-3.82520068e+206
2.79710146e+214
-6.70091996e+214
-1.91872025e+214
-1.15993857e+215
5.88899095e+214
8.48041098e+213
1.34924696e+214
3.69064952e+214
-8.84754971e+213
1.87625728e+214
-3.71926597e+213
1.03390884e+215
-3.40117472e+215
-1.19067159e+215
2.12312980e+215
4.21749936e+215
2.61686408e+214
3.50802542e+215
-7.85525611e+215
3.69217035e+216
-5.27630948e+216
-1.56685306e+217
-6.57124811e+215
1.37781983e+216
-3.20182904e+214
2.42394433e+214
6.99210758e+215
-3.69793717e+215
-2.89966686e+214
1.60075962e+215
-5.09412299e+213
6.62804659e+214
5.45569509e+214
1.51369734e+215
3.57600138e+213
1.27635700e+214
-1.59658654e+214
-2.84247738e+214
-1.00730945e+216
-2.28518719e+216
5.60984116e+216
-1.84896972e+216
-3.47583210e+215
1.54024139e+215
2.65113807e+215
5.57291533e+215
5.80939671e+215
1.47342409e+214
1.14587153e+215
-4.02709437e+213
-2.34060584e+215
2.11755709e+214
-1.56533742e+216
-3.25919257e+216
1.45829488e+217
3.31218029e+216
6.81378628e+216
-2.64267316e+217
-5.18463789e+217
-1.29043593e+217
3.07983577e+214
8.17934310e+215
1.83889476e+216
-5.59487994e+214
-3.89412471e+214
1.11114970e+215
4.32440402e+214
9.81287476e+213
-2.60390879e+214
1.45421842e+214
7.59013124e+214
-2.51215275e+215
7.33883007e+214
8.76414675e+213
1.36080134e+214
-8.19230149e+213
8.13233428e+213
4.54174917e+213
1.79976769e+213
-2.65291870e+213
9.73787224e+212
-6.94476077e+212
4.00254581e+212
-6.04144354e+211
2.31916449e+213
-7.02006429e+212
-2.53777087e+211
1.31944068e+211
-2.13332359e+210
-1.46627859e+211
3.92424269e+210
9.42102292e+210
-6.52523224e+210
-1.68512803e+211
-4.24151068e+211
-2.18535305e+211
1.44855407e+212
-1.63559276e+211
-3.83587425e+211
-1.32571865e+210
6.27281462e+209
-1.60266383e+209
-1.38809445e+209
-1.27195645e+209
9.02945893e+208
-3.81502963e+208
-2.51536555e+208
1.86898529e+208
-8.23264433e+207
-8.35161095e+207
-2.46038633e+208
-1.81920683e+207
-2.49623943e+207
1.07156859e+208
2.02844808e+208
-5.40800954e+207
5.21307381e+205
1.68755502e+207
-6.16150290e+205
-5.18983621e+207
-4.10944450e+207
-5.45035567e+207
1.11052015e+206
1.90177448e+207
-3.15685895e+208
-2.68268926e+208
6.02141125e+207
-3.16218135e+207
1.57182445e+215
-1.73957719e+214
3.47140817e+215
-1.78508146e+215
3.32407972e+214
-8.68693377e+214
-4.05419769e+215
-1.02222779e+215
-6.35106941e+214
-2.73875243e+214
-3.61945378e+214
-3.55967997e+213
9.09964716e+215
3.12825082e+215
-3.39883578e+215
-3.63446407e+215
-5.67099134e+215
1.18782128e+216
-7.65725912e+215
-7.26725921e+216
4.88911657e+217
-7.23521039e+216
-5.66758979e+215
-1.25118130e+216
2.05470427e+214
-3.92750855e+215
1.27145759e+216
4.57197226e+215
2.83487384e+214
6.10762491e+214
-9.35699178e+214
-8.03314205e+214
-9.98420457e+214
6.75550717e+214
1.58338276e+215
2.54438753e+215
7.14066079e+214
2.18885668e+215
-1.15813652e+217
1.07108046e+217
2.74582390e+216
9.68195330e+216
-1.06670169e+217
-1.50705182e+216
8.32327976e+215
-1.55002088e+216
-3.19073613e+215
6.70013608e+215
5.77660248e+214
-1.17867142e+215
2.15381812e+214
2.61532263e+215
1.56416156e+217
-4.46205927e+217
1.08516445e+217
-1.35275717e+216
6.53430619e+216
4.97485369e+216
4.23117013e+217
6.21117759e+216
1.10941695e+216
-6.27158036e+216
-7.96321481e+215
-1.19428716e+214
-1.15452312e+216
1.38483624e+216
2.09031558e+216
2.34743232e+215
-7.78674154e+213
2.54252572e+214
-3.42082426e+213
-6.74085989e+214
1.46368955e+214
-3.88897005e+214
-5.89450515e+213
-6.51951113e+213
1.18292567e+213
2.72389247e+212
-1.58271665e+213
-7.12198871e+213
2.27345382e+213
3.33905117e+213
-1.67293481e+213
-3.20010609e+213
-1.34505226e+213
1.16451405e+212
2.72063393e+211
7.74984196e+210
1.49777383e+211
-6.24112972e+210
-1.87215954e+211
8.10883432e+210
1.08314751e+211
-1.98934414e+210
5.35230552e+211
-1.45216440e+212
-1.68584841e+212
-6.98656161e+211
-1.96497785e+211
2.14653955e+210
8.40092818e+209
-1.98370475e+209
-5.74272238e+208
-1.18912161e+209
4.46674049e+209
-1.42634442e+209
-4.62649677e+208
7.58735922e+206
6.03559234e+207
3.40647071e+207
2.56099305e+206
2.02541709e+208
1.99374317e+205
-1.29896297e+208
-1.35929247e+208
5.61326825e+207
-9.91361913e+207
4.01667363e+207
-1.14909634e+207
-5.87218128e+206
7.04666210e+206
3.57935227e+206
5.73525689e+207
1.21748614e+207
1.80753646e+207
1.12470748e+209
4.47928586e+205
5.15010137e+207
4.94402647e+215
6.62005581e+215
2.40149056e+215
2.12377527e+216
8.56555804e+215
4.39722217e+215
4.62260556e+215
-6.27007200e+214
1.00938687e+215
-7.42369558e+214
4.67571662e+214
-1.39516283e+215
-2.16283863e+215
9.62540732e+216
-4.84333828e+215
-1.73024372e+216
7.17803755e+215
-3.13586367e+215
1.16773652e+215
-1.47569162e+217
-7.91508310e+216
9.59031487e+215
-2.86520856e+216
3.73092797e+215
-2.01296973e+216
2.20374539e+215
-6.12565981e+215
2.07834555e+216
-1.11785825e+217
-3.89759030e+215
-7.58347053e+214
-1.62035431e+215
1.36927197e+215
-2.34813306e+215
-2.38708586e+215
-1.25441909e+217
2.37098747e+217
4.95594302e+216
2.18665519e+217
5.25535045e+217
1.99896252e+217
1.69999108e+217
-6.87830790e+216
4.12866897e+215
8.73079759e+214
4.79812402e+215
1.25645996e+215
-2.15428136e+215
-2.54783433e+216
2.11936908e+215
3.26885412e+216
-2.49968658e+215
1.65978425e+217
-9.44498641e+216
2.10133943e+216
1.60171172e+216
-1.79936986e+216
9.86200008e+215
2.05908718e+216
1.11264440e+216
1.92540622e+216
2.41041940e+216
5.24977892e+215
5.40821816e+215
-1.38389015e+216
3.90905211e+216
-5.40915445e+216
-6.02789467e+215
2.44301202e+215
7.14416469e+214
1.98317735e+214
1.56991081e+215
1.47548927e+214
6.12785985e+214
-1.20883312e+214
-6.72869628e+213
1.31116736e+213
2.96956240e+213
-4.84018163e+213
-1.10204082e+213
2.41018664e+212
4.54636771e+213
-2.37117164e+213
4.68911346e+213
-1.48014519e+213
-5.07363269e+212
4.58700586e+212
-2.19848872e+211
-5.48333504e+211
-1.06820354e+212
-6.63100830e+210
3.71679364e+210
-2.06963248e+211
1.04323067e+211
1.77330079e+211
1.32023033e+212
8.19545209e+211
8.83189092e+211
-1.40613679e+211
-1.66743518e+210
-4.01755076e+208
6.21530298e+209
-1.97987239e+209
-8.65637907e+207
-6.98371739e+208
5.04093644e+209
8.04610989e+208
2.35868293e+208
3.68387006e+206
-2.49813405e+207
-1.95908236e+208
-1.58721684e+208
-8.82115016e+207
-2.08824454e+208
-9.15261408e+207
-6.64191692e+206
-2.89037329e+206
1.27846465e+206
-4.72049123e+207
4.38592392e+207
7.05879192e+207
-8.73381911e+207
8.43954364e+206
-2.00259486e+208
-5.78511260e+208
-2.48210460e+208
-4.43617329e+208
1.95509721e+207
-3.37996254e+214
-8.90662069e+216
2.98023365e+217
8.98062739e+216
8.32863695e+217
-1.82233864e+218
-4.11390481e+217
-4.03054214e+215
4.19266341e+215
-3.40927407e+215
2.46546262e+215
3.35537423e+215
-2.62063344e+215
1.20250589e+217
-3.19241007e+217
1.08353503e+217
5.17745825e+216
-1.46834429e+215
4.52989573e+215
1.65150726e+216
4.12284843e+216
5.69782104e+216
4.21893269e+216
3.80480516e+216
1.62065350e+215
-8.40095976e+215
-1.11575144e+217
3.87960753e+217
-1.17594233e+217
1.38738501e+216
1.21092662e+216
2.95915157e+215
-5.24593982e+215
-2.06367690e+216
-3.05198346e+216
4.57236776e+217
4.88704955e+217
-7.09899435e+217
-3.90969288e+217
-1.11703764e+218
3.48455689e+217
9.26148721e+216
-1.51625990e+217
5.58490959e+213
-1.81489249e+216
1.06468840e+216
1.12967484e+216
-7.34665827e+215
3.30352789e+216
-1.02965280e+217
3.23563731e+216
-3.24842971e+215
2.61374906e+214
-1.11623456e+216
2.35416385e+216
4.17821417e+215
-1.51795937e+216
-2.01789894e+216
-1.67281075e+215
2.03307106e+216
7.16487927e+215
1.50382901e+216
6.48976994e+215
4.86652294e+215
-1.02554471e+216
1.08110436e+215
-3.84549920e+215
-1.10261744e+217
-2.10124574e+217
-6.64827823e+216
-6.18259905e+216
-5.06115759e+215
6.43747080e+214
-1.71029363e+214
-2.63082843e+214
3.27321977e+213
-3.00250700e+214
9.13982015e+214
-5.18667014e+214
1.89335139e+213
5.86724049e+212
1.82338138e+213
-3.77776137e+213
-1.65232601e+213
1.76168987e+213
8.20111186e+212
-6.00155369e+212
1.62197343e+212
1.02414620e+212
1.95620753e+212
-1.20600955e+212
-3.09298630e+210
-2.76634942e+211
2.52945009e+211
-1.87570825e+211
2.58447324e+211
-3.35256706e+210
1.92477435e+211
-6.75915621e+209
4.00972084e+210
-6.58569515e+209
4.77913398e+209
-2.82346988e+209
2.40773774e+209
-3.45600381e+209
-9.09146647e+209
5.66603211e+209
1.64683431e+208
5.71700709e+206
-9.99686826e+207
1.61934527e+208
2.99683398e+208
1.66061875e+208
3.56204040e+208
6.15964878e+207
8.04751597e+207
1.20871006e+208
1.82309112e+208
-1.46808088e+208
1.10919647e+208
-3.34103097e+207
1.70342040e+207
-9.12210939e+207
4.51210412e+208
8.03466663e+208
-4.28990889e+208
-4.92723579e+208
1.87989858e+208
-1.65352352e+217
-7.41601422e+217
3.98985682e+217
3.95942014e+216
9.94918056e+217
3.93203565e+218
-3.43767979e+218
2.64726343e+214
1.27620682e+215
-1.20043389e+215
3.50058878e+215
-1.83748370e+216
1.27525596e+216
-1.70285678e+216
-4.82921459e+216
6.11299205e+216
-1.74344548e+216
-1.29790936e+216
2.55366287e+216
2.35031789e+215
3.66757923e+216
-5.08347079e+216
-3.33993421e+217
-3.39501653e+216
-1.62355003e+215
-1.83197178e+216
-1.03556178e+217
2.50625524e+216
7.47352458e+215
-1.14123832e+216
-1.09508419e+216
-7.64643733e+215
4.12761384e+216
-1.92283120e+215
-2.09350784e+216
-2.13633768e+216
-2.17648056e+218
1.76603233e+218
1.19203655e+218
2.26225904e+217
3.04729480e+217
3.42738551e+216
-2.50190202e+216
-6.47746972e+215
9.65583984e+216
-1.52748506e+216
4.59383891e+215
-1.19857494e+216
3.15264553e+216
3.62910644e+215
-7.72170733e+216
-3.02908529e+216
-1.08522188e+216
-1.95739758e+216
3.61339994e+216
4.19624438e+216
-5.10143517e+216
-2.39854385e+214
-6.39525441e+216
2.30514329e+216
-3.59167746e+216
-2.39196012e+216
-2.46637435e+216
1.18590231e+216
-1.05275740e+216
2.23451885e+215
-1.08729140e+217
6.27010681e+216
2.18732816e+217
8.81415902e+216
2.67226810e+217
1.00205051e+216
2.49265328e+216
3.47396756e+214
1.71809478e+214
-2.52475499e+214
-1.48720414e+215
3.14951833e+215
-9.41758084e+214
-5.99823805e+214
-8.55013969e+212
-1.23349530e+213
8.85417267e+212
4.16694569e+213
-9.87623318e+213
5.40914586e+213
1.13933869e+213
1.22782465e+212
-1.51308495e+212
1.70891627e+211
1.31263704e+212
-1.05276584e+211
2.94129647e+211
1.96938496e+211
-3.44759724e+211
-5.46360761e+211
-3.68102855e+210
1.52072766e+211
-6.09881150e+210
-1.88130607e+210
-1.55183915e+210
3.62250235e+210
-2.94974511e+210
-2.43590945e+209
7.76476204e+209
-3.33675727e+209
-8.10062885e+208
-4.67773349e+207
1.12954841e+208
-1.10793968e+208
-2.41344263e+208
3.46653931e+208
9.19047563e+208
9.39823119e+208
1.59034959e+209
-2.22502221e+208
-2.42372779e+208
1.64497762e+208
-4.62777530e+207
-1.39054462e+207
9.89716008e+207
6.06017142e+207
8.78186135e+208
1.41422424e+209
1.83062726e+209
2.50377670e+208
-1.14382921e+208
7.52794198e+207
3.19592006e+217
-3.10867601e+217
-1.26437484e+218
3.40263595e+218
-3.70127713e+218
3.30032746e+218
-1.44512999e+218
-4.74521412e+215
2.05405707e+215
-1.02337290e+215
1.10716028e+215
-2.28824069e+216
5.98992090e+216
-3.83037104e+216
1.35410745e+216
3.52361432e+216
2.33158250e+216
-2.02515073e+216
-8.61761160e+215
6.81479189e+214
-9.76947389e+216
2.43575189e+217
3.78355154e+217
-3.09366566e+217
-7.20156384e+216
4.71305682e+215
5.57878354e+216
-2.85189468e+216
-8.07809351e+213
2.25488382e+215
4.43491865e+215
-1.48927814e+216
-2.84142115e+216
-1.43318686e+215
8.87581544e+216
2.05217394e+217
1.20545848e+218
1.98925946e+217
-2.24910578e+218
-5.88606155e+217
1.13333401e+218
6.49598083e+217
7.11631138e+215
4.50907467e+216
-1.80079981e+217
5.32367196e+216
-4.05999255e+216
1.16442065e+217
1.45507120e+216
-6.82889813e+216
1.82370139e+217
-1.09300343e+217
-2.60349519e+216
5.81901400e+216
4.71140108e+216
-6.81041378e+216
2.69464325e+216
5.15612009e+216
3.55268932e+216
2.44775358e+215
1.54976206e+216
9.97065302e+215
1.78907164e+216
9.54470512e+215
6.75474735e+215
-2.16790497e+216
-7.40062099e+216
1.89300037e+217
-7.61634372e+216
8.60133381e+216
-3.75918072e+217
1.53084946e+217
-5.91157490e+216
-7.87717007e+214
5.70804681e+212
-4.07322473e+214
-2.36945140e+214
-6.14133329e+214
2.80375126e+215
-1.47074512e+215
3.74283718e+213
-5.60900170e+213
1.90601362e+213
8.63168040e+212
2.04909783e+213
-2.06066233e+213
-7.32348098e+212
5.52785680e+212
3.32349844e+212
1.03617403e+212
-4.26457670e+211
-8.45866156e+209
-2.01535138e+210
-1.26333579e+211
1.18397403e+212
3.81977266e+210
9.90275027e+210
4.02093052e+210
-6.26224096e+209
-3.69338254e+209
-1.22523109e+210
3.28770988e+210
-8.44276585e+209
-7.37639422e+209
-2.74559729e+209
2.75323930e+209
-4.98549096e+208
-1.66011090e+207
-3.55965223e+208
1.38195647e+208
2.55293381e+208
7.18670824e+208
-2.20631146e+209
-9.88877013e+208
-4.74586747e+209
-3.61281093e+208
-2.52296456e+208
1.40687382e+208
3.55372631e+206
-4.37456817e+207
3.28288285e+207
-7.14850420e+208
-4.93615573e+208
-3.76485938e+209
-1.14626449e+209
-6.91292796e+208
-8.20054539e+207
2.39518492e+206
-2.53541668e+217
-9.77759309e+215
-3.27376000e+218
3.82909507e+218
1.07060818e+218
6.13269468e+217
-1.15027749e+218
-5.12860521e+215
-1.99103774e+215
7.32935721e+215
-4.94783445e+215
-4.13438534e+215
-9.57406803e+215
1.22717617e+215
-1.48746012e+216
-8.80028378e+216
-1.79549469e+216
-7.22554484e+215
-1.72579808e+216
7.82631328e+215
1.42063651e+218
1.51676856e+218
5.32131185e+217
-3.52802239e+216
-2.13415020e+217
4.08100099e+217
-7.94562189e+216
5.05173569e+216
-1.02978448e+217
-1.76085776e+216
1.37717112e+216
-6.85072184e+215
-2.06858331e+216
6.65160357e+216
2.32695020e+217
-8.45980742e+217
3.37693399e+216
-9.75434983e+217
1.15621955e+218
-3.60257911e+217
-3.23161290e+218
-6.59813302e+217
-1.82364865e+216
3.20925515e+217
1.11850483e+217
-1.70072949e+217
2.75436093e+217
-6.55078590e+215
1.46869173e+217
-2.45823967e+217
3.69377828e+217
-1.24519486e+217
1.76739626e+217
-1.77696112e+216
8.20253250e+215
-2.34095537e+217
-8.20897641e+216
-1.14076222e+217
5.91812411e+216
9.64835973e+215
8.60706236e+214
-4.26412261e+216
6.36450257e+215
-1.88884753e+216
-6.88098619e+215
-9.69634093e+216
4.40230499e+216
2.08616067e+217
-1.98192166e+217
-8.55042782e+215
-1.10829062e+217
2.86266331e+217
-1.12507028e+217
-4.36418881e+215
7.48393135e+214
-1.96083640e+214
-6.85106887e+214
-1.60892052e+215
-2.54778019e+214
-1.43324734e+215
-1.03231714e+215
-2.02188295e+214
-1.32104312e+214
-3.98107300e+213
7.15484688e+213
-1.42271017e+213
7.21463767e+212
3.50878854e+213
3.12116324e+213
3.64831847e+213
2.00906996e+213
1.76551988e+213
4.71395113e+212
9.34603156e+210
-6.42700412e+211
5.63421375e+210
-1.50613344e+211
1.36636837e+211
-9.51546403e+209
-6.67914002e+209
1.13136969e+210
4.56359199e+210
-3.92615564e+210
-4.71862571e+209
6.30433209e+209
1.35811859e+209
3.07764510e+208
3.67839668e+209
2.66126943e+209
-2.89057756e+208
-2.67023542e+209
-7.99517208e+208
-2.83762307e+209
1.93230916e+209
4.55245550e+209
1.89704706e+209
-1.99061036e+208
1.08440737e+208
-2.68936680e+206
-4.07475644e+207
1.03820161e+208
2.36181278e+207
5.92301610e+208
1.60722182e+209
2.50038293e+208
2.61381499e+208
9.50780838e+207
-8.12044767e+206
-1.91608999e+217
-1.65495309e+217
-5.59849515e+217
-2.03659047e+218
7.69107035e+217
4.62943456e+217
-5.97437843e+215
-4.00157520e+215
2.37867116e+215
3.64371546e+215
-1.35762849e+214
-2.67001180e+215
-6.36748883e+216
8.74207642e+216
-1.97238622e+216
1.24970402e+217
2.65653556e+216
-1.26154284e+216
-7.25032460e+216
-6.28939731e+217
-3.07650947e+218
-1.80437493e+218
3.79521819e+217
5.06122965e+216
-7.26589270e+216