# vtk DataFile Version 2.0
LBM Flow Field - Timestep 860
ASCII
DATASET STRUCTURED_POINTS
DIMENSIONS 128 128 1
ORIGIN 0.0 0.0 0.0
SPACING 1.0 1.0 1.0
POINT_DATA 16384
SCALARS density double 1
LOOKUP_TABLE default
1.32099624e+00
1.30974375e+00
1.29638988e+00
1.28301516e+00
1.26991271e+00
1.25677310e+00
1.24405084e+00
1.23127641e+00
1.21905166e+00
1.20676140e+00
1.19513673e+00
1.18343535e+00
1.17249596e+00
1.16147149e+00
1.15128350e+00
1.14100554e+00
1.13161516e+00
1.12213400e+00
1.11356759e+00
1.10491405e+00
1.09717903e+00
1.08936512e+00
1.08245153e+00
1.07547169e+00
1.06935434e+00
1.06318727e+00
1.05782832e+00
1.05243920e+00
1.04779082e+00
1.04313381e+00
1.03914104e+00
1.03516192e+00
1.03176530e+00
1.02840406e+00
1.02554209e+00
1.02273547e+00
1.02034673e+00
1.01803050e+00
1.01605541e+00
1.01416633e+00
1.01254853e+00
1.01102605e+00
1.00971330e+00
1.00850084e+00
1.00744568e+00
1.00649155e+00
1.00565158e+00
1.00490959e+00
1.00424750e+00
1.00367716e+00
1.00316058e+00
1.00272715e+00
1.00232835e+00
1.00200257e+00
1.00169810e+00
1.00145580e+00
1.00122603e+00
1.00104760e+00
1.00087630e+00
1.00074612e+00
1.00062005e+00
1.00052588e+00
1.00043432e+00
1.00036674e+00
1.00030117e+00
1.00025303e+00
1.00020674e+00
1.00017269e+00
1.00014049e+00
1.00011658e+00
1.00009451e+00
1.00007783e+00
1.00006293e+00
1.00005139e+00
1.00004147e+00
1.00003356e+00
1.00002704e+00
1.00002168e+00
1.00001744e+00
1.00001385e+00
1.00001113e+00
1.00000875e+00
1.00000702e+00
1.00000547e+00
1.00000438e+00
1.00000338e+00
1.00000270e+00
1.00000207e+00
1.00000164e+00
1.00000126e+00
1.00000099e+00
1.00000075e+00
1.00000059e+00
1.00000045e+00
1.00000034e+00
1.00000026e+00
1.00000020e+00
1.00000015e+00
1.00000011e+00
1.00000009e+00
1.00000006e+00
1.00000005e+00
1.00000004e+00
1.00000003e+00
1.00000002e+00
1.00000002e+00
1.00000001e+00
1.00000001e+00
1.00000001e+00
1.00000000e+00
1.00000000e+00
1.00000000e+00
1.00000000e+00
1.00000000e+00
1.00000000e+00
1.00000000e+00
1.00000000e+00
1.00000000e+00
1.00000000e+00
1.00000000e+00
1.00000000e+00
1.00000000e+00
1.00000000e+00
1.00000000e+00
1.00000000e+00
1.00000000e+00
1.00000000e+00
1.00000000e+00
3.57951069e+59
9.25008518e+60
-8.70122255e+60
-1.22319664e+61
-7.67440268e+59
5.40165221e+61
-6.67553051e+61
-6.14240239e+60
1.87937721e+61
-2.17915704e+61
4.43932511e+61
2.89367700e+61
3.03369316e+61
4.81873345e+61
7.20109522e+60
-2.15266889e+62
3.44071938e+62
-1.43776279e+62
-2.43338592e+61
-3.44741492e+61
1.32708769e+62
-3.81385657e+61
-1.49519048e+63
-8.79476559e+62
-9.17645251e+62
8.14017469e+61
1.17831376e+62
8.15890892e+62
4.08197182e+62
-6.05825729e+63
-8.02815086e+63
1.00929064e+64
3.79046662e+64
-4.32652962e+63
-7.46834070e+64
-3.09971118e+64
4.07127633e+64
9.25546354e+63
9.48233545e+64
5.82653078e+64
6.41335267e+63
2.60179917e+64
1.90997279e+64
6.04005570e+63
3.03815592e+64
-3.79848849e+64
2.00718365e+64
-1.71903644e+64
3.54362079e+64
1.39399764e+64
-8.89466873e+63
-5.53384758e+64
9.92240673e+63
9.86705352e+64
-1.86081151e+65
-1.44303621e+65
-1.91919188e+64
-3.29681968e+64
-1.72807218e+63
2.78158151e+63
-1.36444294e+62
-9.08740726e+62
1.71878389e+63
1.54644149e+63
8.30350971e+62
1.94562094e+62
-4.74433303e+62
-2.87160435e+61
-1.30872850e+61
-1.66983397e+61
-9.67285064e+59
1.21050937e+60
-1.11730001e+61
-6.96937751e+58
-2.43616460e+60
-8.63338062e+60
-1.74733790e+61
-1.12928170e+60
-1.27427650e+60
2.32831278e+60
-1.69461220e+60
-1.58681915e+59
7.49399248e+59
8.72461397e+58
-1.51237175e+59
-1.02594852e+58
3.25314662e+57
6.71433053e+56
-1.01351711e+57
4.23444360e+55
-6.81650288e+55
-9.30022956e+55
2.15952950e+56
7.28043223e+55
2.85785112e+55
-7.02564337e+54
-8.85147955e+54
-3.90986701e+54
3.18926659e+53
9.38697868e+53
3.00667419e+54
-1.97677818e+54
2.95102889e+52
5.56045464e+53
-9.54180246e+52
-6.89072971e+50
-6.05607345e+51
-1.49022680e+50
9.83143730e+50
2.81134958e+50
-7.65856675e+48
-6.34156349e+49
-7.46224874e+46
3.60979097e+46
1.96103897e+46
2.88978010e+46
7.97080238e+45
-1.20234706e+42
-2.77544182e+44
5.92139495e+42
2.00169625e+42
3.79118100e+42
8.74611878e+41
1.13204514e+42
4.04274328e+40
1.74393360e+40
1.88859494e+38
-3.46316828e+38
7.33926612e+59
4.17478284e+60
-1.31730490e+61
5.55639716e+60
9.03972847e+60
9.52492484e+61
-1.94352779e+62
1.45197397e+62
7.66782648e+61
-4.26486101e+61
-1.96961774e+62
-2.65051116e+61
1.32221365e+62
2.12535418e+62
9.11805836e+61
-1.81254153e+62
-9.86468899e+61
1.96530223e+62
2.21551566e+61
3.97028494e+61
2.73603821e+62
-9.73876494e+62
1.72229793e+63
2.15411123e+63
2.20086293e+62
-8.16143399e+62
-4.67514107e+62
-1.05781154e+63
-4.55521027e+63
-1.16661381e+64
8.09945518e+63
-1.17240207e+64
-2.35113049e+64
-3.59789195e+65
1.41848750e+66
2.11946015e+66
-5.54638636e+64
-2.59392925e+64
-7.28316551e+64
-9.24411984e+64
5.98179272e+63
-1.94687978e+64
-4.09292107e+62
2.51034396e+64
3.99575284e+64
-1.34025855e+65
7.39011996e+64
-3.21467210e+64
5.59209256e+63
-1.36374161e+64
1.99851631e+64
1.04602174e+65
-7.19765359e+63
-2.01698481e+64
1.26879978e+64
1.79925185e+65
4.16473852e+63
-6.59809585e+64
-2.85541198e+64
-2.39872325e+64
-2.22322992e+62
-6.25124815e+62
1.81913772e+63
-4.90315133e+63
-4.02533502e+62
1.10349090e+63
-3.17419404e+62
-5.23078329e+60
-1.02183481e+62
-3.46262819e+61
-3.67418258e+61
-1.10756396e+61
-4.54110023e+61
3.82992661e+61
-3.06249151e+61
2.00912324e+61
5.02881477e+60
-5.88040247e+60
-2.28422502e+60
-4.59954771e+60
-1.60731153e+60
-1.73074644e+60
-8.98871073e+58
5.09632957e+59
2.74011662e+59
2.72939120e+58
-2.43217957e+58
-5.03785631e+57
-9.54718624e+57
-2.06059994e+57
-2.23347151e+57
-9.33412346e+56
-1.19120007e+56
1.81055124e+56
8.68936429e+55
2.82520752e+55
1.83153846e+56
2.83873267e+55
1.75573002e+54
2.33639316e+55
8.66144639e+54
-6.60806615e+54
-8.82890294e+53
-2.18382347e+52
1.57568461e+53
4.21458945e+52
-1.86749548e+51
-5.49697796e+50
-1.27851201e+51
-7.97127290e+50
-8.05887955e+49
1.25294873e+50
-3.52196020e+47
-4.39832657e+46
-1.98705058e+46
-2.39179045e+46
8.84755796e+45
1.01244436e+46
4.21662380e+45
1.56624924e+45
2.46500661e+44
-6.12164812e+42
3.14779536e+42
5.16843389e+41
9.35561550e+39
1.28456895e+40
1.11634927e+40
-8.22311775e+37
3.04994691e+60
1.78356802e+61
-8.78169488e+60
2.34279010e+61
8.73949937e+61
6.06048101e+61
-3.35472043e+61
9.69411861e+61
-9.47492192e+61
3.69192204e+61
-2.85451238e+61
3.73810974e+61
-4.98591637e+62
-2.76481398e+62
-1.03172172e+63
9.16150002e+60
-4.09716497e+62
2.99245321e+62
-2.08609638e+62
-3.82419089e+62
4.68105495e+62
5.77076586e+62
6.68933264e+63
1.67192918e+64
5.68374199e+63
6.04108725e+63
3.32694146e+63
8.86038848e+63
-5.43850952e+62
-3.24944320e+63
2.06612371e+64
-1.79966399e+64
9.37636909e+64
7.98394788e+64
-6.53257873e+66
2.70235332e+65
-7.12322427e+64
-2.70870617e+64
-4.73259771e+64
1.97256839e+64
3.16890792e+64
1.57454409e+64
-3.13362857e+64
1.02265343e+65
2.75226942e+65
-7.28646056e+65
7.86828533e+65
-2.73469468e+65
-1.13403876e+66
6.45351654e+64
-3.20337519e+64
-2.60086890e+64
-2.28879430e+64
-6.31699976e+64
-2.16217247e+65
-1.55052920e+65
-2.19587443e+65
6.85160448e+64
2.28573115e+64
5.28923422e+64
-3.65321780e+64
-6.88766119e+63
2.35606306e+63
3.19379435e+64
1.44029544e+63
3.04424230e+62
1.87201290e+63
5.64442246e+62
-1.79260406e+62
6.05113176e+61
-5.00691084e+61
8.24608815e+61
3.79023051e+61
9.77804385e+60
7.28598020e+62
-2.96330439e+61
-4.88950175e+61
-3.89302905e+61
-1.81354059e+60
8.61918041e+60
2.34265417e+59
4.48462961e+59
-4.60274174e+59
3.39520000e+59
5.84559112e+58
-7.22432709e+58
-6.66921280e+57
1.49869626e+58
8.64706100e+57
5.00311833e+57
-7.78749921e+55
-3.66846274e+57
-1.32740235e+57
-6.02137091e+57
-2.45401891e+57
-5.73922774e+56
3.55970745e+55
7.24023869e+55
-1.76216484e+55
-5.57989381e+54
1.37197194e+55
-3.86469816e+54
-4.14911975e+52
-1.03830955e+54
-1.13438867e+54
-1.80654822e+53
-1.72202541e+51
5.77071582e+51
-6.39758354e+50
9.02535298e+51
9.74274841e+51
-1.05155728e+50
-1.46740848e+47
-4.13387619e+46
-3.14169738e+47
-1.01561851e+47
-2.16644435e+46
3.62276572e+45
-1.35831599e+45
-3.69093951e+45
-5.66042283e+44
-2.09598577e+42
7.33962353e+42
9.25764917e+41
3.15628043e+41
-3.56031771e+40
-1.02975105e+40
-2.86977486e+38
-1.90818724e+60
-8.02353796e+59
-6.26041983e+60
-1.32820253e+61
-1.19635063e+62
-1.08273831e+62
5.72835098e+61
-2.43570027e+62
4.41555275e+62
-1.10273208e+63
1.41173909e+62
1.48725870e+63
3.90921297e+63
3.15112984e+63
-2.47947789e+63
2.17238955e+63
-6.01720434e+63
1.32191694e+64
2.00760540e+63
-1.02076719e+63
-1.20417142e+64
2.17249280e+64
3.92896240e+63
-3.06104042e+64
-1.27789762e+65
5.46411404e+64
5.78618502e+65
-7.43276621e+63
-1.26502553e+63
-9.36854060e+63
4.14034011e+63
9.86097279e+62
6.53825456e+64
1.87629724e+66
1.47478512e+66
-2.53390120e+65
-2.44311124e+63
-1.89136435e+65
-4.14364559e+65
1.01523055e+66
-3.49946034e+65
-5.23806786e+63
5.13730151e+63
4.86524476e+64
1.42052453e+66
-3.30973141e+66
9.73341808e+65
3.52098179e+66
-5.81603861e+65
-1.29339135e+65
-1.05747647e+65
-5.88706984e+63
-8.49204859e+64
-1.66025076e+64
1.06948255e+65
2.43264234e+65
1.33448943e+65
1.41661269e+65
-8.79771603e+64
7.28328847e+64
-3.32802944e+63
2.04411454e+64
-1.06875900e+65
2.84774774e+64
9.33791699e+62
-6.44430690e+63
-7.30829051e+62
9.56532316e+62
4.54141420e+62
-8.32130188e+61
3.89535010e+62
1.67658931e+63
2.67371101e+63
-3.59868228e+62
-3.30688998e+62
-1.64907956e+63
4.36544766e+62
-1.79578643e+62
-5.96207278e+61
-1.21379835e+62
-1.50862248e+61
1.04886372e+60
-1.66690009e+60
9.10288784e+59
2.90465638e+59
-8.83427294e+58
-8.88040277e+57
-1.14160623e+58
1.40148377e+58
1.26970939e+58
5.88209589e+57
3.23822802e+58
5.63263761e+58
1.18178188e+58
-2.97623460e+57
-9.03503870e+56
-5.48834564e+57
5.65970093e+57
-6.47071185e+57
2.22562453e+57
1.02238161e+57
3.01250883e+55
-4.47441817e+54
2.82726164e+54
1.83521917e+54
-5.17746875e+53
-1.64727829e+53
2.72088452e+52
-1.60592587e+51
-3.24900628e+52
9.42365270e+50
-1.72106789e+49
-1.58670657e+47
1.36268995e+48
3.53722954e+47
-1.01714842e+47
-1.37004115e+47
3.65014779e+45
-8.83339435e+45
-2.14295326e+45
1.66635321e+44
-3.92337521e+43
4.86625154e+42
-1.70554702e+42
-1.56199864e+40
2.44922031e+40
1.04726321e+40
-6.13075218e+38
-1.09468712e+60
-6.55568953e+60
-1.32832904e+61
-4.48083360e+61
2.48864183e+62
-1.04929018e+60
-3.73039923e+62
-3.58368383e+63
4.32131660e+63
-3.51697439e+62
-1.51015798e+63
4.85780931e+63
-2.46244144e+63
-1.59073763e+64
1.51444237e+64
-1.62756736e+64
-8.65464118e+63
1.55670070e+64
5.91686836e+63
-1.96933705e+64
7.74208581e+62
-5.37705960e+64
5.06730091e+64
8.57818647e+63
4.22443845e+65
-1.90685457e+66
4.15931675e+65
3.52104675e+63
-2.25629088e+63
-5.18671079e+63
-2.24386252e+63
6.66324373e+63
-1.57329781e+64
-6.93819391e+64
-5.72267486e+64
1.10878712e+65
-8.55202989e+64
-4.86319969e+65
3.39639547e+65
2.47264153e+65
-3.34779902e+65
4.23829941e+65
-4.75459009e+65
-3.77800982e+64
7.06744722e+65
-6.87131471e+65
-8.17556514e+65
-8.42651844e+65
6.34159620e+65
8.92596354e+64
2.48376384e+65
7.08134801e+64
1.26341139e+65
1.05075231e+65
1.28181385e+65
6.24867854e+64
3.53991612e+64
5.21999522e+64
-7.78902215e+64
-1.37415236e+64
-3.59751181e+64
1.37281442e+65
9.20551352e+63
6.78488368e+62
2.11743387e+63
1.69475485e+63
2.98134996e+62
-9.29553158e+62
1.52804278e+63
-5.28750542e+62
-1.37521917e+62
-3.02530601e+62
-7.01066648e+63
7.75942692e+61
-7.78361494e+62
9.17157173e+62
7.01432371e+62
-4.89804170e+62
3.35320453e+61
1.51705942e+62
-1.07240444e+62
-2.71490793e+59
2.35517876e+60
-1.89840651e+59
-1.97314084e+59
-2.94550600e+59
-2.06679706e+59
-2.78584605e+59
8.84249932e+58
1.03713226e+58
5.67923561e+58
1.17815154e+58
-1.71682507e+59
-1.82948611e+59
8.75506628e+58
-2.17309392e+58
-5.40620530e+56
5.98071765e+57
-3.55219761e+57
-2.18423111e+57
7.69756066e+57
8.50834515e+56
-1.25865047e+56
-2.67571161e+55
-1.94640194e+55
-2.03315441e+53
-2.09220451e+54
-1.89392232e+53
-3.24487961e+52
3.66570043e+51
-1.97823770e+51
8.46417961e+49
-6.21389711e+48
8.56118905e+47
-7.78938110e+47
2.57954504e+47
-2.64893522e+47
9.52860395e+45
2.02201581e+46
-1.89921255e+46
-6.08679182e+45
-4.16770682e+44
6.86048671e+42
8.29840722e+41
1.23148624e+41
-1.33122113e+41
-2.45846901e+40
-1.38873667e+39
1.25439244e+61
-4.67499541e+60
-3.29282443e+60
-2.13443875e+62
6.99856966e+61
-4.29463089e+62
-2.01695601e+63
-3.42840324e+63
1.27726310e+64
1.14392905e+62
-4.25035628e+63
-1.61272749e+63
-1.22544643e+63
-5.76690652e+63
4.31713612e+64
-1.03718703e+65
5.65110202e+64
-5.69130634e+64
9.27535737e+64
-1.36980550e+65
1.83010780e+65
3.67919756e+64
-7.41307749e+63
9.72188946e+63
6.18800916e+65
1.76010235e+64
-1.98162428e+64
-4.71897065e+64
-2.78826451e+64
-1.35739276e+64
9.48391047e+64
-7.94826489e+64
1.38776775e+65
-2.05119039e+65
-8.23659079e+64
3.35647559e+65
2.87131716e+65
-7.49302835e+65
1.94135857e+66
-6.44509239e+65
-3.08936507e+65
-8.81922085e+64
5.05178069e+65
-6.68942339e+65
5.30861919e+65
-3.66598718e+65
1.45135928e+65
1.32670836e+65
-1.09950750e+65
-3.35506476e+65
5.88168479e+64
-2.33453854e+65
2.05737287e+65
-6.45567132e+65
1.08976651e+66
-1.01047722e+66
-1.28991228e+65
1.16661252e+65
-1.67182163e+65
2.11774518e+65
-3.72786883e+65
1.09835351e+65
3.58156345e+64
-2.69412817e+64
-8.82162851e+64
3.58323254e+64
1.93045201e+64
7.93828527e+62
-2.19321080e+63
-3.37805622e+63
2.07538116e+63
6.20742762e+61
2.40078540e+63
-3.20998746e+64
3.49401430e+64
-7.93764160e+63
9.95332368e+62
-7.99568770e+62
-1.83848168e+62
4.17120252e+61
2.08361122e+61
-2.65216395e+61
-9.05606076e+59
-1.34727427e+60
-1.31202947e+60
7.35013316e+60
2.70039371e+59
1.19650174e+60
1.96006657e+59
-8.74130149e+58
1.06498907e+59
-1.44238314e+59
4.01911253e+59
-1.00965692e+59
8.29999147e+58
-2.96133045e+57
2.56656337e+57
-6.50379789e+57
-2.78180522e+57
-1.08402158e+58
-3.60614146e+57
8.74844179e+57
-3.46987660e+56
-2.79492731e+55
4.35722937e+55
5.17976301e+54
-1.50395705e+54
-1.60269723e+54
-4.04173275e+53
-3.32332407e+52
-1.11469926e+51
-3.51525398e+50
-1.26812972e+49
2.19210013e+48
-4.48308240e+47
-2.88800162e+48
2.60022114e+47
-9.28187242e+45
5.93851944e+46
9.71109798e+45
-3.09374823e+46
-4.86964844e+45
1.89248540e+43
-2.18314860e+42
1.63784978e+42
3.56076747e+40
-2.28671450e+40
-2.58135341e+39
-3.69749243e+62
-6.23115947e+62
-8.17272070e+61
3.76885062e+62
-9.79284321e+62
4.85322795e+63
-5.69448312e+63
3.09321798e+63
-1.09737806e+63
2.23321094e+64
-3.02194736e+64
8.36662138e+62
1.31510960e+65
-7.96790880e+65
8.36853943e+65
-1.37753169e+64
-3.75375698e+64
-8.05896274e+64
1.62989591e+65
-3.72011488e+65
-5.99121941e+65
-7.97374447e+61
-3.13623604e+65
5.26519217e+65
1.43442081e+65
4.27341395e+64
-3.57382334e+65
1.76369229e+65
-1.40505325e+65
2.05332682e+65
4.60826057e+65
-1.88828176e+65
1.73515787e+63
-1.04632567e+65
1.49079015e+65
-2.24663682e+65
-1.47478934e+65
-6.20399969e+64
-8.46123459e+65
8.97493956e+65
-1.37994630e+66
-2.28178959e+65
1.38302711e+65
1.91731539e+64
7.19903311e+65
4.80261787e+64
-5.72546648e+65
-6.28999718e+65
-9.37734585e+65
-3.04666989e+65
2.58013324e+65
-4.73205846e+65
2.60498512e+65
-7.73439481e+65
1.16277528e+66
7.98288735e+65
3.96536200e+65
2.26707523e+65
3.34548700e+64
6.68782663e+64
3.79359626e+64
-1.28652606e+65
4.09194487e+64
-1.32984213e+65
1.63462406e+65
5.13219912e+64
8.85588751e+63
-4.34042923e+64
3.14639233e+63
2.86915614e+63
4.85140906e+63
-1.03396829e+64
1.45644620e+63
-7.17856762e+64
1.56219017e+65
-7.30671971e+64
9.61396724e+62
-2.82684947e+62
2.57961216e+62
-5.52668675e+61
-4.65889059e+61
4.13941253e+61
8.76305278e+60
6.86877287e+60
-2.67474759e+61
6.07961721e+60
-6.70881372e+59
6.37273894e+59
-1.16581344e+60
1.49149023e+59
1.09714404e+60
-1.18555547e+59
-5.56890710e+59
-1.54201862e+59
-1.31152607e+57
3.55204213e+58
1.84454316e+58
3.54648338e+58
4.62542840e+58
-3.07628950e+57
-1.10618134e+58
1.20616750e+58
-1.77958955e+56
1.96528713e+56
1.19867683e+56
6.91226981e+54
-7.93387811e+54
1.83651799e+54
-1.63476404e+54
-7.88758769e+52
5.71895852e+50
3.04941402e+50
-9.31035130e+48
-1.84403934e+49
1.01081193e+49
-2.35159286e+48
-7.86153851e+47
-1.55742850e+47
-8.11089024e+46
1.36474384e+46
8.20891489e+45
-2.89110498e+46
6.52225401e+42
3.42792720e+42
8.02514829e+41
2.24097069e+41
-2.69277997e+38
-3.18386632e+39
3.76643860e+62
6.40001023e+62
8.18882802e+61
-9.24065693e+61
-1.73038049e+63
-1.12939401e+63
-3.85715029e+63
8.24763696e+63
4.31819332e+63
8.61921752e+63
-8.20687693e+63
-1.92981892e+64
1.78351445e+66
-3.71512365e+66
1.69346066e+66
-1.57337267e+65
-1.29489936e+65
2.73420074e+65
-2.78525483e+64
4.46438249e+65
1.25521536e+66
5.44901746e+65
-1.76217688e+66
2.60967846e+65
8.88532413e+65
1.55319474e+66
3.68686512e+65
-4.41676446e+65
-7.90358832e+65
-2.26078927e+65
6.70320979e+65
3.36997957e+65
3.52127146e+65
3.96906744e+66
4.99296720e+65
-8.18529816e+66
-5.38559863e+66
-2.01148224e+67
-5.60349798e+66
-6.69128096e+66
7.96635539e+64
1.90576682e+66
3.69018845e+64
4.95199258e+65
2.18182482e+66
-3.13317015e+66
2.77258993e+66
6.99351950e+65
1.79560645e+66
3.05710518e+65
-4.02927096e+65
-2.39233842e+65
8.60645015e+65
4.73665938e+65
-3.16350545e+65
-1.40741759e+66
-8.46217540e+65
-9.69500526e+65
-6.58263263e+65
-1.58972518e+65
-8.37828618e+64
4.23872451e+64
2.16816672e+64
-3.53914348e+64
2.12840105e+64
-1.67503726e+65
1.03220020e+65
-2.09895599e+65
5.42651704e+64
-1.32170923e+63
3.18794736e+64
-1.16901673e+64
1.91821943e+62
-8.92006740e+63
3.11312456e+64
-3.19851302e+64
1.69434707e+63
-7.23737785e+62
-5.09204563e+62
4.13948440e+62
1.62449257e+62
-1.54680406e+62
-1.32744042e+61
6.91291684e+60
-1.35016458e+60
-1.57820489e+60
9.42748452e+59
8.73883179e+59
1.02753619e+60
-1.86606909e+60
-2.48918717e+60
-3.21177715e+59
5.46209810e+59
1.29749432e+59
-8.83737082e+58
-1.08639144e+59
2.61491790e+57
-7.79834542e+58
-1.41224256e+59
-2.76701432e+58
-1.22137779e+58
8.37116143e+57
-1.23560563e+57
1.54955574e+56
-1.48049206e+56
1.37375898e+55
-1.78883748e+55
-1.85104753e+54
-1.75960094e+54
1.01154914e+53
-6.78553514e+51
-2.88960091e+51
2.25047338e+50
-4.49802608e+49
-4.76895882e+48
-1.79115426e+48
-4.68158757e+47
8.95960333e+47
-1.55723909e+47
-6.38922614e+46
4.80867145e+46
-5.11704203e+46
-4.84087584e+43
-1.53878752e+43
-9.62858401e+40
1.26885649e+42
8.03513665e+40
-6.36976716e+40
1.37262645e+62
-4.21294258e+62
2.36730870e+62
1.57166376e+63
1.08632087e+63
4.79151408e+63
-4.80744328e+63
-1.22898794e+63
-2.12020148e+64
-1.84132808e+63
9.02531781e+63
1.51465146e+64
7.10001464e+65
-5.19849015e+65
1.19251477e+65
1.90509394e+65
-3.67188078e+65
4.43519307e+64
-8.39227645e+65
1.35305750e+66
-1.44571966e+66
4.75364411e+64
9.93208289e+65
2.15489714e+66
-1.70431402e+66
-7.22192736e+66
1.98748691e+66
5.46746611e+66
-1.77581685e+66
-9.64497669e+65
1.32503443e+66
4.04963022e+65
6.94585605e+66
6.40000159e+67
5.46547716e+65
6.49822539e+67
9.00042521e+66
2.56758031e+67
-3.68854856e+67
1.85496999e+67
-1.62770599e+67
3.88087121e+67
-1.51589932e+67
1.63829702e+66
-6.39921731e+65
-1.91810224e+66
5.23909595e+66
-2.46685862e+66
-9.25209909e+65
1.99208052e+66
-4.86230922e+65
-1.01175494e+65
-3.61847143e+65
3.70348941e+65
3.21310606e+65
1.14378079e+66
-1.32306991e+65
8.60547801e+65
2.62670040e+65
-7.55061010e+65
1.32876689e+65
1.82963319e+65
5.38983231e+64
-1.88989324e+65
7.67525314e+64
1.06925159e+65
1.50489484e+65
-3.62285188e+65
5.78895834e+65
-2.27457451e+65
1.18051246e+64
-1.63304268e+63
-1.91910305e+61
2.53902393e+63
7.34605741e+64
1.15315235e+65
-2.01425122e+63
-2.70702314e+62
-1.71513529e+63
1.26361895e+63
9.86173951e+61
-3.12533645e+61
-7.97002565e+61
-1.46188775e+61
-5.42317350e+60
-8.97388194e+60
8.58035153e+60
-1.21928095e+60
3.91136408e+59
3.05975070e+59
2.49757959e+60
-2.67673000e+59
-6.94919389e+58
7.10133837e+58
1.17253954e+59
-1.66095374e+59
-1.77472729e+58
3.33189478e+58
1.52236952e+59
-1.33883935e+59
-2.53469954e+58
1.27001329e+58
-1.42813252e+57
-5.00948120e+56
7.79155196e+56
-2.34252592e+56
-3.37239222e+55
7.31992945e+54
-1.55841042e+53
8.41874643e+52
-8.16206891e+52
-1.76817727e+53
3.40818862e+51
-9.87857173e+49
3.07358215e+49
-9.66298440e+48
-1.42184853e+48
1.91424616e+47
2.52932461e+47
1.73918676e+47
6.04759937e+46
-4.82159288e+46
-3.47069977e+44
-1.46029385e+43
-7.03144403e+42
2.05970924e+42
-5.89491775e+41
4.52720462e+41
-7.61905337e+63
1.40540514e+63
-3.06831595e+63
1.36507155e+63
-5.01850770e+63
8.81761273e+63
8.39539071e+63
9.01417176e+63
2.38409155e+64
-7.75436408e+64
3.27072886e+65
-1.86919092e+65
-1.55881781e+66
-2.42701105e+66
-6.09187561e+65
-1.40725963e+66
-4.05781096e+65
-7.96663952e+65
-1.59494135e+66
3.74424025e+66
-6.55906395e+65
2.55319687e+66
-2.36571764e+66
9.50686352e+65
1.65873831e+66
5.90489029e+66
-1.64085180e+67
-9.54240236e+65
3.80104799e+66
-7.44433241e+66
-1.95683012e+66
-4.03805243e+66
7.37069593e+67
-1.06457987e+68
-8.84684101e+67
7.81136611e+67
-6.06994266e+67
-1.07404494e+67
9.37976516e+66
-1.63578013e+67
-1.22173347e+68
1.05119659e+68
-9.08564703e+67
-1.29171971e+67
3.61728376e+67
7.17215039e+66
3.91095936e+66
-1.50006673e+67
5.28523719e+66
-4.63047477e+65
-1.63718372e+66
1.64421766e+66
2.34060454e+65
-1.97583077e+66
-2.28924067e+66
-6.45434232e+65
5.26442980e+65
5.16592177e+65
1.55827524e+66
-1.40292539e+66
-4.00745485e+64
-1.28733058e+65
2.20750132e+65
-3.48004592e+65
5.71678462e+65
-2.58378538e+64
-2.33685960e+64
9.78320594e+64
7.30922933e+64
-1.22722896e+65
4.10015218e+63
7.95503748e+63
-2.48555202e+63
-4.19609219e+62
-4.32319750e+64
-2.97976243e+65
-4.45363734e+64
-1.36490154e+62
-1.71521576e+63
6.66799571e+62
1.06979020e+62
1.18322479e+62
-5.33450691e+60
6.60751336e+61
4.95695370e+60
-8.59941864e+61
7.90917689e+60
2.59871534e+60
4.46674197e+60
4.49138012e+60
-1.90330884e+60
2.78219021e+60
-3.71887398e+58
-2.64380482e+59
1.75327965e+59
-2.13190702e+59
2.05843325e+59
-7.73186701e+58
7.20422810e+58
9.10571034e+57
5.48044691e+57
1.15514873e+58
5.60794302e+56
-1.28518169e+57
-3.01016320e+56
2.98139567e+55
5.16980858e+55
-1.03636484e+54
1.65011533e+54
3.09122497e+53
8.19916567e+53
1.16608744e+52
-5.70862669e+51
-8.30890547e+50
-1.27766508e+49
-1.69783774e+49
-1.58161063e+48
1.30937150e+47
1.48949337e+48
9.80867742e+47
1.60458495e+47
-9.34442946e+46
-5.61200611e+44
5.34834674e+43
-1.41634856e+43
2.99538084e+42
-2.00106178e+41
1.24908072e+42
-3.72060192e+64
1.46887541e+64
-7.25518454e+62
4.98093346e+62
8.83916606e+62
3.28258106e+64
2.63985726e+63
3.89639909e+63
-6.32451113e+63
-8.20715214e+65
1.69737720e+66
-9.67495459e+65
4.99857305e+65
5.51927186e+66
1.85619627e+66
1.64631985e+66
-9.97771693e+65
-4.87593269e+66
-1.72384962e+66
-4.61207497e+66
-4.49888686e+66
-3.88442039e+66
-4.11951959e+65
-1.26186717e+67
-3.00808511e+67
-2.70043151e+67
-5.94881217e+67
4.13399913e+67
1.39594719e+67
7.33688592e+66
-3.18924834e+66
-1.32444748e+67
1.78105545e+67
-3.29141029e+67
1.26930124e+68
1.84483596e+67
1.25678830e+67
-1.01352377e+67
1.95345593e+67
-2.13751257e+67
7.56152508e+67
7.89788789e+67
-2.30348505e+66
-5.97349812e+67
-2.09261017e+67
-6.94276899e+66
6.23169328e+66
-7.32603965e+65
5.60003260e+66
-1.04985787e+66
3.39877974e+66
2.31653273e+66
-1.20224217e+67
-2.15685313e+67
5.62933492e+67
1.52532821e+67
-1.06763217e+66
-1.58958399e+66
1.00583684e+66
-7.90199966e+65
-2.47147664e+65
3.19376814e+65
-3.65414236e+65
-1.71815937e+65
-1.61198922e+65
-9.97607371e+64
-7.97211005e+64
-7.56674320e+64
-7.04381315e+64
-1.38159905e+64
-4.12985533e+64
8.40003719e+63
2.05969050e+64
-4.29918908e+64
-2.69779274e+64
1.29231804e+65
6.63725629e+64
-3.18183560e+62
4.05038052e+62
-1.09031303e+63
1.82328457e+62
-1.02903630e+62
-1.10030153e+62
9.36454625e+61
6.58100261e+61
-1.36771353e+60
-5.66697694e+60
-2.68007720e+60
2.43957443e+59
-6.16989114e+60
-4.22197948e+60
1.64717946e+60
-1.48690295e+60
-7.30293734e+59
3.98897884e+59
-2.45377782e+59
-3.03118994e+58
1.55020005e+59
1.40311679e+58
-2.70291000e+57
1.78077267e+58
3.96916431e+57
4.44899017e+57
8.91909842e+56
-1.95820772e+57
-1.40027972e+56
1.57609683e+56
-1.98635488e+54
3.28561506e+54
-1.56004613e+54
-2.48279785e+53
2.95384612e+53
9.17998926e+51
5.98176204e+50
1.08332635e+50
4.50782312e+49
-3.27503300e+49
7.09294744e+48
-2.69351764e+48
7.87989032e+47
1.69857973e+47
-4.28515260e+46
5.23454054e+44
4.42167454e+44
1.34305696e+44
1.05395334e+44
-2.35350995e+43
5.36510177e+43
-1.25949700e+64
1.07097897e+64
7.75301881e+62
1.09999721e+64
5.32915647e+64
-4.76737561e+64
-4.71431635e+64
1.30284850e+64
7.18814963e+64
-4.36204024e+65
5.48692493e+65
-7.12918579e+65
3.96599698e+65
-3.59778819e+66
5.20838357e+65
2.41981681e+66
-3.31896454e+66
-8.08904836e+66
-3.02285919e+67
-1.71496259e+68
-6.91356758e+67
-6.99101035e+67
-1.76117123e+67
5.02088437e+67
3.10460275e+67
1.47117703e+68
-1.23568639e+68
-1.30644016e+68
6.91562034e+67
1.50770715e+66
-8.68868226e+66
-1.94569945e+67
1.86509567e+66
-5.46699193e+67
-1.03000233e+68
-2.72703502e+68
6.28483659e+67
-5.25235125e+66
-2.77530829e+66
9.65815636e+66
-5.64276128e+67
-1.18443904e+67
-2.42873002e+67
-8.95661716e+67
-2.87393412e+67
-2.70936786e+67
-4.04262406e+67
-2.55497678e+66
-2.81150152e+65
-3.24361082e+66
-5.37818790e+65
2.51774256e+67
-1.68856807e+67
-2.67459227e+67
-1.20380369e+68
9.97839876e+67
2.07483814e+66
1.84261814e+66
1.32996208e+66
1.88481011e+66
-1.26045429e+66
-3.75864171e+66
-5.31929914e+65
1.58781961e+66
9.77832884e+64
-1.30283762e+65
1.00288370e+65
-1.58683171e+64
3.54595277e+64
8.91304615e+63
4.41475239e+64
-1.52215360e+64
-2.28620494e+64
1.09465971e+65
6.33563750e+64
2.03695130e+64
8.44441470e+63
2.51163081e+64
6.21338587e+63
5.13802237e+62
5.34366634e+62
1.45683788e+62
-3.11948137e+62
2.59040318e+62
-6.57210036e+61
6.36410193e+61
-7.02196439e+60
2.21339280e+60
-3.60613788e+60
-5.58121564e+60
8.30594574e+60
4.32249138e+59
6.11384293e+60
-1.15167880e+59
-1.08892577e+60
5.46964638e+58
9.73569501e+58
7.69339867e+58
-6.56631308e+57
3.52053718e+58
-3.55996359e+58
-6.31684381e+58
-3.34242960e+58
1.28403822e+58
3.64945416e+56
1.60640090e+56
1.24922973e+56
-9.84832354e+54
3.48202464e+52
-8.89248296e+51
-2.68562776e+53
9.07872857e+52
-1.30523678e+52
-1.87249547e+51
2.48345799e+48
1.16472530e+50
-3.77557793e+49
3.71507842e+49
2.04252524e+49
4.95081215e+48
-3.24322336e+47
-1.29714793e+46
3.54224129e+46
-6.30567454e+44
2.57887751e+45
1.08349744e+45
-8.52564753e+43
-2.53766690e+43
-3.47684380e+63
3.38127008e+63
-1.13597178e+64
5.13311336e+63
-9.58373808e+63
-7.52001055e+64
1.16086507e+64
1.80427169e+65
8.28901254e+64
-5.05195447e+65
6.30653682e+63
1.72678749e+66
-9.53139567e+63
5.41708987e+66
4.47733783e+66
-3.66012819e+66
1.89828581e+66
-7.68679444e+67
-5.93160091e+67
1.84873418e+68
1.67878768e+68
2.68819615e+68
-1.28221854e+68
-1.22642747e+68
-1.96519529e+68
-2.73696623e+68
5.33406147e+68
2.64066913e+68
4.23535953e+67
8.43239438e+67
-1.11904538e+68
-2.69005620e+67
4.16893606e+67
4.53539766e+67
1.05731238e+68
8.95371874e+67
1.49339428e+68
7.53766582e+67
-9.18734911e+67
-1.36233523e+68
-5.55260136e+68
9.47793794e+67
4.84998949e+67
2.15051658e+68
-9.22539202e+66
1.21490939e+68
7.19052260e+67
1.50409770e+67
-4.42668846e+65
-7.38841149e+65
5.08811412e+66
3.44457993e+67
-9.41832517e+67
1.36177304e+68
-6.64557980e+66
4.77149029e+67
-4.86249698e+65
9.23335471e+65
-6.46284253e+66
5.42291455e+66
9.59241695e+65
7.54506043e+66
-4.52268892e+66
-1.66868575e+64
-5.00834490e+66
-3.73076615e+64
-2.61181190e+64
1.36558433e+65
6.27753923e+64
-1.96432544e+63
1.31392652e+64
-2.32873674e+64
7.60614951e+63
-6.71187850e+64
5.69249532e+64
-9.30562877e+64
-9.91632926e+63
-2.03642274e+64
1.67987006e+64
7.09239288e+63
1.39121116e+63
3.60327217e+62
2.38952171e+61
-1.66537257e+62
-9.84281941e+61
5.54316819e+61
-3.11075527e+61
-3.59520002e+60
6.90211375e+60
6.31897447e+60
-1.60089983e+61
-3.74321619e+60
-4.03186496e+60
-3.20583901e+60
2.31108316e+59
5.23482440e+59
-2.80486567e+59
1.69974523e+59
3.24578686e+57
5.11093086e+58
2.74392127e+58
1.91847140e+58
9.97813239e+58
1.48297133e+58
-2.21708816e+57
2.68489052e+56
2.87057152e+56
-4.80765721e+54
1.08667600e+54
-2.53445443e+53
-2.77775604e+53
2.33562269e+53
1.27787674e+52
4.47129602e+51
-1.36133089e+50
1.31077533e+50
4.30312418e+49
5.23798485e+46
-4.67676719e+49
-1.07307806e+49
1.16597159e+48
7.67780774e+46
-5.85615542e+46
-3.81612239e+45
-2.31714373e+45
-5.73803140e+45
2.59591436e+45
-2.89206306e+44
-4.54590948e+63
1.83772856e+64
-1.90342197e+64
5.13075785e+64
-5.23543231e+64
7.08972848e+64
-3.34978528e+64
-2.76258426e+64
1.59099378e+65
5.22634551e+65
-4.02003382e+66
-3.71732047e+66
-2.92252338e+65
6.58116147e+66
-6.95515517e+66
3.61684567e+67
-3.99669863e+67
-2.85468106e+68
3.17758329e+68
3.35700409e+69
1.25312578e+69
-6.07241387e+68
-1.44783436e+67
6.34678498e+68
-3.92929701e+68
-4.70575006e+68
-1.16287500e+69
1.52994462e+69
3.94343120e+68
6.45187016e+68
-5.96624261e+67
-4.58568433e+67
3.87945235e+67
-2.40337675e+67
-1.66360218e+66
-4.61579522e+67
1.09119181e+68
-3.18630168e+68
1.40144424e+68
4.48492448e+68
5.84539673e+68
-4.22211452e+68
1.48672684e+67
-1.21216572e+68
-1.29431271e+66
-2.17679583e+68
9.20701163e+67
9.04326029e+66
8.05738423e+66
-1.98482913e+67
-1.29127701e+67
5.95603450e+67
-8.65866912e+67
-6.22060865e+67
-1.61543828e+68
7.46893686e+66
2.00363924e+67
-3.90360899e+67
-3.27501866e+67
-1.24747446e+67
-3.30709253e+66
2.90697638e+66
-1.25883455e+67
-1.16626397e+67
1.86368797e+66
3.70481474e+66
1.99889893e+66
1.74955454e+66
4.86219733e+65
8.02281213e+64
-3.07827886e+64
2.75684712e+64
-1.86054634e+65
2.64612993e+64
3.97159532e+65
1.26636122e+65
3.81257374e+65
1.20993257e+65
-7.18048548e+63
1.37359334e+64
-3.88068416e+63
-1.46783390e+62
6.86192909e+62
-4.08765591e+60
4.54343449e+61
1.52701288e+62
-6.10732981e+61
-1.25730910e+61
1.32845563e+60
9.37430460e+59
1.03383883e+61
8.20264518e+60
-5.74603130e+60
1.05737503e+61
-1.42589364e+60
-1.39870942e+60
-2.52068672e+60
-7.14987836e+58
-1.22335350e+59
2.85661872e+58
-4.05459283e+59
5.53253819e+58
-8.10395552e+58
7.88253321e+57
-9.11374844e+57
1.04836661e+57
4.06837057e+54
3.14155526e+54
6.80340241e+53
9.00982273e+52
1.22848654e+53
4.00113135e+52
-3.32055100e+52
-1.02456996e+52
-2.03614303e+50
2.59661069e+50
2.69879377e+49
3.58332979e+48
2.24484138e+49
6.75621849e+48
-7.80565602e+47
4.43547825e+46
4.94899164e+46
3.60022836e+45
5.41300531e+45
-2.59198448e+45
6.73870648e+45
-4.42626287e+45
-5.53181120e+63
-6.08636480e+63
-2.12112843e+64
2.49674591e+64