# vtk DataFile Version 2.0
LBM Flow Field - Timestep 380
ASCII
DATASET STRUCTURED_POINTS
DIMENSIONS 128 128 1
ORIGIN 0.0 0.0 0.0
SPACING 1.0 1.0 1.0
POINT_DATA 16384
SCALARS density double 1
LOOKUP_TABLE default
1.31642996e+00
1.29947781e+00
1.27960060e+00
1.25966405e+00
1.24062062e+00
1.22147176e+00
1.20365326e+00
1.18568909e+00
1.16940595e+00
1.15294687e+00
1.13841278e+00
1.12368780e+00
1.11101421e+00
1.09815477e+00
1.08735552e+00
1.07639765e+00
1.06740201e+00
1.05829580e+00
1.05096728e+00
1.04359192e+00
1.03774968e+00
1.03193200e+00
1.02737196e+00
1.02290614e+00
1.01941949e+00
1.01608601e+00
1.01347351e+00
1.01105562e+00
1.00913724e+00
1.00743391e+00
1.00605393e+00
1.00488868e+00
1.00391719e+00
1.00314276e+00
1.00247454e+00
1.00197393e+00
1.00152586e+00
1.00121045e+00
1.00091839e+00
1.00072409e+00
1.00053959e+00
1.00042212e+00
1.00030953e+00
1.00023957e+00
1.00017339e+00
1.00013223e+00
1.00009485e+00
1.00007092e+00
1.00005065e+00
1.00003695e+00
1.00002638e+00
1.00001870e+00
1.00001338e+00
1.00000920e+00
1.00000660e+00
1.00000440e+00
1.00000315e+00
1.00000205e+00
1.00000146e+00
1.00000093e+00
1.00000065e+00
1.00000042e+00
1.00000028e+00
1.00000018e+00
1.00000012e+00
1.00000008e+00
1.00000005e+00
1.00000003e+00
1.00000002e+00
1.00000001e+00
1.00000001e+00
1.00000000e+00
1.00000000e+00
1.00000000e+00
1.00000000e+00
1.00000000e+00
1.00000000e+00
1.00000000e+00
1.00000000e+00
1.00000000e+00
1.00000000e+00
1.00000000e+00
1.00000000e+00
1.00000000e+00
1.00000000e+00
1.00000000e+00
1.00000000e+00
1.00000000e+00
1.00000000e+00
1.00000000e+00
1.00000000e+00
1.00000000e+00
1.00000000e+00
1.00000000e+00
1.00000000e+00
1.00000000e+00
1.00000000e+00
1.00000000e+00
1.00000000e+00
1.00000000e+00
1.00000000e+00
1.00000000e+00
1.00000000e+00
1.00000000e+00
1.00000000e+00
1.00000000e+00
1.00000000e+00
1.00000000e+00
1.00000000e+00
1.00000000e+00
1.00000000e+00
1.00000000e+00
1.00000000e+00
1.00000000e+00
1.00000000e+00
1.00000000e+00
1.00000000e+00
1.00000000e+00
1.00000000e+00
1.00000000e+00
1.00000000e+00
1.00000000e+00
1.00000000e+00
1.00000000e+00
1.00000000e+00
1.00000000e+00
1.00000000e+00
1.00000000e+00
1.12553858e+00
1.10468100e+00
1.08938831e+00
1.08478941e+00
1.08479150e+00
1.07485376e+00
1.07451300e+00
1.07469549e+00
1.07153939e+00
1.06772075e+00
1.06920295e+00
1.06795785e+00
1.06942857e+00
1.06785911e+00
1.06991408e+00
1.07031487e+00
1.07163355e+00
1.07190576e+00
1.07250787e+00
1.06811535e+00
1.06913766e+00
1.07535980e+00
1.07827075e+00
1.07840514e+00
1.07630204e+00
1.07481369e+00
1.07321647e+00
1.07938183e+00
1.07458454e+00
1.07148984e+00
1.07179558e+00
1.07116806e+00
1.07174330e+00
1.07163688e+00
1.07067730e+00
1.07046591e+00
1.06925568e+00
1.07324219e+00
1.07388746e+00
1.07286074e+00
1.06705075e+00
1.06777125e+00
1.07089529e+00
1.06719400e+00
1.06324959e+00
1.06214522e+00
1.06185321e+00
1.06629355e+00
1.06738267e+00
1.06768496e+00
1.06403535e+00
1.06265546e+00
1.06001778e+00
1.06210108e+00
1.06548956e+00
1.06273619e+00
1.06051711e+00
1.06122645e+00
1.06121780e+00
1.06278683e+00
1.05881258e+00
1.05665240e+00
1.05769801e+00
1.05873316e+00
1.05605387e+00
1.05854145e+00
1.05574461e+00
1.05353566e+00
1.05724046e+00
1.05627163e+00
1.05371657e+00
1.05387037e+00
1.05438077e+00
1.05366471e+00
1.05183713e+00
1.05411612e+00
1.05025860e+00
1.05088221e+00
1.05307928e+00
1.05059581e+00
1.04929119e+00
1.05105774e+00
1.05119902e+00
1.05043199e+00
1.04886834e+00
1.05070182e+00
1.05225054e+00
1.04939977e+00
1.04850645e+00
1.05006102e+00
1.05031947e+00
1.04760236e+00
1.04793445e+00
1.04743977e+00
1.04988257e+00
1.04743559e+00
1.04822846e+00
1.04707181e+00
1.04835339e+00
1.04836783e+00
1.04704341e+00
1.04564442e+00
1.04827524e+00
1.04849908e+00
1.04468848e+00
1.04440128e+00
1.04546605e+00
1.04622290e+00
1.04494413e+00
1.04599217e+00
1.04352569e+00
1.04556627e+00
1.04513490e+00
1.04179104e+00
1.04404124e+00
1.04505399e+00
1.04356362e+00
1.04511841e+00
1.04705592e+00
1.04593366e+00
1.04078496e+00
1.04018878e+00
1.04321211e+00
1.03943708e+00
1.04125893e+00
1.04273185e+00
1.04263905e+00
1.04060709e+00
1.10306339e+00
1.10018052e+00
1.09904575e+00
1.08829289e+00
1.08123982e+00
1.07972332e+00
1.07961190e+00
1.07394546e+00
1.06866595e+00
1.06987256e+00
1.06895931e+00
1.06933869e+00
1.07085358e+00
1.06697535e+00
1.06886317e+00
1.07313108e+00
1.07519428e+00
1.06869501e+00
1.07070964e+00
1.07080483e+00
1.07006676e+00
1.07177186e+00
1.07699014e+00
1.07969768e+00
1.07768809e+00
1.07577560e+00
1.07265020e+00
1.07588430e+00
1.07377111e+00
1.07120605e+00
1.07046270e+00
1.07130206e+00
1.07426982e+00
1.07522930e+00
1.07313176e+00
1.07411951e+00
1.07120691e+00
1.07196324e+00
1.06811142e+00
1.06854483e+00
1.06893460e+00
1.07207547e+00
1.07042783e+00
1.06548460e+00
1.06288488e+00
1.06528381e+00
1.06445479e+00
1.06455152e+00
1.06556330e+00
1.06773096e+00
1.06196430e+00
1.06068695e+00
1.06216304e+00
1.06330486e+00
1.06643166e+00
1.06220511e+00
1.05768178e+00
1.06114900e+00
1.06050415e+00
1.06394585e+00
1.05980921e+00
1.05344024e+00
1.05572884e+00
1.05764727e+00
1.05780957e+00
1.05203802e+00
1.05421967e+00
1.05837639e+00
1.05455011e+00
1.05268992e+00
1.04918797e+00
1.05231138e+00
1.05431421e+00
1.05372168e+00
1.05018284e+00
1.05185825e+00
1.05320188e+00
1.05128765e+00
1.05354476e+00
1.05141932e+00
1.05127982e+00
1.05093452e+00
1.05060865e+00
1.05061707e+00
1.04944971e+00
1.04999098e+00
1.05201464e+00
1.04844714e+00
1.04780657e+00
1.05010992e+00
1.05148109e+00
1.04806079e+00
1.04771074e+00
1.04749037e+00
1.04860795e+00
1.04705590e+00
1.04682771e+00
1.04866189e+00
1.04811355e+00
1.04827402e+00
1.04641685e+00
1.04556840e+00
1.04777933e+00
1.04965316e+00
1.04430436e+00
1.04480428e+00
1.04797993e+00
1.04447742e+00
1.04322129e+00
1.04453561e+00
1.04544703e+00
1.04745696e+00
1.04495561e+00
1.04086999e+00
1.04385751e+00
1.04546699e+00
1.04267916e+00
1.04173052e+00
1.04829669e+00
1.04488191e+00
1.04091005e+00
1.04186476e+00
1.04194911e+00
1.04173085e+00
1.03874297e+00
1.04130306e+00
1.04337566e+00
1.04230514e+00
1.09341980e+00
1.10200524e+00
1.09339690e+00
1.08526014e+00
1.08302716e+00
1.08474268e+00
1.07714002e+00
1.06868087e+00
1.07130277e+00
1.07610603e+00
1.06808862e+00
1.06645141e+00
1.06753451e+00
1.07235928e+00
1.06942216e+00
1.07179542e+00
1.07427574e+00
1.07329545e+00
1.07107932e+00
1.06917715e+00
1.07210190e+00
1.07514930e+00
1.07499988e+00
1.07702362e+00
1.07594385e+00
1.07584110e+00
1.07357005e+00
1.07143179e+00
1.07120331e+00
1.07225253e+00
1.07238030e+00
1.07029200e+00
1.07439068e+00
1.07438961e+00
1.07169449e+00
1.07197789e+00
1.07209204e+00
1.07066521e+00
1.06638989e+00
1.07211659e+00
1.07220184e+00
1.06736824e+00
1.06422995e+00
1.06597991e+00
1.06882874e+00
1.06444526e+00
1.06418364e+00
1.06303825e+00
1.06437201e+00
1.06719478e+00
1.05902910e+00
1.05722132e+00
1.05996598e+00
1.06504948e+00
1.07027287e+00
1.06107298e+00
1.05174867e+00
1.05594518e+00
1.06284159e+00
1.06483660e+00
1.05688692e+00
1.04836011e+00
1.05368556e+00
1.05793809e+00
1.05700954e+00
1.05025085e+00
1.04760271e+00
1.05927877e+00
1.05616882e+00
1.04972218e+00
1.04847376e+00
1.05381299e+00
1.05323436e+00
1.05004410e+00
1.05136422e+00
1.05429361e+00
1.05084592e+00
1.04980164e+00
1.05223900e+00
1.05231297e+00
1.05057580e+00
1.05088578e+00
1.05057015e+00
1.05215526e+00
1.04887136e+00
1.05061407e+00
1.04972577e+00
1.04760501e+00
1.04696815e+00
1.05046585e+00
1.04956215e+00
1.04910860e+00
1.04677944e+00
1.04782972e+00
1.04851379e+00
1.04820055e+00
1.04252530e+00
1.04865991e+00
1.05216711e+00
1.04620441e+00
1.04429763e+00
1.04644623e+00
1.04846187e+00
1.04685353e+00
1.04448964e+00
1.04461023e+00
1.04920786e+00
1.04399850e+00
1.04282295e+00
1.04440995e+00
1.04451045e+00
1.04818955e+00
1.04361540e+00
1.04142756e+00
1.04684527e+00
1.04193369e+00
1.03993870e+00
1.04326615e+00
1.04743320e+00
1.04559240e+00
1.03826105e+00
1.04321235e+00
1.04147188e+00
1.04000786e+00
1.04021922e+00
1.04214075e+00
1.04059702e+00
1.04082800e+00
1.09824680e+00
1.09217434e+00
1.08522702e+00
1.09439667e+00
1.09235915e+00
1.08026030e+00
1.07567150e+00
1.07880980e+00
1.07530991e+00
1.06926954e+00
1.07046011e+00
1.07149616e+00
1.06786582e+00
1.07291303e+00
1.07296418e+00
1.07371557e+00
1.07356085e+00
1.07434088e+00
1.07189453e+00
1.07173924e+00
1.07334007e+00
1.07592709e+00
1.07618833e+00
1.07828467e+00
1.07674251e+00
1.07424336e+00
1.07419361e+00
1.07486837e+00
1.07469265e+00
1.07333235e+00
1.07243919e+00
1.07085207e+00
1.07268327e+00
1.07272699e+00
1.07281331e+00
1.07075279e+00
1.07160858e+00
1.07361385e+00
1.07278161e+00
1.07062704e+00
1.06779315e+00
1.06321800e+00
1.06670268e+00
1.06668502e+00
1.06436239e+00
1.05982994e+00
1.06738936e+00
1.06895836e+00
1.06634554e+00
1.06294236e+00
1.05494199e+00
1.05646190e+00
1.06315269e+00
1.06918452e+00
1.07012596e+00
1.05843267e+00
1.05112215e+00
1.05772002e+00
1.06658110e+00
1.06184457e+00
1.05214978e+00
1.04858711e+00
1.05671075e+00
1.06178799e+00
1.05280479e+00
1.05027568e+00
1.05036648e+00
1.06169324e+00
1.05960388e+00
1.04797857e+00
1.04613838e+00
1.05749593e+00
1.05939154e+00
1.04746185e+00
1.04791128e+00
1.05780655e+00
1.05177552e+00
1.04652508e+00
1.05005050e+00
1.05418427e+00
1.05100082e+00
1.04902768e+00
1.05051012e+00
1.05185855e+00
1.04924882e+00
1.05090021e+00
1.04893021e+00
1.04655082e+00
1.04880303e+00
1.05199255e+00
1.04819584e+00
1.04676001e+00
1.04950370e+00
1.04771484e+00
1.04636535e+00
1.04795645e+00
1.04497983e+00
1.04956994e+00
1.05130972e+00
1.04642727e+00
1.04293904e+00
1.04626466e+00
1.04819540e+00
1.04681930e+00
1.04282808e+00
1.04787085e+00
1.04913527e+00
1.04263629e+00
1.04294754e+00
1.04521869e+00
1.04630302e+00
1.04824324e+00
1.04198255e+00
1.03927069e+00
1.04746125e+00
1.04432193e+00
1.03569778e+00
1.04475478e+00
1.04664815e+00
1.04264677e+00
1.04071330e+00
1.04452264e+00
1.04433396e+00
1.03800719e+00
1.03748183e+00
1.04218538e+00
1.04076359e+00
1.03894129e+00
1.09926433e+00
1.08853002e+00
1.08847177e+00
1.08953764e+00
1.08562640e+00
1.08546161e+00
1.08479950e+00
1.07860180e+00
1.07336693e+00
1.07245908e+00
1.07342417e+00
1.07474119e+00
1.07313252e+00
1.07367372e+00
1.07527903e+00
1.07597893e+00
1.07665988e+00
1.07082329e+00
1.07265880e+00
1.07600227e+00
1.07572218e+00
1.07717894e+00
1.07645583e+00
1.07130661e+00
1.07551328e+00
1.07581568e+00
1.07334891e+00
1.07345886e+00
1.07417095e+00
1.07404643e+00
1.07650165e+00
1.07596153e+00
1.07209873e+00
1.06805706e+00
1.07165632e+00
1.07203655e+00
1.06886009e+00
1.07342943e+00
1.07638322e+00
1.07116881e+00
1.06798754e+00
1.06627695e+00
1.06549926e+00
1.06106241e+00
1.06008245e+00
1.06095864e+00
1.06557551e+00
1.06822412e+00
1.06868342e+00
1.06615748e+00
1.05579121e+00
1.05214426e+00
1.06157766e+00
1.07096951e+00
1.07226971e+00
1.05697171e+00
1.05056151e+00
1.05452310e+00
1.06481374e+00
1.06481904e+00
1.05493877e+00
1.04768531e+00
1.05339048e+00
1.06133717e+00
1.05779085e+00
1.04688729e+00
1.05368272e+00
1.06096431e+00
1.05741636e+00
1.04836503e+00
1.04943496e+00
1.05471633e+00
1.06026050e+00
1.04797231e+00
1.04918194e+00
1.05985350e+00
1.05275171e+00
1.04053361e+00
1.04936966e+00
1.05626905e+00
1.05177096e+00
1.04584198e+00
1.05042689e+00
1.05210914e+00
1.04839986e+00
1.04976183e+00
1.05120743e+00
1.04807187e+00
1.04814161e+00
1.05220623e+00
1.04742454e+00
1.04548925e+00
1.04932219e+00
1.04986925e+00
1.04680200e+00
1.04547227e+00
1.04346095e+00
1.05139152e+00
1.04941370e+00
1.04495019e+00
1.04433584e+00
1.04661767e+00
1.04668680e+00
1.04671585e+00
1.04325964e+00
1.04718073e+00
1.04847983e+00
1.04094721e+00
1.04207375e+00
1.04527194e+00
1.04618582e+00
1.04981895e+00
1.04324912e+00
1.04067851e+00
1.04437617e+00
1.04141219e+00
1.03562260e+00
1.04436965e+00
1.04887958e+00
1.04214265e+00
1.04163061e+00
1.04421447e+00
1.04349555e+00
1.03723156e+00
1.03747702e+00
1.03999572e+00
1.03936823e+00
1.03957099e+00
1.08615433e+00
1.09218403e+00
1.09565811e+00
1.08410503e+00
1.08438606e+00
1.08864097e+00
1.08290927e+00
1.07536552e+00
1.08027646e+00
1.08192651e+00
1.07411496e+00
1.07154188e+00
1.07801415e+00
1.08244536e+00
1.07274697e+00
1.06874875e+00
1.07423964e+00
1.07347105e+00
1.07549445e+00
1.07657819e+00
1.07534338e+00
1.07518653e+00
1.07660830e+00
1.07264569e+00
1.07435600e+00
1.07302327e+00
1.07259141e+00
1.07282452e+00
1.07313307e+00
1.07573700e+00
1.07443638e+00
1.07301365e+00
1.07376181e+00
1.07174475e+00
1.07174437e+00
1.07060649e+00
1.06962997e+00
1.07335869e+00
1.07126819e+00
1.06921889e+00
1.06675313e+00
1.07049097e+00
1.06476118e+00
1.06118902e+00
1.05836756e+00
1.06026152e+00
1.06409308e+00
1.07199928e+00
1.07007045e+00
1.06417905e+00
1.05160847e+00
1.05433161e+00
1.06402500e+00
1.07359125e+00
1.06761839e+00
1.05280916e+00
1.04949173e+00
1.05728340e+00
1.06381478e+00
1.06370936e+00
1.05047146e+00
1.04683765e+00
1.05483808e+00
1.06191752e+00
1.05884892e+00
1.04197414e+00
1.05024612e+00
1.06560409e+00
1.05334039e+00
1.04273599e+00
1.04966597e+00
1.05804711e+00
1.05709622e+00
1.04700890e+00
1.04689523e+00
1.06067528e+00
1.05460541e+00
1.04242947e+00
1.04918941e+00
1.05633869e+00
1.04904595e+00
1.04551536e+00
1.04831171e+00
1.05370204e+00
1.04905388e+00
1.04947982e+00
1.05053895e+00
1.04893071e+00
1.04823520e+00
1.05165978e+00
1.04647743e+00
1.04598952e+00
1.05067420e+00
1.04778956e+00
1.04653226e+00
1.04472876e+00
1.04589371e+00
1.04764396e+00
1.04756933e+00
1.04494217e+00
1.04869972e+00
1.04708408e+00
1.04672467e+00
1.04517307e+00
1.04482624e+00
1.04775887e+00
1.04655183e+00
1.03970204e+00
1.04338816e+00
1.04697635e+00
1.04606442e+00
1.04703994e+00
1.04214519e+00
1.04133420e+00
1.04657927e+00
1.03918610e+00
1.03830949e+00
1.04708613e+00
1.04577788e+00
1.04111399e+00
1.04308833e+00
1.04465614e+00
1.04057965e+00
1.03505987e+00
1.03910863e+00
1.04103801e+00
1.03804406e+00
1.03994457e+00
1.08363598e+00
1.09107526e+00
1.08836686e+00
1.08708340e+00
1.08983143e+00
1.08348456e+00
1.07990559e+00
1.08396797e+00
1.07820618e+00
1.07414149e+00
1.08162755e+00
1.08246350e+00
1.07756519e+00
1.07394878e+00
1.07419587e+00
1.07927794e+00
1.07530081e+00
1.07519457e+00
1.07174581e+00
1.07539131e+00
1.07616019e+00
1.07518975e+00
1.07497324e+00
1.07538330e+00
1.07423870e+00
1.07635539e+00
1.07684628e+00
1.07391315e+00
1.07090491e+00
1.07628456e+00
1.07382084e+00
1.07249912e+00
1.07315346e+00
1.07214443e+00
1.07471265e+00
1.07491638e+00
1.07134113e+00
1.06942302e+00
1.06635838e+00
1.07157477e+00
1.07024897e+00
1.06721315e+00
1.06116959e+00
1.06309149e+00
1.06242723e+00
1.05918211e+00
1.06220186e+00
1.07103186e+00
1.07051892e+00
1.06447134e+00
1.05436421e+00
1.05324101e+00
1.05824030e+00
1.07265855e+00
1.07217491e+00
1.05794643e+00
1.04574045e+00
1.05197794e+00
1.06494015e+00
1.06584513e+00
1.05095027e+00
1.04540810e+00
1.05174241e+00
1.05885987e+00
1.05950226e+00
1.04990907e+00
1.04359932e+00
1.06208947e+00
1.05384770e+00
1.04467862e+00
1.05051797e+00
1.05762058e+00
1.05312333e+00
1.04616864e+00
1.05048705e+00
1.06342719e+00
1.05159008e+00
1.04366617e+00
1.05521087e+00
1.05762345e+00
1.04620862e+00
1.04589773e+00
1.05239048e+00
1.05205637e+00
1.04626649e+00
1.04755631e+00
1.05349002e+00
1.04855005e+00
1.05114695e+00
1.05102454e+00
1.04802078e+00
1.04659048e+00
1.05103406e+00
1.04685502e+00
1.04770072e+00
1.04577917e+00
1.04830414e+00
1.04817443e+00
1.04496216e+00
1.04438972e+00
1.04985952e+00
1.04661507e+00
1.04470439e+00
1.04490243e+00
1.04485944e+00
1.04720120e+00
1.04672031e+00
1.03914020e+00
1.04448011e+00
1.04550183e+00
1.04245024e+00
1.04718263e+00
1.04670808e+00
1.04101209e+00
1.04566192e+00
1.03727972e+00
1.03587661e+00
1.04849637e+00
1.04467094e+00
1.04047388e+00
1.04460670e+00
1.04575449e+00
1.04129264e+00
1.03435456e+00
1.03870012e+00
1.04159805e+00
1.03810189e+00
1.03922299e+00
1.09061484e+00
1.08756087e+00
1.08212393e+00
1.08928245e+00
1.08705138e+00
1.08177111e+00
1.08133395e+00
1.08359010e+00
1.07882382e+00
1.07959456e+00
1.08296211e+00
1.08087862e+00
1.07660314e+00
1.07552415e+00
1.08190787e+00
1.07923158e+00
1.07277496e+00
1.08089561e+00
1.07900214e+00
1.07590814e+00
1.07404532e+00
1.07542018e+00
1.07414864e+00
1.07746660e+00
1.07327747e+00
1.07176638e+00
1.07451757e+00
1.07876789e+00
1.07459463e+00
1.07201822e+00
1.07074175e+00
1.07103884e+00
1.07330285e+00
1.07061208e+00
1.07384666e+00
1.07421106e+00
1.07218153e+00
1.07373448e+00
1.07196702e+00
1.06925881e+00
1.06475616e+00
1.06583913e+00
1.06595883e+00
1.06204695e+00
1.05946512e+00
1.05976755e+00
1.06539081e+00
1.07264604e+00
1.07136177e+00
1.06189574e+00
1.05191879e+00
1.05174292e+00
1.06173070e+00
1.07700007e+00
1.07309793e+00
1.05581698e+00
1.04686985e+00
1.05290135e+00
1.06603158e+00
1.06435670e+00
1.04857886e+00
1.04410907e+00
1.05378379e+00
1.06213615e+00
1.05447101e+00
1.04857011e+00
1.04474966e+00
1.06230229e+00
1.05827144e+00
1.04541794e+00
1.04765767e+00
1.05712807e+00
1.05719594e+00
1.04550577e+00
1.04660797e+00
1.06038664e+00
1.05134721e+00
1.04355542e+00
1.05517646e+00
1.05626145e+00
1.04489962e+00
1.04628188e+00
1.05618210e+00
1.05283959e+00
1.04473935e+00
1.04714145e+00
1.05348680e+00
1.04745363e+00
1.04992554e+00
1.05051535e+00
1.04692023e+00
1.04988641e+00
1.04965590e+00
1.04539814e+00
1.04501352e+00
1.04956619e+00
1.04789619e+00
1.04677810e+00
1.04331142e+00
1.04435161e+00
1.05042931e+00
1.04612424e+00
1.04425091e+00
1.04619223e+00
1.04661177e+00
1.04739367e+00
1.04324146e+00
1.03803389e+00
1.04575545e+00
1.04528088e+00
1.04073100e+00
1.04709007e+00
1.04901119e+00
1.04425326e+00
1.04424564e+00
1.03795579e+00
1.03650115e+00
1.04546038e+00
1.04323715e+00
1.04162151e+00
1.04600647e+00
1.04419280e+00
1.03894046e+00
1.03594066e+00
1.03728146e+00
1.03831643e+00
1.03718727e+00
1.03966220e+00
1.09043147e+00
1.08882876e+00
1.08840238e+00
1.08493419e+00
1.07807185e+00
1.08559578e+00
1.08412180e+00
1.07611839e+00
1.08103239e+00
1.08902238e+00
1.08108836e+00
1.07655649e+00
1.07831420e+00
1.07941702e+00
1.07818610e+00
1.07863349e+00
1.07899598e+00
1.07887515e+00
1.07641985e+00
1.07488950e+00
1.07969663e+00
1.07788858e+00
1.07341778e+00
1.07282605e+00
1.07363793e+00
1.07714823e+00
1.07665365e+00
1.07477467e+00
1.07407969e+00
1.07171908e+00
1.07336606e+00
1.07261826e+00
1.07443385e+00
1.07060267e+00
1.07333162e+00
1.07238284e+00
1.07317010e+00
1.07099297e+00
1.07167867e+00
1.07088310e+00
1.06780996e+00
1.06598383e+00
1.06276827e+00
1.05482005e+00
1.05736718e+00
1.06364405e+00
1.06811119e+00
1.07083752e+00
1.06937936e+00
1.06388587e+00
1.05109561e+00
1.05039399e+00
1.05815508e+00
1.07525965e+00
1.07370749e+00
1.05460309e+00
1.04818332e+00
1.05250564e+00
1.05974040e+00
1.06673164e+00
1.05105390e+00
1.04380154e+00
1.04864036e+00
1.06186090e+00
1.05825908e+00
1.04584213e+00
1.04709724e+00
1.06119165e+00
1.05571295e+00
1.04478714e+00
1.04949581e+00
1.05677253e+00
1.05696175e+00
1.04610202e+00
1.04498596e+00
1.05679130e+00
1.04923368e+00
1.04372812e+00
1.05538764e+00
1.05453922e+00
1.04444753e+00
1.04790962e+00
1.05547586e+00
1.05089917e+00
1.04288143e+00
1.05049656e+00
1.05446400e+00
1.04694044e+00
1.04855959e+00
1.05172468e+00
1.04755451e+00
1.05004891e+00
1.04907897e+00
1.04565893e+00
1.04442871e+00
1.04925580e+00
1.04835518e+00
1.04824440e+00
1.04360688e+00
1.04558843e+00
1.05004948e+00
1.04566962e+00
1.04484694e+00
1.04845789e+00
1.04339538e+00
1.04612346e+00
1.04508090e+00
1.03990049e+00
1.04757100e+00
1.04496296e+00
1.03632936e+00
1.04788717e+00
1.04870340e+00
1.04300238e+00
1.04376311e+00
1.03778036e+00
1.04088803e+00
1.04589948e+00
1.03869952e+00
1.04197542e+00
1.04686604e+00
1.04253002e+00
1.03702319e+00
1.03806894e+00
1.03932004e+00
1.03793273e+00
1.03537844e+00
1.03994561e+00
1.08203960e+00
1.08303025e+00
1.09285394e+00
1.08442000e+00
1.07884393e+00
1.08554743e+00
1.08413753e+00
1.08150660e+00
1.08426124e+00
1.08148517e+00
1.07844504e+00
1.07905818e+00
1.07802400e+00
1.07870007e+00
1.07680267e+00
1.07778617e+00
1.07690188e+00
1.07340737e+00
1.07550616e+00
1.07958164e+00
1.07835282e+00
1.07383214e+00
1.07536016e+00
1.07579271e+00
1.07509009e+00
1.07494561e+00
1.07464658e+00
1.07255339e+00
1.07522305e+00
1.07471938e+00
1.07720319e+00
1.07513647e+00
1.07477577e+00
1.07377098e+00
1.07085601e+00
1.06838659e+00
1.07260613e+00
1.07404076e+00
1.06921593e+00
1.07086040e+00
1.06960698e+00
1.06518864e+00
1.06097886e+00
1.05645334e+00
1.05825782e+00
1.05911165e+00
1.06427642e+00
1.07105366e+00
1.07080984e+00
1.06466127e+00
1.05130751e+00
1.05135403e+00
1.05814360e+00
1.07147758e+00
1.07423189e+00
1.05437334e+00
1.04547442e+00
1.05191265e+00
1.06054122e+00
1.06498248e+00
1.05019066e+00
1.04314571e+00
1.05295792e+00
1.06129769e+00
1.06084658e+00
1.04184629e+00
1.04691043e+00
1.06193631e+00
1.05531636e+00
1.04169968e+00
1.05063011e+00
1.05896352e+00
1.05664767e+00
1.04736931e+00
1.04735628e+00
1.05758407e+00
1.05132117e+00
1.04529037e+00
1.05374326e+00
1.05235324e+00
1.04727520e+00
1.05251587e+00
1.05422833e+00
1.04856745e+00
1.04491824e+00
1.05394042e+00
1.05248692e+00
1.04628318e+00
1.04935916e+00
1.05085916e+00
1.04689821e+00
1.04952571e+00
1.04961365e+00
1.04622130e+00
1.04733932e+00
1.04971951e+00
1.04583319e+00
1.04733836e+00
1.04506140e+00
1.04740399e+00
1.05104229e+00
1.04320683e+00
1.04316590e+00
1.04837916e+00
1.04459560e+00
1.04514844e+00
1.04509187e+00
1.04339787e+00
1.04712120e+00
1.04562128e+00
1.03514256e+00
1.04498184e+00
1.04781900e+00
1.04278436e+00
1.04592251e+00
1.03999359e+00
1.03940507e+00
1.04397645e+00
1.03591376e+00
1.04102148e+00
1.04819921e+00
1.04292362e+00
1.03739735e+00
1.03818425e+00
1.03845489e+00
1.03675585e+00
1.03644801e+00
1.03852950e+00
1.08420857e+00
1.08427032e+00
1.08440124e+00
1.08148025e+00
1.08499102e+00
1.08343148e+00
1.07924391e+00
1.08725491e+00
1.08385191e+00
1.07684970e+00
1.07952918e+00
1.07930794e+00
1.07634351e+00
1.07846613e+00
1.08016076e+00
1.07778005e+00
1.07409843e+00
1.07462181e+00
1.07958518e+00
1.07655331e+00
1.07251245e+00
1.07642519e+00
1.07340758e+00
1.07865101e+00
1.07871965e+00
1.07530071e+00
1.07404316e+00
1.07437930e+00
1.07255717e+00
1.07366236e+00
1.07486391e+00
1.07216884e+00
1.07218766e+00
1.07591311e+00
1.07469942e+00
1.07176396e+00
1.07111305e+00
1.07377720e+00
1.06805889e+00
1.07116451e+00
1.06882781e+00
1.06451118e+00
1.06160168e+00
1.06125903e+00
1.05886896e+00
1.05777810e+00
1.06266891e+00
1.07505650e+00
1.07400527e+00
1.06572798e+00
1.05147119e+00
1.04931880e+00
1.05955627e+00
1.07259001e+00
1.07512115e+00
1.05491183e+00
1.04259115e+00
1.05034875e+00
1.06333094e+00
1.06257622e+00
1.05108744e+00
1.04394581e+00
1.05662423e+00
1.05896909e+00
1.05859845e+00
1.04677101e+00
1.04545553e+00
1.06165556e+00
1.05714436e+00
1.04436945e+00
1.04965363e+00
1.05896247e+00
1.05530495e+00
1.04629510e+00
1.04856216e+00
1.06176127e+00
1.05186111e+00
1.04634125e+00
1.05282461e+00
1.05211351e+00
1.04621284e+00
1.05396582e+00
1.05329934e+00
1.04477855e+00
1.04523247e+00
1.05701280e+00
1.05159277e+00
1.04369204e+00
1.05072534e+00
1.05187053e+00
1.04698476e+00
1.04981494e+00
1.05160344e+00
1.04595055e+00
1.04832881e+00
1.04640505e+00
1.04370797e+00
1.04836459e+00
1.04920118e+00
1.04891545e+00
1.04886684e+00
1.04267125e+00
1.04522825e+00
1.04866739e+00
1.04170074e+00
1.04592279e+00
1.04544551e+00
1.04412885e+00
1.04815492e+00
1.04378880e+00
1.03650710e+00
1.04697086e+00
1.04516016e+00
1.04004537e+00
1.04598154e+00
1.04350779e+00
1.04039494e+00
1.04070373e+00
1.03592277e+00
1.04232162e+00
1.04683625e+00
1.03905041e+00
1.03931454e+00
1.04170832e+00
1.03865338e+00
1.03400499e+00
1.03607787e+00
1.03942975e+00
1.08921189e+00
1.08945122e+00
1.08200667e+00
1.08090906e+00
1.08368169e+00
1.08551195e+00
1.08290914e+00
1.08442392e+00
1.07747668e+00
1.07934505e+00
1.08249481e+00
1.08004023e+00
1.08348554e+00
1.07997644e+00
1.07734271e+00
1.07754218e+00
1.07916193e+00
1.08056666e+00
1.07925371e+00
1.07295189e+00
1.07696901e+00
1.08038492e+00
1.07357050e+00
1.07484159e+00
1.07681820e+00
1.07658628e+00
1.07149752e+00
1.07503491e+00
1.07781376e+00
1.07653715e+00
1.07389885e+00
1.07514418e+00
1.07092158e+00
1.07255540e+00
1.07303121e+00
1.07427481e+00
1.07303855e+00
1.07324276e+00
1.07052011e+00
1.06788619e+00
1.06767916e+00
1.06813089e+00
1.06485093e+00
1.05720002e+00
1.05372731e+00
1.05657875e+00
1.06747559e+00
1.07627828e+00
1.07399089e+00
1.06359143e+00
1.05244395e+00
1.05051566e+00
1.06250038e+00
1.07382024e+00
1.07078045e+00
1.05280304e+00
1.04728640e+00
1.05216278e+00
1.06060812e+00
1.06179346e+00
1.05184309e+00
1.04478102e+00
1.05189242e+00
1.06051312e+00
1.05697135e+00
1.04879127e+00
1.04628336e+00
1.05981428e+00
1.05386016e+00
1.04785605e+00
1.05038669e+00
1.05720277e+00
1.05407006e+00
1.04750214e+00
1.04898210e+00
1.06057154e+00
1.05008639e+00
1.04577718e+00
1.05284113e+00
1.05266709e+00
1.04430655e+00
1.05047314e+00
1.05327749e+00
1.04677826e+00
1.04820203e+00
1.05492228e+00
1.04876827e+00
1.04472514e+00
1.05450572e+00
1.05261391e+00
1.04603713e+00
1.04896541e+00
1.05036919e+00
1.04561148e+00
1.05023543e+00
1.04715940e+00
1.04243846e+00
1.04999409e+00
1.04782172e+00
1.04868051e+00
1.04924166e+00
1.04415790e+00
1.04496632e+00
1.04880363e+00
1.04162010e+00
1.04625602e+00
1.04977675e+00
1.04261013e+00
1.04752760e+00
1.04404631e+00
1.03639651e+00
1.04683358e+00
1.04484517e+00
1.03762856e+00
1.04699963e+00
1.04525893e+00
1.04121518e+00
1.04024141e+00
1.03600577e+00
1.04372130e+00
1.04869729e+00
1.03881334e+00
1.03758864e+00
1.04210333e+00
1.03732146e+00
1.03276083e+00
1.03665421e+00
1.03925471e+00
1.08957896e+00
1.07912865e+00
1.08645029e+00
1.08811360e+00
1.08133664e+00
1.08207998e+00
1.08336702e+00
1.08208439e+00
1.07760840e+00
1.08529706e+00
1.08274655e+00
1.07679744e+00
1.08433837e+00
1.08123599e+00
1.07667383e+00
1.07951270e+00
1.08283258e+00
1.07779600e+00
1.07530611e+00
1.08059354e+00
1.07852814e+00
1.07277453e+00
1.07805006e+00
1.07707262e+00
1.07540670e+00
1.07651459e+00
1.07295917e+00
1.07546605e+00
1.08083774e+00
1.07552363e+00
1.07120873e+00
1.07331294e+00
1.07342839e+00
1.07589603e+00
1.07523304e+00
1.07407398e+00
1.07200218e+00
1.07190916e+00
1.07309044e+00
1.07169233e+00
1.06937358e+00
1.06528610e+00
1.05944967e+00
1.05804908e+00
1.06071732e+00
1.05878555e+00
1.06660206e+00
1.07160401e+00
1.07540879e+00
1.06362951e+00
1.05110114e+00
1.04544974e+00
1.05980201e+00
1.07479956e+00
1.07478772e+00
1.05153555e+00
1.04691531e+00
1.05182048e+00
1.06124123e+00
1.06323656e+00
1.05001585e+00
1.04265398e+00
1.04744725e+00
1.06139509e+00
1.06118298e+00
1.04225617e+00
1.04625530e+00
1.05996615e+00
1.05416041e+00
1.04717127e+00
1.05355176e+00
1.05407877e+00
1.05099851e+00
1.04614351e+00
1.04998031e+00
1.05545659e+00
1.04840616e+00
1.04716039e+00
1.05720274e+00
1.04940922e+00
1.04260617e+00
1.04906639e+00
1.05320092e+00
1.04718944e+00
1.04935420e+00
1.05300728e+00
1.04830565e+00
1.04622623e+00
1.05703279e+00
1.05193312e+00
1.04248070e+00
1.05215403e+00
1.05243554e+00
1.04715749e+00
1.05088082e+00
1.04809747e+00
1.04194267e+00
1.04984369e+00
1.04892700e+00
1.04631975e+00
1.04853885e+00
1.04702964e+00
1.04961880e+00
1.04825375e+00
1.04158270e+00
1.04618345e+00
1.05096242e+00
1.04280594e+00
1.04592335e+00
1.04303307e+00
1.03848383e+00
1.04605704e+00
1.04260337e+00
1.03824841e+00
1.04848158e+00
1.04453641e+00
1.04027171e+00
1.04209443e+00
1.03670082e+00
1.04140758e+00
1.04354721e+00
1.03930173e+00
1.04016790e+00
1.04261754e+00
1.03698218e+00
1.03272230e+00
1.04066919e+00
1.04066502e+00
1.08802853e+00
1.07913532e+00
1.08474346e+00
1.08416144e+00
1.08301314e+00
1.08248035e+00
1.08440275e+00
1.08367397e+00
1.07801288e+00
1.08114851e+00
1.08064222e+00
1.07835285e+00
1.08054721e+00
1.07586078e+00
1.07644707e+00
1.08123143e+00
1.08132740e+00
1.07724642e+00
1.07667411e+00
1.08046610e+00
1.07644346e+00
1.07584007e+00
1.08304041e+00
1.07619562e+00
1.07117529e+00
1.07903235e+00
1.08119213e+00
1.07699518e+00
1.07283278e+00
1.07280397e+00
1.07493184e+00
1.07720268e+00
1.07579987e+00
1.07216549e+00
1.07314856e+00
1.07336896e+00
1.07434283e+00
1.07478721e+00
1.07377930e+00
1.07257218e+00
1.07128529e+00
1.06646637e+00
1.06096468e+00
1.05970947e+00
1.05915432e+00
1.05605203e+00
1.06669703e+00
1.07849130e+00
1.07731633e+00
1.06330673e+00
1.05067365e+00
1.04828638e+00
1.05968561e+00
1.07443993e+00
1.07218062e+00
1.05304132e+00
1.04467769e+00
1.05303927e+00
1.06060139e+00
1.06080045e+00
1.04969230e+00
1.04734301e+00
1.05356589e+00
1.05633275e+00
1.06006604e+00
1.04386806e+00
1.04844737e+00
1.05871311e+00
1.05431376e+00
1.04631827e+00
1.05510152e+00
1.05495457e+00
1.04976015e+00
1.04676212e+00
1.05072218e+00
1.05338337e+00
1.04728034e+00
1.04677297e+00
1.05860677e+00
1.04968653e+00
1.04475598e+00
1.05172194e+00
1.05235419e+00
1.04780170e+00
1.04952907e+00
1.05244069e+00
1.04769934e+00
1.04706603e+00
1.05613916e+00
1.05085499e+00
1.04319195e+00
1.05343584e+00
1.05376878e+00
1.04538066e+00
1.05021206e+00
1.04785059e+00
1.04455179e+00
1.05087086e+00
1.04801287e+00
1.04572576e+00
1.05134637e+00
1.04573345e+00
1.04973068e+00
1.04831508e+00
1.03872469e+00
1.04599836e+00
1.05268437e+00
1.04236210e+00
1.04780707e+00
1.04476060e+00
1.03963235e+00
1.04594937e+00
1.03950508e+00
1.03813647e+00
1.05137201e+00
1.04527317e+00
1.03907201e+00
1.04472640e+00
1.03913308e+00
1.04088848e+00
1.03996545e+00
1.03761966e+00
1.04151738e+00
1.04363672e+00
1.03855255e+00
1.03221595e+00
1.04093291e+00
1.03940008e+00
1.07875184e+00
1.08171570e+00
1.08390719e+00
1.08274982e+00
1.08639329e+00
1.08082399e+00
1.07724483e+00
1.08419190e+00
1.08548107e+00
1.08138404e+00
1.07680909e+00
1.07729397e+00
1.07719740e+00
1.07781574e+00
1.08185539e+00
1.07789626e+00
1.07460543e+00
1.07997888e+00
1.07952962e+00
1.07765601e+00
1.07651341e+00
1.07669165e+00
1.07834367e+00
1.07727569e+00
1.07940058e+00
1.08314611e+00
1.07277725e+00
1.07571431e+00
1.07763221e+00
1.07769147e+00
1.07586224e+00
1.07512826e+00
1.07468824e+00
1.07608913e+00
1.07765333e+00
1.07688614e+00
1.07193549e+00
1.07416792e+00
1.07508210e+00
1.07279144e+00
1.06660037e+00
1.06608913e+00
1.06247320e+00
1.05880004e+00
1.05726756e+00
1.05675920e+00
1.06393862e+00
1.07808644e+00
1.07803889e+00
1.06692104e+00
1.05324769e+00
1.04942579e+00
1.05643977e+00
1.07643063e+00
1.07318961e+00
1.05630935e+00
1.04278289e+00
1.05032729e+00
1.06024482e+00
1.06139107e+00
1.05175954e+00
1.04666998e+00
1.05452594e+00
1.05574830e+00
1.05799037e+00