# vtk DataFile Version 2.0
LBM Flow Field - Timestep 1170
ASCII
DATASET STRUCTURED_POINTS
DIMENSIONS 128 128 1
ORIGIN 0.0 0.0 0.0
SPACING 1.0 1.0 1.0
POINT_DATA 16384
SCALARS density double 1
LOOKUP_TABLE default
1.32227628e+00
1.31265936e+00
1.30113573e+00
1.28972052e+00
1.27830851e+00
1.26708884e+00
1.25587322e+00
1.24493083e+00
1.23399177e+00
1.22340232e+00
1.21281375e+00
1.20264518e+00
1.19247340e+00
1.18278459e+00
1.17308715e+00
1.16392695e+00
1.15475177e+00
1.14615832e+00
1.13754319e+00
1.12954366e+00
1.12151600e+00
1.11412671e+00
1.10670365e+00
1.09993043e+00
1.09311917e+00
1.08695810e+00
1.08075653e+00
1.07519487e+00
1.06959234e+00
1.06460969e+00
1.05958804e+00
1.05515758e+00
1.05069217e+00
1.04678200e+00
1.04284291e+00
1.03941732e+00
1.03597055e+00
1.03299137e+00
1.02999996e+00
1.02742768e+00
1.02485287e+00
1.02264774e+00
1.02044999e+00
1.01857292e+00
1.01671281e+00
1.01512614e+00
1.01356521e+00
1.01223328e+00
1.01093466e+00
1.00982425e+00
1.00875321e+00
1.00783382e+00
1.00695817e+00
1.00620217e+00
1.00549250e+00
1.00487515e+00
1.00430501e+00
1.00380441e+00
1.00335034e+00
1.00294730e+00
1.00258876e+00
1.00226664e+00
1.00198592e+00
1.00173043e+00
1.00151243e+00
1.00131136e+00
1.00114343e+00
1.00098648e+00
1.00085809e+00
1.00073661e+00
1.00063917e+00
1.00054598e+00
1.00047253e+00
1.00040170e+00
1.00034669e+00
1.00029337e+00
1.00025242e+00
1.00021267e+00
1.00018236e+00
1.00015304e+00
1.00013072e+00
1.00010931e+00
1.00009297e+00
1.00007750e+00
1.00006560e+00
1.00005454e+00
1.00004592e+00
1.00003810e+00
1.00003189e+00
1.00002641e+00
1.00002197e+00
1.00001817e+00
1.00001501e+00
1.00001240e+00
1.00001018e+00
1.00000840e+00
1.00000685e+00
1.00000564e+00
1.00000457e+00
1.00000376e+00
1.00000303e+00
1.00000249e+00
1.00000199e+00
1.00000163e+00
1.00000130e+00
1.00000106e+00
1.00000084e+00
1.00000068e+00
1.00000054e+00
1.00000044e+00
1.00000034e+00
1.00000028e+00
1.00000022e+00
1.00000017e+00
1.00000014e+00
1.00000011e+00
1.00000009e+00
1.00000007e+00
1.00000005e+00
1.00000004e+00
1.00000003e+00
1.00000003e+00
1.00000002e+00
1.00000002e+00
1.00000001e+00
1.00000001e+00
1.00000001e+00
1.00000001e+00
-2.28771665e+281
2.71999750e+281
2.02646955e+281
-6.15609105e+280
1.32909403e+281
5.85164191e+280
7.86020809e+281
-2.13074574e+281
2.31059210e+282
3.00364439e+282
-1.83313174e+282
1.55370727e+283
2.16465777e+283
1.31666413e+283
-3.86921921e+285
7.40909713e+285
-3.67561569e+285
1.59994524e+284
-2.62555130e+284
-2.29167554e+284
-9.00591757e+285
5.88658800e+285
-9.71727905e+286
8.01085291e+285
9.92383442e+286
-5.88608279e+286
-1.44206932e+286
2.14180321e+286
4.01153005e+287
2.66665172e+288
-1.14167122e+288
-9.19902255e+287
5.30484694e+286
2.35013436e+288
-9.14869536e+288
1.16969188e+288
-1.19282539e+289
-3.34329432e+289
2.74612724e+289
-1.08607657e+289
7.46833696e+288
1.75520190e+289
-5.97497716e+288
-4.16784181e+288
-1.27603094e+288
-1.12549541e+288
-3.06419361e+288
-1.79378262e+287
9.53013422e+287
1.21174816e+287
1.19772083e+288
-2.44630640e+288
-7.91417589e+287
1.85018005e+287
-1.33650191e+287
8.46140233e+286
4.41099271e+286
-2.15940946e+287
3.00584974e+287
1.83003043e+286
-2.01390650e+286
5.23522537e+284
-7.24004547e+284
-7.06400112e+284
-1.11618121e+284
1.12915708e+284
1.41667055e+282
1.41480398e+282
7.25757494e+281
-1.20497078e+282
-3.56154916e+281
4.55285810e+281
-9.23415758e+280
-2.92582781e+281
-8.53326419e+280
-8.13947242e+279
2.57202868e+281
-2.67332553e+281
-7.67706922e+280
2.09330316e+281
2.24673151e+280
1.54030884e+280
-3.76302033e+280
4.85039475e+279
1.91756055e+278
3.68997123e+279
-4.00371849e+279
-1.72091465e+280
3.11536077e+279
2.36538926e+279
5.92500927e+278
3.13280793e+279
-4.08712023e+279
3.36181099e+279
-1.16943444e+278
7.48582859e+278
-2.22234174e+277
1.54089836e+278
1.07986825e+276
-8.15226644e+276
6.09902167e+276
3.20194818e+276
-6.62629748e+276
-3.47262522e+275
1.32130054e+276
9.22671184e+275
-3.47675072e+275
1.84566230e+275
-1.63540639e+275
-1.41816941e+274
1.63790347e+275
9.66113977e+274
1.44132787e+275
-3.72117269e+276
-1.51531357e+277
-3.63334457e+276
1.84794120e+274
2.20794691e+273
-1.36908126e+274
1.30435170e+273
4.74867233e+272
-1.67674693e+273
4.14915079e+272
1.93868702e+272
-2.86520056e+271
-8.00570345e+270
-8.27339490e+271
5.70741251e+271
4.85289678e+280
1.83654850e+281
-7.91150012e+281
1.95859044e+281
-6.31072512e+280
9.26770414e+281
-3.91787464e+281
-2.76170043e+282
-3.44112913e+282
-2.57084143e+283
-5.74455481e+283
-1.44757584e+284
-1.22004885e+284
-1.77897540e+284
-8.56381484e+284
2.44620118e+285
-1.10615186e+285
3.70195999e+284
-3.88625391e+284
-4.61147833e+284
-1.26065996e+286
4.87070514e+286
2.40395692e+285
1.69330501e+286
-8.10549277e+286
-9.69439998e+286
-4.23665055e+283
1.35887534e+287
4.93701291e+288
-5.37141509e+288
-1.68175039e+288
-7.32118908e+287
2.98897122e+287
1.84010933e+289
-2.66442642e+289
1.00978178e+289
8.20922238e+288
7.40681962e+288
-5.36124049e+287
-2.16388595e+287
-1.14414577e+289
-5.19871669e+289
-4.25948100e+288
4.55949007e+288
-7.41369693e+288
1.57344850e+289
-4.79010347e+287
1.20830920e+289
1.04027086e+289
8.21564715e+288
6.02296999e+287
2.60920430e+288
1.36844355e+288
-1.46288257e+288
-6.84777040e+287
-3.42922760e+287
1.29265992e+287
-9.50860738e+287
7.15375257e+287
1.03430778e+287
-1.75523563e+286
-1.02280400e+286
2.78430967e+284
-1.05812609e+285
-2.00925965e+284
2.44161172e+284
-9.14847919e+282
3.01729165e+282
2.68043265e+282
2.32806299e+281
-4.50756199e+281
-4.77305493e+281
6.40553759e+280
1.10852713e+281
-1.31365530e+281
1.14837348e+281
3.14364943e+280
-2.81442865e+281
1.75567106e+281
-1.98019388e+281
4.67590421e+280
3.21544740e+280
-4.31234640e+280
7.64089568e+278
2.30801565e+279
3.17951885e+279
-7.67122685e+279
6.23395628e+279
1.60043963e+279
2.89026734e+279
-1.56103696e+279
-1.44913845e+279
-1.31987273e+280
1.76003433e+280
1.18577332e+279
-1.00457333e+279
-3.21961647e+278
1.11600049e+278
1.68852629e+277
-2.30148784e+276
-7.10518873e+276
4.99752684e+275
-1.10320616e+275
-1.59677121e+276
-2.31605073e+276
-5.70992723e+274
-1.52243321e+276
-2.55562981e+275
-2.05590297e+275
-3.26591143e+275
-2.67615229e+275
-1.06085654e+276
-2.69113072e+275
1.43753683e+276
7.48344260e+276
2.40176832e+276
-5.03845061e+274
5.73210159e+274
-6.95665045e+273
3.46086434e+274
5.49379111e+273
-2.64459318e+272
-7.57360988e+272
1.35478122e+273
-5.07071234e+272
4.71743757e+272
7.30659234e+271
-2.78832290e+269
2.69314457e+280
-1.69483721e+281
4.42116729e+281
-5.48495446e+281
1.33882709e+282
-2.59334727e+282
-3.19567827e+281
3.97426551e+282
-3.64876354e+282
-8.63288722e+283
1.16053242e+283
2.02988461e+284
1.72292982e+284
2.39395825e+284
1.35356126e+285
5.72127341e+284
4.07508701e+283
1.42491075e+284
-2.93493759e+284
-3.05912919e+285
-5.60631281e+285
4.30956154e+286
-1.31410271e+287
4.47435262e+287
-6.85339074e+286
-1.80367965e+287
-6.55617413e+287
-3.37592803e+288
1.39933398e+288
-4.74713212e+288
5.44078768e+288
-4.29931732e+288
3.41320480e+289
4.29548080e+289
-2.42716028e+288
-1.64664724e+288
-6.54616255e+288
1.08095966e+288
-2.81566250e+288
1.32201331e+289
-3.79265383e+289
5.20527250e+289
2.27464262e+289
3.24206666e+288
-1.17264502e+289
2.83845252e+289
-2.00971250e+289
-5.41283451e+288
-1.96488476e+289
5.19884155e+288
-2.79662973e+288
-6.12615145e+287
3.12464471e+288
1.71199960e+288
1.22634328e+284
3.13311030e+287
5.51202275e+287
-5.68759642e+287
-1.99311050e+287
3.91091957e+286
-8.46005043e+286
-2.08784953e+285
3.10917009e+285
-1.14345247e+285
2.24841136e+284
-2.05415989e+282
-5.74619054e+284
-1.26292756e+283
-1.34422297e+284
-1.05066497e+283
2.27351814e+283
-3.15394624e+283
-5.05066619e+281
2.00474857e+281
-7.98831832e+280
-3.30586818e+281
-2.41944400e+280
-1.13096615e+281
4.50115776e+280
-3.02342928e+281
2.70682663e+281
-2.23620986e+280
6.48678886e+280
2.27121257e+281
-8.96298772e+279
4.03562545e+280
5.72803182e+280
3.36077951e+280
5.13112678e+280
1.50193417e+280
-2.42511218e+280
3.73706626e+280
2.39294174e+280
-4.93607926e+280
1.55578598e+280
1.01187663e+279
3.02522355e+277
-7.82924743e+277
2.04866341e+277
-1.82036947e+277
-3.25668274e+276
5.76213333e+276
-4.24474501e+276
1.11326975e+276
1.05701720e+276
3.66943378e+275
-5.25674641e+274
5.75570069e+276
-1.36139757e+276
1.59285392e+276
-7.55788255e+275
5.17980004e+275
2.36687090e+275
-3.66413119e+274
-2.79892947e+274
7.05376193e+273
-1.30882467e+274
4.13248101e+274
-6.92380320e+274
-1.04909380e+273
1.92678790e+274
2.62526885e+274
2.34530608e+274
1.64191014e+273
-7.58533558e+272
-4.72476200e+272
-2.41328821e+272
5.82971751e+271
-6.11856004e+281
8.75709602e+280
-8.98674205e+281
-6.97186927e+282
2.71550073e+283
7.23773554e+283
-1.26438157e+284
-1.67782135e+283
-6.38177594e+283
-1.37036928e+283
-3.09904868e+284
8.59600517e+283
2.74115284e+284
8.59981614e+284
3.14370824e+284
5.97663371e+284
5.62307786e+285
1.67443619e+286
1.61307516e+285
-1.16484975e+284
-5.06848339e+285
3.21683992e+286
-1.15828451e+287
5.22967201e+286
1.16195810e+287
-1.38728767e+287
1.49617175e+288
6.34858814e+288
3.89129474e+288
-1.67139991e+288
-1.91072409e+288
-7.18240041e+288
-4.44634242e+287
-1.23078812e+290
-1.88753245e+289
-2.23643788e+288
3.30479927e+288
9.92349305e+288
1.36272326e+290
-2.21533237e+291
-1.75017412e+291
-2.69366276e+287
-1.68941458e+289
-1.30456465e+289
-7.70827658e+288
1.61583471e+289
-8.87453545e+288
-1.73001793e+289
-1.24196687e+289
-2.63221008e+289
5.69271163e+288
3.88671539e+288
3.07196701e+287
-1.96380715e+288
7.92731528e+287
-6.59720692e+287
-6.22989131e+286
-4.73834095e+286
2.14413682e+287
1.11220465e+287
1.12782713e+285
-1.07327481e+286
1.93823343e+285
-1.78331952e+285
-1.17286183e+285
1.24995615e+285
-2.43861754e+285
2.03204524e+285
2.47195443e+282
-2.08278449e+284
1.04724005e+284
-5.05994535e+283
-6.93129053e+281
-1.20213776e+282
8.04120418e+281
5.00409890e+281
2.87638966e+281
2.87985342e+279
-5.73304241e+280
1.56593340e+281
-4.64077986e+280
1.68436677e+281
-7.80593955e+281
1.43113888e+281
2.01020910e+280
1.36991140e+280
-6.70603183e+280
-5.54374331e+280
-4.66750117e+280
7.52641930e+280
-1.03053932e+281
3.09541384e+280
1.22303688e+280
-5.46020445e+279
-3.76053942e+279
9.62204894e+278
-9.09084114e+277
-1.15177724e+277
-3.15791165e+277
-5.79875750e+276
-1.29814227e+277
8.12360800e+276
-3.05888028e+276
7.14057861e+276
-6.54868635e+275
-1.01077240e+276
-3.91936858e+276
6.63099295e+276
-1.97947311e+276
7.26707104e+275
-9.12904343e+275
-3.73580473e+275
8.95203616e+274
5.51922126e+274
4.44116970e+273
1.31015409e+274
1.80820776e+274
-3.58459654e+274
1.22585055e+275
2.57462805e+275
-2.87034241e+275
-1.98285548e+275
-2.36366541e+274
4.03571343e+273
1.86373964e+273
-1.12915698e+272
-2.01116223e+272
-1.61893247e+272
2.71707097e+281
2.45940543e+282
-2.69430566e+282
-1.15738247e+284
7.90237680e+283
8.11012750e+283
2.75308741e+284
-2.66658089e+284
-4.46420188e+283
2.54538307e+284
-4.01032009e+284
1.30529658e+285
-1.48388234e+285
-3.54588246e+285
-5.35382294e+285
-6.38924256e+284
-1.26032553e+286
-2.02219438e+286
9.85027705e+285
-3.78323075e+285
-3.15772550e+286
-1.66774752e+286
4.86790297e+286
-5.22398097e+286
-7.26304559e+286
2.00407906e+287
-5.26804535e+287
-3.50086108e+288
2.04405730e+287
-2.50175870e+288
-6.22135744e+286
-1.60603805e+288
-1.18200942e+289
1.66668006e+289
1.77157519e+290
6.28300532e+288
-4.16593348e+290
2.35047852e+290
7.26075280e+290
6.31900567e+291
6.61065592e+290
1.53824957e+288
6.05372938e+288
1.94496109e+289
-3.35717051e+288
-3.05001944e+289
2.83194160e+289
3.22855722e+289
3.48991205e+289
6.68498847e+288
-1.54982479e+289
5.23309856e+288
8.96050839e+287
-4.82356075e+287
2.18010486e+287
-1.52821342e+287
4.44020388e+286
-1.22914453e+286
7.34962568e+285
-1.05134153e+287
1.12456210e+286
-3.81728842e+285
3.72590109e+285
-5.74114674e+284
-1.13976079e+284
1.24747631e+285
-8.42889665e+284
6.91251594e+284
6.56961100e+283
5.22430728e+281
-1.03333996e+284
2.26327460e+282
-2.61197734e+282
-1.61887536e+282
-3.75452068e+282
4.33985151e+282
9.77682483e+279
-1.01029952e+281
1.20295572e+280
9.26896497e+279
6.04661705e+280
3.67411979e+281
4.91637359e+280
-1.42179536e+281
-5.84294475e+280
-6.60188612e+280
-1.42963442e+280
7.12961295e+280
-3.62055819e+279
-7.55922228e+280
-2.51090804e+280
-9.70812481e+278
4.49095264e+279
1.54708386e+279
-2.59466388e+279
2.83340056e+278
7.65179494e+277
-3.11697267e+278
-9.36569485e+277
-4.59128346e+277
-2.92719904e+277
1.00682816e+277
-3.57989694e+276
4.41867163e+275
2.15796182e+276
-4.02070233e+275
-1.16352697e+276
-5.50231084e+276
1.19566807e+276
-5.23501542e+275
1.21323134e+276
1.77116532e+275
2.00157410e+275
4.39089844e+275
3.53941856e+275
4.53871549e+275
2.27476940e+275
2.16588451e+275
-9.32092344e+274
6.49338438e+275
-1.20509276e+276
1.05742232e+276
3.24196063e+274
6.60961197e+273
-4.55459466e+273
-4.36474875e+272
2.01795246e+273
-7.76623309e+270
3.07584901e+282
6.55161635e+282
8.41604459e+282
-1.50632968e+284
3.15282675e+284
-2.89999804e+284
2.79014114e+284
-1.37425704e+284
6.89871386e+283
3.11384352e+284
-8.00417198e+283
-1.84988799e+283
2.18515873e+284
-6.82975881e+285
2.84748863e+285
-5.25941279e+285
1.55780189e+286
-4.57022752e+285
-2.12568359e+285
1.72682674e+285
4.62814602e+286
-6.73672113e+286
-1.01578280e+287
-5.36914582e+286
8.57801965e+286
1.91372258e+287
-3.85257325e+287
-8.10693713e+286
6.79743614e+286
-5.84445304e+287
-1.21602740e+288
7.14006366e+288
-1.30647828e+289
-1.85716377e+290
1.31879310e+291
-8.98744067e+290
-2.50808996e+290
-9.22725611e+290
-7.70568593e+290
-2.23939459e+291
1.69002920e+290
2.38703491e+289
2.68744382e+289
-5.10311213e+289
4.58383342e+289
-2.69650115e+289
-2.04017863e+289
-2.88856586e+288
-1.96533215e+289
1.85908282e+289
-4.28848286e+288
1.65176762e+288
-2.79201887e+287
-1.12783078e+289
7.10451712e+288
3.50850134e+288
5.81897469e+287
1.60439923e+287
-9.65436319e+286
-1.23545707e+287
-2.45884741e+286
8.83915596e+285
3.40400915e+285
-2.04449345e+285
-9.76949002e+284
1.28482245e+285
-3.06674545e+284
4.46360761e+285
4.50436844e+284
1.05936930e+285
-1.24526145e+284
-1.28644346e+283
-1.53204418e+282
1.06547685e+283
-4.59929596e+282
-9.70805978e+281
8.93010087e+280
1.46713256e+281
5.19873111e+280
-5.04219552e+280
-1.21617284e+281
-4.29553530e+280
1.35212963e+281
-8.29332085e+279
-2.94027946e+281
1.73511779e+281
-9.78752541e+280
1.85590854e+281
2.05434689e+281
7.61033364e+280
2.74545134e+280
-3.32029357e+279
9.29483574e+278
3.30683752e+279
-2.01021731e+279
-5.55624801e+278
4.05994466e+278
4.27282521e+278
-8.12582395e+277
6.42231768e+277
-3.27824046e+277
-2.24350165e+277
-3.11855333e+277
-6.80344208e+276
7.95647033e+274
1.49390931e+276
2.04528026e+276
6.74712480e+275
-3.33642393e+275
-1.07426271e+275
-4.10849821e+275
8.40507516e+275
1.12321316e+276
1.91100813e+274
1.04942762e+276
1.93533600e+276
-3.34638522e+276
3.10460276e+275
-6.76112649e+275
-1.56297615e+275
-6.39568291e+275
1.76799688e+275
-1.47399992e+275
-1.81244293e+274
-2.05124628e+273
9.27318912e+273
1.39776581e+273
2.24566081e+273
-3.62658816e+282
-7.16604672e+282
7.56324891e+281
-2.99552730e+284
2.57019124e+284
6.68859591e+283
6.77245499e+283
-1.74930805e+284
-1.09803113e+284
2.25017468e+284
-7.39637023e+284
2.30454874e+285
-4.70771830e+285
8.43461923e+285
1.43714724e+286
-1.88494570e+286
-7.49455477e+285
-5.37161677e+285
3.41902365e+285
2.20652756e+285
2.45731416e+285
-2.11855363e+286
3.28523180e+286
2.68127032e+287
-7.02693203e+286
-3.34292702e+287
-1.50189549e+287
2.85294186e+286
-1.91102214e+288
-9.09590587e+287
-4.57688668e+287
-9.45948672e+288
-1.84548119e+288
4.58819589e+288
7.02253151e+290
-1.30546497e+291
1.37587472e+291
-1.31578904e+291
6.39772912e+290
-2.23199003e+289
1.01815332e+289
-3.77941441e+287
1.99770300e+289
-4.68302828e+288
-1.23084049e+289
-6.04121075e+289
2.28542102e+289
8.58443920e+288
1.58538361e+289
-2.40530738e+288
-6.36002839e+288
2.73401788e+289
-1.40690417e+289
-5.09897772e+288
-2.81120966e+289
2.82441456e+289
-6.74236613e+287
-1.19499247e+287
1.05049324e+287
6.85961867e+286
1.53932108e+286
-1.86900720e+285
4.39305749e+285
-1.30722989e+285
3.36836205e+284
-3.63495612e+284
-1.64928892e+285
-3.84908737e+285
7.67434116e+284
-6.11299594e+284
-9.02178940e+283
-4.22742793e+282
-7.98609333e+282
1.45928069e+282
1.11213660e+283
9.95697662e+282
1.37189237e+281
1.53866273e+281
2.58781165e+281
-1.38972672e+280
-8.46516501e+281
1.54755597e+282
-3.61077181e+281
4.40524203e+281
6.13929409e+281
3.60110506e+281
-8.45416126e+281
-1.60450181e+280
-2.38449111e+281
1.67849634e+281
1.06870074e+280
-1.15504001e+279
-4.34013658e+278
4.24407177e+279
-3.04906022e+279
1.04281319e+278
-1.31519450e+279
1.92266252e+279
2.70156590e+278
2.25393614e+278
2.75516637e+277
3.86628730e+277
3.10267364e+277
-1.68500362e+277
-1.34666006e+277
4.80848112e+276
-2.81215063e+275
7.88392581e+276
-2.78523930e+276
-3.32229022e+275
-2.55555172e+276
-3.14371386e+276
-3.16376535e+276
-3.68431047e+275
6.87710228e+276
4.28735690e+276
-1.11011169e+277
-1.38798440e+276
-1.24242402e+276
-4.79704703e+275
-2.10960032e+276
-1.40654996e+276
-3.86021923e+275
-4.01955155e+275
-2.58569768e+275
-1.47729829e+274
2.67131540e+273
2.28031776e+273
-3.46465185e+282
3.84892354e+282
5.18812972e+282
-1.52386236e+283
-6.02001143e+283
1.38010435e+284
3.95688408e+283
-4.78782586e+281
1.94506271e+284
4.82317639e+283
-5.76220280e+285
3.00612622e+284
-3.11359050e+285
6.07652046e+285
-1.30407031e+286
6.45605448e+286
-2.01155154e+286
9.42236965e+285
-3.10595005e+285
1.11909448e+286
7.50876769e+285
2.49192173e+286
2.50155677e+286
-5.07990841e+286
3.17626101e+287
-4.84806142e+287
7.07866417e+287
8.16713216e+287
-5.52788676e+287
-7.02715794e+288
-3.58340293e+289
2.27526078e+288
8.28033230e+289
-1.37362347e+290
9.92696860e+290
-1.09915743e+291
-2.68059462e+290
-6.61923385e+290
9.30518180e+290
-5.83473485e+289
-2.13391612e+289
1.82976052e+289
3.04745199e+288
2.49780264e+289
7.32547873e+288
-3.14665316e+289
3.14019886e+289
-9.52054305e+288
3.98445818e+287
-3.42120494e+288
2.80227236e+288
7.85153784e+288
-3.11879743e+289
4.08248378e+289
-3.37503989e+289
1.88074477e+289
-9.45008473e+287
-1.27048483e+287
-6.05704609e+286
-2.78877059e+287
2.67386341e+286
2.14642013e+285
-2.76478788e+285
8.33079354e+284
1.54430411e+284
-3.31808386e+285
4.41926097e+285
-2.36227811e+285
-3.31747065e+284
-2.83201193e+284
-4.81665495e+284
-3.71795485e+284
-2.11928511e+283
7.49287321e+281
-2.03304333e+283
-6.98135662e+282
1.05648505e+283
-1.00807385e+283
1.98453039e+282
-3.13010634e+282
2.50642016e+282
4.87322462e+282
-8.81994743e+281
-9.37635204e+281
-3.78452952e+281
-2.62723521e+281
-1.42492818e+281
3.71742224e+281
-2.71423574e+281
1.41620003e+281
6.99536108e+279
3.28453369e+279
-4.24050262e+279
3.22799416e+279
-3.06579709e+279
1.41247053e+279
-2.82273507e+279
9.91842898e+278
-3.92848004e+278
-2.74560259e+277
2.95851965e+277
8.79899765e+276
3.56186500e+277
3.81775922e+277
-7.69831354e+276
-7.67128846e+274
-5.87213833e+276
4.25919022e+277
1.41719489e+277
1.44352014e+277
1.91278645e+276
9.73144988e+275
-3.83917062e+275
1.15953362e+276
-9.37893196e+276
1.67610016e+276
2.76993402e+277
4.88378342e+276
3.13239541e+276
1.12678335e+276
4.45285059e+276
7.54743605e+274
-2.33340644e+275
1.24953898e+276
-2.42969909e+275
1.81921842e+274
-1.23845550e+273
-2.94517808e+273
-3.11309337e+282
-2.55712665e+282
-1.65462947e+283
-6.07125944e+282
1.54496141e+282
1.79067676e+284
1.65576604e+283
-5.70199267e+283
1.71970624e+284
2.75092355e+284
4.01581431e+285
-1.35772560e+285
3.44178789e+285
6.28233442e+285
1.08479131e+286
5.60839414e+286
-1.92939066e+287
6.66410014e+286
-3.17451445e+286
1.26388246e+286
7.48552048e+285
-3.40602844e+286
4.06415907e+286
5.20595220e+286
-4.58084423e+287
-1.06581179e+288
8.80382718e+286
-4.45220641e+288
-4.70484311e+288
7.29051937e+287
2.90906470e+289
-3.54341758e+289
-4.37900382e+289
-3.09955219e+290
6.68802611e+289
3.06514228e+290
-3.53058468e+290
1.92994590e+290
4.94740712e+289
-6.00012842e+289
-4.16012490e+289
5.39484489e+289
5.82905760e+289
1.14948196e+290
1.37852974e+289
1.65324984e+289
1.35888694e+289
1.44958730e+289
-6.69121133e+288
-1.11635253e+288
2.21201136e+288
2.78450594e+289
-4.69837047e+289
-7.71996441e+288
-1.38614788e+289
2.12959831e+289
-9.54480033e+287
2.48937505e+287
2.68568423e+287
4.07082638e+287
-1.23206054e+287
6.96081639e+286
-8.51629607e+285
1.85319944e+285
2.94672729e+285
-5.02382432e+285
-2.27242295e+285
-1.13367061e+285
-1.05445558e+285
2.37073318e+285
2.46510355e+284
2.40285010e+284
2.57738339e+283
2.76950661e+281
9.68180538e+283
-1.01280600e+284
1.32879711e+283
-4.87707407e+282
-3.57853138e+283
1.51944026e+283
-4.48774181e+282
1.01602156e+283
2.57491660e+282
3.04722211e+282
2.87164565e+282
2.56179301e+282
1.62962238e+282
-4.51463791e+281
-5.25871770e+281
-1.62698282e+281
-1.66410698e+280
1.35163449e+280
-1.89927262e+279
2.67967647e+279
7.43986337e+278
1.79045509e+279
-2.28666813e+279
3.28910874e+279
4.26160684e+279
2.11531768e+278
1.61587468e+277
3.25235764e+277
-5.21433489e+277
-1.17322804e+277
3.48694672e+277
2.84681835e+277
4.59007655e+277
-4.92262843e+276
-2.44347557e+277
5.70848169e+276
9.80591863e+275
-3.88908657e+276
-3.86473624e+276
2.46036908e+277
8.73484897e+276
-1.69737169e+277
-2.50360525e+276
-5.86783915e+276
-1.30960320e+277
4.44111562e+275
9.55246917e+276
2.20461051e+276
-2.30521611e+276
-3.73693363e+275
-4.82646287e+274
1.12971021e+275
2.51811721e+274
3.51477081e+272
1.10882182e+282
1.23433980e+282
2.06944519e+283
4.10515071e+283
5.50175989e+283
3.87046644e+284
-1.06140355e+285
4.33217231e+284
-9.00394928e+283
2.82008852e+283
-3.60945670e+284
-1.85415703e+285
-2.98999059e+285
5.66129641e+285
-6.79058914e+285
-5.64059203e+286
-4.00988145e+286
3.38782108e+286
-4.65461529e+286
8.29511004e+286
-7.59421817e+286
2.21571346e+286
-8.40800254e+287
1.04109849e+288
3.64731386e+287
-9.35702203e+287
1.44763244e+288
6.61687810e+288
-3.60288253e+288
7.28680265e+288
1.51598123e+289
-7.74812841e+289
2.34647125e+290
-6.00437053e+289
8.64199333e+290
-2.00432437e+290
-3.73019029e+289
-4.57025026e+290
5.98314330e+289
1.35504367e+290
-1.86587440e+290
-2.52000236e+288
-2.14125025e+290
-6.75939173e+289
1.56562612e+290
-2.38459738e+289
-3.19612987e+289
1.12927837e+289
-1.39935217e+289
1.50996136e+289
-2.37069657e+288
9.41023012e+288
1.77732981e+289
-9.12790139e+288
-1.52227085e+288
3.27779436e+288
-1.78984936e+288
1.83538805e+288
-9.58682338e+287
-2.04549877e+287
-1.74394600e+287
1.89846751e+286
-2.45999894e+286
-2.34691630e+286
-2.53769776e+285
8.75455670e+285
6.06047415e+285
4.64288652e+285
8.09765540e+284
4.71199864e+284
-1.20523298e+285
-4.66129804e+283
4.71690307e+283
-3.52699919e+284
-1.19103177e+284
-8.67924007e+284
-9.63960039e+283
-2.22001866e+284
-1.78204494e+284
-9.25958330e+283
-8.78270262e+283
-2.32939934e+283
1.21035236e+283
7.76692247e+281
-6.96987008e+282
-2.89937858e+281
-8.28132897e+282
6.33392936e+281
9.14229382e+281
2.51886863e+281
-7.22559127e+278
4.09529209e+280
2.56436181e+280
2.64110339e+279
1.05078624e+280
4.54647513e+279
1.55946990e+279
-2.32654306e+279
-4.74160997e+279
1.84508107e+279
-6.86287570e+276
-1.70124779e+278
-3.63669692e+277
-7.10491207e+277
1.50578191e+278
-2.63608764e+277
-8.58101595e+277
-8.36998936e+277
-2.97770718e+277
-8.44419145e+277
-1.13038878e+277
2.69671273e+277
-9.54153094e+277
2.56218160e+277
-3.52202785e+277
-4.63860364e+276
5.71928687e+277
-3.75966510e+277
-2.08729860e+277
-7.31046059e+277
6.46083993e+277
1.93369201e+276
-1.41560082e+276
1.02143903e+275
2.84797114e+275
-4.79467971e+274
1.16211673e+275
1.06693500e+275
3.44930271e+282
-3.49639749e+282
1.29956786e+283
-4.66048949e+283
-3.56528994e+283
-4.77448778e+284
5.27532497e+284
-5.94770303e+284
-4.16239205e+285
-8.39131717e+284
8.68113213e+283
3.90814667e+285
-8.45694134e+284
2.05897234e+286
-2.05597409e+286
-2.41463417e+286
1.01695208e+287
4.21445525e+286
1.45287034e+286
1.40862960e+287
3.99755503e+286
-1.82451506e+287
-2.17229083e+288
4.60663605e+288
-2.82357143e+288
9.76743241e+287
-1.14463189e+287
1.40314931e+288
-1.18710216e+289
-1.20470512e+289
-7.34830885e+288
7.79623323e+289
5.05720480e+289
9.60762864e+287
-8.19785717e+289
-3.58229213e+290
1.02872088e+290
4.32973898e+290
1.47287805e+290
-6.28496881e+290
3.73346286e+290
5.95347633e+289
3.38361624e+289
-3.18012245e+290
2.96016937e+290
-3.59250484e+288
3.39158143e+289
-2.90102935e+289
-9.39993685e+286
4.26443791e+288
-8.09612022e+288
2.42588034e+287
-5.95626280e+288
3.15848752e+287
-1.59424331e+287
-5.98410115e+286
1.31420016e+288
-1.66210522e+288
-5.91711937e+287
-1.27100131e+286
5.38441677e+286
3.56541854e+286
-4.95444868e+286
-5.32327534e+286
3.14180009e+286
-7.57192251e+285
-6.84897378e+285
-3.03060568e+285
-4.54943535e+284
-2.34097252e+285
-5.12090307e+284
-2.19811463e+284
1.17410253e+284
4.80286080e+284
5.24555433e+284
-2.13484993e+284
-2.36677867e+284
5.88759225e+284
-2.53097610e+284
5.92923316e+284
-2.80880705e+283
-4.76545165e+283
-4.18523908e+283
9.73996582e+282
2.85914190e+282
1.78170783e+282
1.80919971e+282
2.17354493e+282
-4.53228107e+281
-1.69899092e+281
-1.90488252e+280
-1.37365033e+280
-6.68284272e+280
-2.30822785e+280
5.22241402e+280
2.37509739e+279
4.71335635e+279
-7.63263112e+279
-7.90691649e+279
7.93981733e+278
2.42179445e+278
2.08941430e+278
4.15959176e+277
1.77314223e+277
-7.12605349e+277
-7.83978787e+275
7.67231435e+277
-5.80259505e+278
2.35209039e+278
8.93191143e+277
-3.87336889e+277
1.57893036e+278
4.36555569e+278
1.50122536e+278
6.84974846e+277
-7.62901325e+277
6.19697964e+277
-8.57899988e+277
9.34092582e+277
-8.89543708e+277
6.46461098e+277
3.82442003e+276
-3.13591373e+276
-2.14451273e+275
4.42377387e+275
1.22743610e+276
2.73892768e+275
-2.45164203e+275
-6.76586264e+281
2.33504805e+283
-1.87780579e+283
-1.09042689e+284
-3.61563006e+284
-2.25539542e+284
2.15293656e+284
-2.45647191e+285
4.83857668e+285
2.60626362e+285
1.79068363e+286
1.16143475e+287
1.70393011e+286
4.12220780e+285
-1.13080772e+286
-1.20795444e+286
4.81264098e+286
2.36487843e+287
-1.07851549e+288
5.72092935e+287
1.30331545e+287
-6.56936543e+285
-7.57042557e+286
1.64191121e+288
-2.52833816e+287
2.01829156e+287
-9.02982022e+287
-7.58929384e+286
3.67998329e+289
-4.60853549e+288
1.09314417e+289
9.08091644e+289
-2.80125133e+290
-9.76482791e+289
-7.49166272e+289
5.53669562e+290
-4.54744026e+289
1.18933492e+290
6.68473830e+289
7.45579653e+289
-1.68170906e+289
1.58982392e+291
1.75934968e+291
-3.86003752e+290
1.11073422e+290
-1.42722316e+289
7.32405264e+288
9.17226343e+288
-8.61187653e+287
-1.83262417e+289
1.40695517e+289
9.81540932e+288
-5.13339184e+288
-2.23673277e+288
-1.85524511e+287
-1.39046777e+288
3.92329125e+287
-1.97936512e+288
5.67687821e+288
1.10804362e+288
7.87874732e+288
5.93056175e+287
1.29911316e+287
3.34934537e+287
-7.36620985e+286
5.49419242e+285
-7.06832589e+285
1.85814116e+285
-4.17192171e+286
-4.75745250e+285
8.36526170e+285
2.05552879e+285
2.11532409e+285
-6.11912545e+284
-9.07272567e+284
-3.02088377e+285
-7.93934911e+284
2.73059370e+285
-3.27575717e+285
2.90927147e+283
4.88544365e+284
1.98930786e+284
-3.07112547e+283
2.82942295e+283
-3.04887722e+282
-1.98933105e+281
-1.04377758e+281
-5.21142739e+281
-1.52397230e+281
1.00601343e+281
3.90820502e+279
-1.09174029e+281
6.47475696e+280
-1.41005727e+281
-3.34580860e+280
2.97437454e+280
1.30817763e+280
-1.00084596e+280
2.83821483e+280
4.00253571e+278
2.80551407e+278
2.18152250e+278
1.18228250e+278
-1.54337858e+277
-2.84806120e+278
1.63219876e+278
1.34901624e+277
-5.28287297e+278
1.77494442e+279
-5.12737822e+278
3.10726077e+277
-2.01072604e+278
-8.59719447e+278
-2.81369255e+278
1.03250286e+277
-1.14950797e+277
1.19685927e+278
7.26370169e+277
-1.27333302e+278
-7.35589395e+277
6.36786465e+277
4.43661089e+276
-2.36029850e+276
-2.93280310e+274
-1.19925611e+276
-2.14246692e+276
1.67285624e+276
1.46719817e+275
7.69346460e+282
4.96270027e+283
-5.94624992e+283
2.39291330e+284
8.36208042e+284
1.18367070e+284
1.47662997e+284
5.62801252e+285
-2.14876382e+286
-3.27017330e+286
1.12095589e+287
-1.67909961e+287
-7.93020917e+286
1.17363843e+286
-8.43168068e+286
5.45287138e+286
-4.24430478e+285
2.91608410e+287
-8.51769108e+286
1.97207570e+286
-1.49222636e+287
1.25065289e+286
-3.97263577e+287
-6.85455797e+287
-1.82668720e+287
5.93541718e+287
2.13758113e+288
-2.04803796e+289
1.55202946e+288
-3.13181990e+289
8.65611539e+289
-7.31199149e+289
-1.60161950e+289
1.28789134e+290
8.71495456e+289
-2.34672579e+290
-3.93300626e+290
-2.18719181e+290
3.17325331e+290
-2.18435137e+290
1.62107484e+290
-1.16818365e+290
-5.60130123e+291
-6.02686914e+290
9.92310667e+289
-4.38695894e+289
3.61206255e+288
-5.21815399e+289
-6.46698041e+289
8.81565277e+288
5.38093416e+288
-5.72727383e+288
1.06726008e+288
4.71909107e+288
-1.91896051e+287
3.06972893e+287
4.34715303e+287
5.71248758e+288
-4.21105118e+288
-6.48374171e+288
-3.68181342e+288
1.09835247e+288
-1.84259157e+287
1.31515072e+286
-1.01739218e+287
3.50539757e+286
1.19090493e+286
-1.34083908e+286
-2.92650364e+286
1.31052433e+287
-1.07899228e+287
-1.78927770e+284
-4.36549531e+285
5.28009721e+285
1.41346810e+285
2.89328464e+285
-8.22856082e+284
6.04461923e+283
2.79565106e+285
-3.76939653e+285
1.32273854e+285
-8.72623214e+284
-2.02693322e+285
-2.01187105e+284
-5.79100453e+282
1.97531690e+282
-6.21159388e+281
-8.33630200e+281
1.22146658e+282
1.74465130e+280
-7.38353654e+280
2.18351449e+281
1.21920000e+282
1.64703224e+281
-2.22240816e+280
7.57081091e+280
4.37758016e+280
-4.94734028e+280
1.44958979e+280
2.20644425e+281
-2.19413938e+279
8.18494243e+278
5.46797797e+278
1.12964536e+278
-1.45690736e+277
-3.71740309e+278
-3.60072396e+278
-8.46871812e+277
-4.07912326e+276
-6.03031725e+278
1.14430650e+278
4.53472846e+277
3.21655310e+278
1.08200565e+278
-7.73776026e+277
-4.54378721e+277
-1.69901106e+278
2.57322046e+278
-5.91681684e+278
2.49464834e+278
-2.24343753e+277
6.96509643e+276
-7.98802935e+276
-6.80795073e+276
-8.19098277e+276
-2.02583197e+276
-5.27338304e+275
2.47792140e+275
-1.46618123e+283
1.84651950e+283
-9.35816198e+283
-1.23168544e+284
-3.53114616e+284
-1.15378989e+284
-3.50447608e+284
-7.89693691e+281
9.56752930e+286
7.41087224e+284
1.36992271e+286
-7.56510525e+286
1.38947563e+287
-7.78414339e+286
-1.88830202e+286
5.31160888e+286
-7.66309923e+286
-4.26309758e+286
1.61277904e+286
2.08404386e+287
-2.66474225e+287
1.23219997e+287
-2.19116868e+287
-1.16303221e+287