# vtk DataFile Version 2.0
LBM Flow Field - Timestep 220
ASCII
DATASET STRUCTURED_POINTS
DIMENSIONS 128 128 1
ORIGIN 0.0 0.0 0.0
SPACING 1.0 1.0 1.0
POINT_DATA 16384
SCALARS density double 1
LOOKUP_TABLE default
1.31213010e+00
1.28982170e+00
1.26405598e+00
1.23817359e+00
1.21424215e+00
1.19010235e+00
1.16876364e+00
1.14714427e+00
1.12887528e+00
1.11029322e+00
1.09526773e+00
1.07995519e+00
1.06807307e+00
1.05599320e+00
1.04694711e+00
1.03784164e+00
1.03120089e+00
1.02465811e+00
1.01994959e+00
1.01547938e+00
1.01225088e+00
1.00935413e+00
1.00721317e+00
1.00543622e+00
1.00406569e+00
1.00303434e+00
1.00219113e+00
1.00162353e+00
1.00112840e+00
1.00083037e+00
1.00055539e+00
1.00040447e+00
1.00026149e+00
1.00018681e+00
1.00011790e+00
1.00008145e+00
1.00005091e+00
1.00003340e+00
1.00002100e+00
1.00001287e+00
1.00000822e+00
1.00000467e+00
1.00000302e+00
1.00000161e+00
1.00000103e+00
1.00000053e+00
1.00000032e+00
1.00000017e+00
1.00000009e+00
1.00000005e+00
1.00000002e+00
1.00000001e+00
1.00000001e+00
1.00000000e+00
1.00000000e+00
1.00000000e+00
1.00000000e+00
1.00000000e+00
1.00000000e+00
1.00000000e+00
1.00000000e+00
1.00000000e+00
1.00000000e+00
1.00000000e+00
1.00000000e+00
1.00000000e+00
1.00000000e+00
1.00000000e+00
1.00000000e+00
1.00000000e+00
1.00000000e+00
1.00000000e+00
1.00000000e+00
1.00000000e+00
1.00000000e+00
1.00000000e+00
1.00000000e+00
1.00000000e+00
1.00000000e+00
1.00000000e+00
1.00000000e+00
1.00000000e+00
1.00000000e+00
1.00000000e+00
1.00000000e+00
1.00000000e+00
1.00000000e+00
1.00000000e+00
1.00000000e+00
1.00000000e+00
1.00000000e+00
1.00000000e+00
1.00000000e+00
1.00000000e+00
1.00000000e+00
1.00000000e+00
1.00000000e+00
1.00000000e+00
1.00000000e+00
1.00000000e+00
1.00000000e+00
1.00000000e+00
1.00000000e+00
1.00000000e+00
1.00000000e+00
1.00000000e+00
1.00000000e+00
1.00000000e+00
1.00000000e+00
1.00000000e+00
1.00000000e+00
1.00000000e+00
1.00000000e+00
1.00000000e+00
1.00000000e+00
1.00000000e+00
1.00000000e+00
1.00000000e+00
1.00000000e+00
1.00000000e+00
1.00000000e+00
1.00000000e+00
1.00000000e+00
1.00000000e+00
1.00000000e+00
1.00000000e+00
1.00000000e+00
1.00000000e+00
1.14986939e+00
1.13230106e+00
1.12480970e+00
1.13249993e+00
1.13438711e+00
1.12702669e+00
1.12161190e+00
1.11450906e+00
1.10458236e+00
1.10370739e+00
1.10955680e+00
1.11924648e+00
1.12078004e+00
1.12186282e+00
1.11938352e+00
1.11355254e+00
1.11141354e+00
1.10285618e+00
1.10228065e+00
1.10459042e+00
1.10644837e+00
1.10830800e+00
1.10858920e+00
1.10586933e+00
1.10252013e+00
1.10797785e+00
1.10434068e+00
1.10071846e+00
1.09748545e+00
1.09957474e+00
1.09838966e+00
1.09890010e+00
1.09757857e+00
1.09249504e+00
1.09640667e+00
1.09738521e+00
1.09265782e+00
1.09551494e+00
1.09450195e+00
1.09598537e+00
1.09309613e+00
1.09400421e+00
1.09339475e+00
1.08933621e+00
1.08783618e+00
1.08815208e+00
1.08327899e+00
1.08296884e+00
1.08653835e+00
1.08406926e+00
1.08256753e+00
1.08714452e+00
1.08855436e+00
1.08298848e+00
1.08115333e+00
1.08389546e+00
1.08290450e+00
1.08087604e+00
1.08319391e+00
1.07912283e+00
1.07741147e+00
1.07812205e+00
1.08020614e+00
1.07971903e+00
1.07885741e+00
1.07513056e+00
1.07353039e+00
1.07416543e+00
1.07273468e+00
1.06924709e+00
1.06948714e+00
1.07207325e+00
1.06982794e+00
1.06668579e+00
1.06725853e+00
1.06959927e+00
1.06793236e+00
1.06836728e+00
1.06887315e+00
1.07059287e+00
1.07014223e+00
1.06719054e+00
1.06730934e+00
1.06886479e+00
1.06713721e+00
1.06399274e+00
1.06210874e+00
1.06207548e+00
1.06707352e+00
1.06916304e+00
1.06404334e+00
1.06135784e+00
1.06581174e+00
1.06383498e+00
1.06059026e+00
1.06194433e+00
1.06615283e+00
1.06798712e+00
1.06382728e+00
1.06353420e+00
1.06451223e+00
1.06292493e+00
1.06121400e+00
1.06345566e+00
1.06551372e+00
1.06170338e+00
1.06124741e+00
1.06424744e+00
1.06362709e+00
1.05990293e+00
1.05837145e+00
1.06360008e+00
1.06978079e+00
1.06626652e+00
1.06247378e+00
1.06338281e+00
1.06818653e+00
1.06757576e+00
1.05541164e+00
1.04981843e+00
1.05136638e+00
1.05535949e+00
1.05389215e+00
1.04158129e+00
1.03184204e+00
1.02952931e+00
1.03370281e+00
1.03728385e+00
1.13691113e+00
1.13866380e+00
1.14481322e+00
1.13854255e+00
1.12737183e+00
1.11706437e+00
1.11378966e+00
1.10452543e+00
1.10931034e+00
1.11350864e+00
1.11667157e+00
1.12512479e+00
1.11753928e+00
1.11805281e+00
1.10816649e+00
1.10631330e+00
1.10905215e+00
1.10646383e+00
1.10460002e+00
1.10852416e+00
1.11277170e+00
1.10815424e+00
1.10435399e+00
1.10344024e+00
1.10145349e+00
1.10436631e+00
1.10249684e+00
1.09959831e+00
1.09935193e+00
1.09998392e+00
1.09972350e+00
1.09551240e+00
1.09572107e+00
1.09457998e+00
1.09411553e+00
1.09946370e+00
1.09303107e+00
1.09412558e+00
1.09460803e+00
1.09573910e+00
1.08898159e+00
1.08791544e+00
1.08722999e+00
1.08750395e+00
1.09010439e+00
1.09413704e+00
1.08357950e+00
1.08682277e+00
1.09435390e+00
1.08561177e+00
1.07961682e+00
1.09026582e+00
1.08872680e+00
1.08039656e+00
1.07822010e+00
1.08447724e+00
1.08226764e+00
1.07533008e+00
1.07848738e+00
1.08156868e+00
1.07941362e+00
1.07567443e+00
1.07515328e+00
1.07516711e+00
1.07790571e+00
1.07462134e+00
1.07455014e+00
1.07773901e+00
1.07479715e+00
1.06975883e+00
1.07357282e+00
1.07247703e+00
1.06960228e+00
1.07140685e+00
1.07035534e+00
1.07073834e+00
1.07243625e+00
1.06492938e+00
1.06531198e+00
1.06987363e+00
1.06981906e+00
1.06702110e+00
1.07072129e+00
1.06817316e+00
1.06576071e+00
1.06358137e+00
1.06432155e+00
1.06466960e+00
1.06328634e+00
1.06548972e+00
1.06441069e+00
1.06093929e+00
1.06426737e+00
1.06802976e+00
1.06084365e+00
1.05941464e+00
1.06401144e+00
1.06619556e+00
1.06144387e+00
1.06496408e+00
1.06836512e+00
1.06071718e+00
1.05958027e+00
1.06342196e+00
1.06650437e+00
1.05936869e+00
1.05576766e+00
1.06782318e+00
1.07123203e+00
1.06086048e+00
1.05088533e+00
1.05783663e+00
1.07157716e+00
1.06876679e+00
1.05604355e+00
1.05831298e+00
1.07189391e+00
1.07804161e+00
1.06245647e+00
1.04182796e+00
1.04197133e+00
1.05672207e+00
1.06456160e+00
1.05238294e+00
1.03152064e+00
1.01764315e+00
1.02133096e+00
1.03532084e+00
1.12851862e+00
1.14341108e+00
1.14225289e+00
1.13379168e+00
1.12407102e+00
1.11746690e+00
1.10721832e+00
1.10457526e+00
1.11574718e+00
1.12365691e+00
1.12707814e+00
1.12124616e+00
1.11675455e+00
1.10710430e+00
1.10399321e+00
1.11266799e+00
1.10873142e+00
1.10756281e+00
1.10777774e+00
1.11346217e+00
1.11030074e+00
1.10266781e+00
1.10099723e+00
1.10207682e+00
1.10520121e+00
1.10579859e+00
1.10156705e+00
1.09677585e+00
1.09698844e+00
1.09862353e+00
1.09809640e+00
1.09378562e+00
1.09739416e+00
1.09674270e+00
1.09380850e+00
1.09983745e+00
1.09152961e+00
1.08911369e+00
1.09244478e+00
1.09454724e+00
1.08794628e+00
1.08888508e+00
1.08842021e+00
1.09215516e+00
1.08924641e+00
1.09464892e+00
1.08623398e+00
1.09230567e+00
1.09456386e+00
1.08407432e+00
1.07971893e+00
1.09025433e+00
1.08408527e+00
1.07789423e+00
1.07862701e+00
1.08528339e+00
1.08275058e+00
1.07859381e+00
1.08204116e+00
1.08155974e+00
1.07758508e+00
1.07421966e+00
1.07644537e+00
1.07782768e+00
1.07798457e+00
1.07433325e+00
1.07299904e+00
1.07843867e+00
1.07798182e+00
1.07091322e+00
1.07739089e+00
1.07679593e+00
1.07067924e+00
1.07517162e+00
1.07131916e+00
1.06848784e+00
1.07511608e+00
1.06957908e+00
1.06333651e+00
1.06902596e+00
1.06774621e+00
1.06428101e+00
1.06569080e+00
1.06942216e+00
1.07031185e+00
1.06815288e+00
1.06342097e+00
1.06127710e+00
1.06035281e+00
1.06575083e+00
1.06540446e+00
1.05874395e+00
1.06455300e+00
1.06701183e+00
1.06052857e+00
1.05917081e+00
1.06441353e+00
1.06159536e+00
1.05863404e+00
1.06660220e+00
1.07145169e+00
1.06107065e+00
1.05377452e+00
1.06646714e+00
1.07126782e+00
1.05676718e+00
1.04896663e+00
1.06694361e+00
1.07779259e+00
1.06101377e+00
1.04408289e+00
1.05584474e+00
1.07693742e+00
1.07184632e+00
1.04965078e+00
1.04856802e+00
1.07414811e+00
1.08579673e+00
1.06753180e+00
1.03995077e+00
1.03504840e+00
1.05632291e+00
1.07448048e+00
1.05947061e+00
1.02757959e+00
1.01027848e+00
1.01137665e+00
1.03272122e+00
1.13730972e+00
1.13871561e+00
1.13438596e+00
1.12614224e+00
1.12013914e+00
1.10918389e+00
1.11663056e+00
1.12629826e+00
1.12744397e+00
1.12288784e+00
1.12061463e+00
1.11860397e+00
1.11088228e+00
1.10953810e+00
1.11036236e+00
1.11268654e+00
1.10788823e+00
1.10840425e+00
1.11124398e+00
1.10351095e+00
1.10530175e+00
1.10805357e+00
1.10593096e+00
1.10521745e+00
1.10078969e+00
1.10156638e+00
1.09548451e+00
1.09893807e+00
1.09900762e+00
1.09804959e+00
1.09626410e+00
1.09516577e+00
1.09768520e+00
1.09677408e+00
1.09331345e+00
1.09575078e+00
1.08775831e+00
1.08918036e+00
1.09320909e+00
1.09438700e+00
1.08972449e+00
1.09526425e+00
1.09198388e+00
1.09211099e+00
1.08439835e+00
1.09065095e+00
1.08766420e+00
1.09009446e+00
1.08554196e+00
1.08198277e+00
1.08037133e+00
1.08701250e+00
1.08416914e+00
1.08586670e+00
1.08379720e+00
1.08797736e+00
1.08233493e+00
1.07949207e+00
1.08246039e+00
1.08328898e+00
1.08093941e+00
1.08067609e+00
1.07679853e+00
1.07568166e+00
1.07436120e+00
1.07711562e+00
1.07313057e+00
1.07628936e+00
1.07882078e+00
1.07347251e+00
1.07421313e+00
1.07456951e+00
1.06902469e+00
1.07279750e+00
1.07053934e+00
1.06713859e+00
1.07377313e+00
1.07011252e+00
1.06415499e+00
1.06436929e+00
1.06666100e+00
1.06581405e+00
1.06603997e+00
1.06637701e+00
1.06499355e+00
1.06520461e+00
1.07117101e+00
1.06522972e+00
1.06159694e+00
1.06338309e+00
1.06153518e+00
1.05758787e+00
1.06576015e+00
1.06747348e+00
1.05882044e+00
1.06182979e+00
1.06624799e+00
1.05772518e+00
1.05183164e+00
1.06831026e+00
1.07438017e+00
1.05963939e+00
1.05097737e+00
1.06511463e+00
1.07565170e+00
1.05779503e+00
1.04485355e+00
1.06439633e+00
1.08363886e+00
1.06270647e+00
1.03734020e+00
1.04961503e+00
1.08228617e+00
1.07820174e+00
1.04677173e+00
1.03954617e+00
1.06797188e+00
1.09391380e+00
1.07400733e+00
1.03752871e+00
1.03057261e+00
1.05521207e+00
1.08093847e+00
1.06875812e+00
1.02847381e+00
1.00093265e+00
1.00387548e+00
1.02893055e+00
1.13877764e+00
1.13370935e+00
1.12473368e+00
1.12371937e+00
1.12276626e+00
1.11763636e+00
1.12323031e+00
1.12584640e+00
1.12266007e+00
1.12236980e+00
1.12221748e+00
1.11325962e+00
1.11288789e+00
1.11424223e+00
1.11202949e+00
1.11372607e+00
1.11055097e+00
1.10292595e+00
1.10807947e+00
1.10781235e+00
1.10668506e+00
1.10077793e+00
1.10625484e+00
1.10964251e+00
1.10247711e+00
1.10022397e+00
1.09295444e+00
1.09186731e+00
1.09692939e+00
1.09772175e+00
1.09762158e+00
1.09796751e+00
1.09845246e+00
1.09106947e+00
1.09235190e+00
1.09369029e+00
1.09026037e+00
1.09411896e+00
1.09589141e+00
1.09522700e+00
1.09004193e+00
1.09663356e+00
1.09366700e+00
1.09172996e+00
1.08327958e+00
1.08410214e+00
1.07847774e+00
1.08484256e+00
1.08063205e+00
1.08389119e+00
1.08462536e+00
1.08601647e+00
1.08381233e+00
1.08772484e+00
1.08370966e+00
1.08867132e+00
1.08443589e+00
1.07745428e+00
1.08007187e+00
1.08010997e+00
1.07659148e+00
1.08134341e+00
1.07906180e+00
1.07473440e+00
1.07647180e+00
1.07758237e+00
1.07380647e+00
1.07123520e+00
1.07148931e+00
1.07147466e+00
1.07186842e+00
1.06547262e+00
1.06820935e+00
1.07269731e+00
1.06983287e+00
1.06318427e+00
1.06696348e+00
1.06652771e+00
1.06846279e+00
1.06836406e+00
1.06789342e+00
1.06526052e+00
1.06448429e+00
1.06549091e+00
1.05833162e+00
1.06409707e+00
1.07367777e+00
1.06496172e+00
1.06141211e+00
1.06636342e+00
1.06081312e+00
1.06100389e+00
1.06580763e+00
1.06334673e+00
1.05497367e+00
1.06082806e+00
1.07120296e+00
1.06022992e+00
1.04639557e+00
1.06170190e+00
1.07974171e+00
1.05957802e+00
1.04608853e+00
1.06713176e+00
1.07929832e+00
1.05578214e+00
1.04051298e+00
1.06158542e+00
1.08681291e+00
1.06769538e+00
1.03737751e+00
1.04320820e+00
1.07822490e+00
1.08086844e+00
1.04662897e+00
1.03736341e+00
1.06769682e+00
1.09575907e+00
1.07577729e+00
1.03545530e+00
1.02600317e+00
1.05611047e+00
1.08695421e+00
1.07361257e+00
1.02892837e+00
9.93641327e-01
9.98381701e-01
1.02938301e+00
1.13131919e+00
1.12723906e+00
1.12199849e+00
1.12119183e+00
1.11755084e+00
1.12986351e+00
1.13135218e+00
1.12455420e+00
1.11842185e+00
1.11948745e+00
1.11568963e+00
1.11317430e+00
1.11757460e+00
1.12117397e+00
1.11636071e+00
1.11102258e+00
1.10762410e+00
1.10548068e+00
1.10315826e+00
1.10323425e+00
1.10529272e+00
1.10884150e+00
1.11176237e+00
1.10325999e+00
1.09673234e+00
1.09338997e+00
1.09826710e+00
1.09716557e+00
1.09860450e+00
1.09546457e+00
1.09297612e+00
1.09415596e+00
1.09853921e+00
1.09168487e+00
1.09538511e+00
1.09231030e+00
1.09676591e+00
1.09548240e+00
1.09226270e+00
1.09029102e+00
1.09168600e+00
1.09160453e+00
1.09168240e+00
1.08552814e+00
1.08340482e+00
1.08649031e+00
1.08408562e+00
1.08534948e+00
1.08102276e+00
1.08623261e+00
1.08971967e+00
1.08539820e+00
1.08214046e+00
1.08562826e+00
1.08204120e+00
1.08196581e+00
1.07923009e+00
1.07703689e+00
1.08083840e+00
1.07908333e+00
1.07034676e+00
1.07874809e+00
1.08234618e+00
1.07697401e+00
1.07780416e+00
1.07447644e+00
1.07106858e+00
1.07316348e+00
1.06735350e+00
1.06877576e+00
1.07633578e+00
1.06824313e+00
1.06517012e+00
1.07135209e+00
1.06979902e+00
1.06612794e+00
1.06992830e+00
1.07026932e+00
1.06673485e+00
1.06996323e+00
1.06696902e+00
1.06311128e+00
1.06516614e+00
1.06986398e+00
1.05935464e+00
1.06170398e+00
1.06874503e+00
1.06302982e+00
1.06394838e+00
1.06982539e+00
1.06238041e+00
1.05782849e+00
1.06524550e+00
1.06590570e+00
1.05524255e+00
1.05654805e+00
1.07230530e+00
1.06276011e+00
1.04530179e+00
1.05885751e+00
1.07819171e+00
1.06074895e+00
1.04285827e+00
1.06447368e+00
1.08532110e+00
1.05994050e+00
1.03614360e+00
1.05637731e+00
1.08671835e+00
1.06904835e+00
1.03784415e+00
1.04516810e+00
1.07675558e+00
1.07987613e+00
1.04551434e+00
1.03194342e+00
1.06361409e+00
1.09848144e+00
1.08107255e+00
1.03728363e+00
1.02225745e+00
1.05060849e+00
1.08871340e+00
1.08012042e+00
1.02972677e+00
9.91743338e-01
9.91454487e-01
1.02635369e+00
1.12279389e+00
1.11657046e+00
1.11864786e+00
1.12548418e+00
1.13022521e+00
1.13025793e+00
1.12199116e+00
1.12192483e+00
1.12051931e+00
1.11478197e+00
1.11138302e+00
1.12202753e+00
1.12033012e+00
1.12071164e+00
1.11488706e+00
1.11372385e+00
1.10736883e+00
1.10449544e+00
1.10249917e+00
1.10891341e+00
1.10635890e+00
1.10466742e+00
1.10623618e+00
1.10102127e+00
1.09697250e+00
1.09638665e+00
1.09475651e+00
1.09744822e+00
1.09543328e+00
1.09962538e+00
1.09946427e+00
1.09500340e+00
1.09541345e+00
1.08962403e+00
1.09397912e+00
1.09310434e+00
1.09782168e+00
1.09583236e+00
1.08918750e+00
1.08530910e+00
1.08901354e+00
1.08237064e+00
1.08681252e+00
1.08474588e+00
1.08582702e+00
1.08644330e+00
1.08838711e+00
1.09328689e+00
1.08796939e+00
1.08549404e+00
1.09113775e+00
1.08277815e+00
1.07556244e+00
1.08289544e+00
1.08479477e+00
1.07931875e+00
1.07527129e+00
1.07883768e+00
1.08216681e+00
1.07780400e+00
1.07327030e+00
1.08252571e+00
1.08069508e+00
1.07029502e+00
1.07526518e+00
1.07666301e+00
1.07277267e+00
1.07791822e+00
1.07401921e+00
1.06868610e+00
1.07546613e+00
1.07229256e+00
1.06730924e+00
1.07562144e+00
1.07677803e+00
1.06829884e+00
1.07025147e+00
1.06990044e+00
1.06240533e+00
1.07015871e+00
1.06933423e+00
1.06559553e+00
1.06592743e+00
1.06547674e+00
1.05984328e+00
1.06169423e+00
1.06682286e+00
1.06418148e+00
1.06568981e+00
1.07005852e+00
1.06203449e+00
1.05406382e+00
1.06650663e+00
1.07100560e+00
1.05305976e+00
1.05134396e+00
1.07314583e+00
1.06757380e+00
1.04538038e+00
1.05419865e+00
1.07558191e+00
1.06245506e+00
1.04301481e+00
1.05852468e+00
1.08218844e+00
1.06611726e+00
1.03981256e+00
1.05472009e+00
1.08215153e+00
1.06911595e+00
1.03922332e+00
1.04516366e+00
1.07698139e+00
1.07788245e+00
1.04228999e+00
1.03078642e+00
1.06406443e+00
1.09893884e+00
1.08048079e+00
1.03646691e+00
1.02207957e+00
1.05166310e+00
1.08941709e+00
1.08285130e+00
1.03129391e+00
9.89026893e-01
9.89512615e-01
1.02237444e+00
1.12296908e+00
1.11989598e+00
1.12074173e+00
1.12838052e+00
1.12825210e+00
1.12453147e+00
1.12180886e+00
1.11941874e+00
1.11525309e+00
1.11447930e+00
1.11671252e+00
1.12168659e+00
1.11583756e+00
1.11732411e+00
1.11670731e+00
1.10972464e+00
1.10417715e+00
1.10829370e+00
1.11109204e+00
1.11044486e+00
1.10828902e+00
1.10407310e+00
1.09661135e+00
1.08969480e+00
1.09706246e+00
1.10315933e+00
1.09813556e+00
1.10295307e+00
1.09578884e+00
1.09561082e+00
1.09528835e+00
1.09111219e+00
1.09322036e+00
1.09469753e+00
1.09819852e+00
1.09652239e+00
1.09565379e+00
1.09161995e+00
1.09014978e+00
1.08346310e+00
1.08696699e+00
1.07876697e+00
1.08538083e+00
1.08450194e+00
1.08928720e+00
1.08767318e+00
1.08475806e+00
1.08691984e+00
1.08582781e+00
1.08448147e+00
1.09168706e+00
1.08136591e+00
1.07480052e+00
1.08142383e+00
1.07964157e+00
1.07569241e+00
1.07670833e+00
1.08226378e+00
1.08392140e+00
1.07857362e+00
1.07352448e+00
1.08024899e+00
1.07730050e+00
1.06991551e+00
1.07515176e+00
1.07708154e+00
1.07217740e+00
1.07598130e+00
1.07640269e+00
1.07213537e+00
1.07540544e+00
1.07736341e+00
1.07026448e+00
1.07140588e+00
1.07239594e+00
1.06838519e+00
1.06963726e+00
1.06595757e+00
1.06208739e+00
1.07224951e+00
1.06761454e+00
1.06079565e+00
1.06739512e+00
1.06735436e+00
1.06370679e+00
1.06472053e+00
1.06857318e+00
1.05913819e+00
1.05831136e+00
1.07185110e+00
1.06763848e+00
1.05308114e+00
1.06577737e+00
1.07098979e+00
1.05102994e+00
1.05249508e+00
1.07379730e+00
1.06858884e+00
1.04631810e+00
1.05118235e+00
1.07273393e+00
1.06712152e+00
1.04485628e+00
1.05498136e+00
1.07702225e+00
1.06538440e+00
1.04179047e+00
1.05534284e+00
1.08069043e+00
1.06727650e+00
1.03994658e+00
1.04590600e+00
1.07634907e+00
1.07853991e+00
1.04303894e+00
1.02739327e+00
1.05821508e+00
1.09640431e+00
1.08166648e+00
1.03885862e+00
1.02381772e+00
1.05136087e+00
1.09131520e+00
1.08289068e+00
1.03118245e+00
9.89164203e-01
9.89452517e-01
1.02136978e+00
1.12207067e+00
1.12466256e+00
1.12811805e+00
1.12721133e+00
1.12621059e+00
1.12115363e+00
1.11725765e+00
1.11547121e+00
1.11426272e+00
1.12015731e+00
1.11871708e+00
1.11529853e+00
1.11630817e+00
1.11612978e+00
1.10747756e+00
1.10656862e+00
1.11035378e+00
1.11534480e+00
1.11351008e+00
1.10963698e+00
1.10805318e+00
1.09487034e+00
1.09692338e+00
1.09970232e+00
1.09832001e+00
1.09902646e+00
1.10041025e+00
1.10231030e+00
1.09549281e+00
1.09413778e+00
1.09496116e+00
1.09291019e+00
1.09436303e+00
1.09282502e+00
1.09442924e+00
1.09224231e+00
1.09210121e+00
1.08823490e+00
1.09450873e+00
1.08634826e+00
1.09118537e+00
1.08265956e+00
1.08595578e+00
1.08087490e+00
1.09060103e+00
1.08285840e+00
1.08098117e+00
1.08280767e+00
1.08506472e+00
1.07641298e+00
1.08556981e+00
1.07534758e+00
1.07722070e+00
1.08425769e+00
1.07824095e+00
1.07476561e+00
1.08253457e+00
1.07655448e+00
1.07633112e+00
1.07627210e+00
1.07254015e+00
1.07438883e+00
1.07541499e+00
1.07108589e+00
1.07573067e+00
1.07120893e+00
1.07051960e+00
1.07608513e+00
1.07745119e+00
1.07143593e+00
1.06962856e+00
1.06969734e+00
1.07037374e+00
1.06964683e+00
1.06549664e+00
1.06565055e+00
1.07472846e+00
1.06917744e+00
1.05876667e+00
1.06764260e+00
1.06802709e+00
1.06169927e+00
1.07070155e+00
1.07163417e+00
1.06463862e+00
1.06670908e+00
1.06897469e+00
1.05602151e+00
1.05481934e+00
1.07445808e+00
1.06896726e+00
1.04930428e+00
1.06230323e+00
1.07505922e+00
1.05568690e+00
1.04809518e+00
1.06962193e+00
1.07502757e+00
1.04961549e+00
1.04668596e+00
1.06786923e+00
1.06692923e+00
1.04741128e+00
1.05590911e+00
1.07581630e+00
1.06495164e+00
1.04215350e+00
1.05324881e+00
1.07782099e+00
1.06732295e+00
1.04044847e+00
1.04705274e+00
1.07591817e+00
1.07665982e+00
1.04216506e+00
1.02628724e+00
1.05607618e+00
1.09429583e+00
1.08293992e+00
1.03751210e+00
1.02075151e+00
1.04915326e+00
1.09196488e+00
1.08822914e+00
1.03234366e+00
9.88504639e-01
9.86075429e-01
1.02020779e+00
1.11879781e+00
1.12220127e+00
1.12618814e+00
1.12535115e+00
1.12106180e+00
1.11854231e+00
1.12204336e+00
1.11844350e+00
1.11656858e+00
1.12171649e+00
1.11804488e+00
1.11520742e+00
1.11101099e+00
1.10645291e+00
1.10135015e+00
1.10955290e+00
1.11613171e+00
1.12174933e+00
1.11599248e+00
1.10971224e+00
1.10145504e+00
1.09393962e+00
1.09640227e+00
1.09666629e+00
1.09934521e+00
1.10427519e+00
1.10234785e+00
1.09762043e+00
1.09339562e+00
1.09896162e+00
1.09234159e+00
1.09231010e+00
1.09445335e+00
1.09406170e+00
1.09512579e+00
1.08870331e+00
1.08719790e+00
1.08662664e+00
1.09180252e+00
1.08814110e+00
1.09431016e+00
1.08847446e+00
1.08941392e+00
1.08231491e+00
1.09260221e+00
1.07815130e+00
1.07761294e+00
1.07898773e+00
1.08262368e+00
1.07261582e+00
1.08594738e+00
1.07616404e+00
1.08076693e+00
1.08318953e+00
1.07647676e+00
1.07239409e+00
1.08574693e+00
1.07437704e+00
1.07142260e+00
1.07428769e+00
1.07443857e+00
1.07257644e+00
1.07395184e+00
1.06936123e+00
1.07775823e+00
1.07355336e+00
1.06865243e+00
1.07214347e+00
1.07158334e+00
1.06817804e+00
1.07211770e+00
1.06933992e+00
1.06588619e+00
1.07186210e+00
1.06736036e+00
1.06347504e+00
1.07256664e+00
1.07447723e+00
1.06470362e+00
1.07161649e+00
1.07016693e+00
1.06164857e+00
1.06949241e+00
1.07021357e+00
1.05937009e+00
1.06643646e+00
1.07516575e+00
1.06101750e+00
1.05183508e+00
1.06800384e+00
1.06682438e+00
1.05224036e+00
1.06239845e+00
1.07729121e+00
1.06088717e+00
1.04372825e+00
1.06132368e+00
1.07586716e+00
1.05634251e+00
1.04983912e+00
1.06612712e+00
1.06379686e+00
1.04668117e+00
1.05529276e+00
1.07452704e+00
1.06534103e+00
1.04409501e+00
1.05177392e+00
1.07602022e+00
1.06756316e+00
1.03988552e+00
1.04279695e+00
1.07432442e+00
1.08153009e+00
1.04686701e+00
1.02523011e+00
1.05107694e+00
1.08762739e+00
1.08300737e+00
1.04397343e+00
1.02249238e+00
1.04438884e+00
1.08506859e+00
1.08822990e+00
1.03644737e+00
9.90974930e-01
9.86485986e-01
1.01542536e+00
1.12046983e+00
1.12225048e+00
1.12012971e+00
1.12328972e+00
1.12284516e+00
1.11821325e+00
1.11285286e+00
1.12033884e+00
1.13026277e+00
1.12326234e+00
1.11580576e+00
1.11211796e+00
1.10561875e+00
1.10324944e+00
1.10558211e+00
1.11386954e+00
1.11619729e+00
1.11753053e+00
1.11276196e+00
1.10716336e+00
1.09904377e+00
1.10194954e+00
1.10007798e+00
1.10629724e+00
1.10076534e+00
1.09637210e+00
1.09340452e+00
1.09776221e+00
1.09357981e+00
1.09645813e+00
1.09172968e+00
1.09785170e+00
1.09685536e+00
1.09505526e+00
1.08917705e+00
1.08739250e+00
1.08337198e+00
1.09307926e+00
1.08997733e+00
1.08738416e+00
1.09020204e+00
1.08587272e+00
1.08882547e+00
1.08283843e+00
1.09008113e+00
1.08187150e+00
1.08338699e+00
1.08690988e+00
1.08362927e+00
1.07188422e+00
1.08054423e+00
1.07339829e+00
1.07909761e+00
1.08372585e+00
1.07563051e+00
1.07430310e+00
1.08227959e+00
1.07407489e+00
1.07241919e+00
1.07585723e+00
1.07670579e+00
1.07746367e+00
1.07572514e+00
1.07176369e+00
1.07831735e+00
1.07717045e+00
1.06557067e+00
1.07171997e+00
1.07498333e+00
1.06759589e+00
1.07218045e+00
1.07402719e+00
1.06803369e+00
1.07654800e+00
1.07303898e+00
1.06460947e+00
1.07147297e+00
1.07364134e+00
1.06788302e+00
1.07131053e+00
1.07209443e+00
1.06266075e+00
1.06961363e+00
1.07005326e+00
1.05789308e+00
1.06344439e+00
1.07505318e+00
1.06063582e+00
1.05043325e+00
1.06934627e+00
1.07151679e+00
1.05146631e+00
1.05575502e+00
1.07635950e+00
1.06745473e+00
1.04761235e+00
1.06032996e+00
1.07067151e+00
1.05384840e+00
1.05215828e+00
1.06905517e+00
1.06365780e+00
1.04718227e+00
1.05266716e+00
1.07167231e+00
1.06634552e+00
1.04593959e+00
1.04954640e+00
1.07307890e+00
1.06586326e+00
1.04193243e+00
1.04262133e+00
1.07037313e+00
1.07867283e+00
1.04918329e+00
1.02628082e+00
1.04702120e+00
1.08572579e+00
1.08387230e+00
1.04564672e+00
1.02465373e+00
1.04302597e+00
1.08365518e+00
1.08565778e+00
1.03834386e+00
9.91317141e-01
9.87342439e-01
1.01348037e+00
1.12177761e+00
1.12679906e+00
1.12111700e+00
1.11028371e+00
1.11395746e+00
1.11555196e+00
1.12479629e+00
1.12597002e+00
1.12606108e+00
1.12079822e+00
1.11835463e+00
1.10640326e+00
1.10190170e+00
1.10322144e+00
1.11277942e+00
1.11495571e+00
1.11798898e+00
1.11427153e+00
1.10504785e+00
1.09988813e+00
1.10351987e+00
1.10878006e+00
1.10928271e+00
1.10169804e+00
1.10045261e+00
1.09944944e+00
1.09199530e+00
1.09518972e+00
1.08942395e+00
1.09505351e+00
1.09632299e+00
1.10118238e+00
1.09370015e+00
1.09030943e+00
1.08970747e+00
1.09477310e+00
1.08451885e+00
1.09137588e+00
1.08298281e+00
1.08170496e+00
1.08344438e+00
1.08587089e+00
1.08951261e+00
1.08250219e+00
1.08715657e+00
1.08770474e+00
1.08485038e+00
1.08430224e+00
1.08410281e+00
1.07876906e+00
1.08445566e+00
1.07510482e+00
1.07817547e+00
1.07988805e+00
1.06997525e+00
1.07504873e+00
1.08461861e+00
1.07396420e+00
1.07420280e+00
1.07821299e+00
1.07721208e+00
1.07804905e+00
1.07486896e+00
1.07205383e+00
1.07855765e+00
1.07845733e+00
1.07171861e+00
1.07464584e+00
1.07639411e+00
1.06963064e+00
1.07609148e+00
1.07605813e+00
1.07050002e+00
1.07490990e+00
1.07289159e+00
1.06703493e+00
1.07202975e+00
1.06898189e+00
1.06810409e+00
1.07112375e+00
1.07063631e+00
1.05839124e+00
1.06758541e+00
1.07295699e+00
1.05639988e+00
1.05932016e+00
1.07572178e+00
1.06218237e+00
1.05167036e+00
1.07123221e+00
1.07545594e+00
1.05132256e+00
1.05007271e+00
1.07266070e+00
1.06922093e+00
1.05306828e+00
1.05904150e+00
1.06712206e+00
1.05590380e+00
1.05240120e+00
1.06925733e+00
1.06618908e+00
1.04626716e+00
1.05102691e+00
1.07010003e+00
1.06574368e+00
1.04642224e+00
1.04888661e+00
1.07156373e+00
1.06736086e+00
1.04360247e+00
1.03895791e+00
1.06664373e+00
1.07768511e+00
1.05149322e+00
1.03032770e+00
1.04255858e+00
1.07738581e+00
1.08264060e+00
1.04764941e+00
1.02755482e+00
1.04269667e+00
1.08120497e+00
1.08610763e+00
1.03907011e+00
9.93614102e-01
9.88947978e-01
1.01240162e+00
1.12187335e+00
1.11960998e+00
1.11281092e+00
1.10968744e+00
1.11307635e+00
1.11105214e+00
1.12453813e+00
1.12635925e+00
1.12681881e+00
1.11521502e+00
1.10845072e+00
1.10163491e+00
1.10735787e+00
1.11540462e+00
1.11483891e+00
1.11375946e+00
1.11386654e+00
1.10336709e+00
1.10159094e+00
1.10785278e+00
1.11164574e+00
1.10672195e+00
1.10855379e+00
1.10063514e+00
1.10289807e+00
1.09245841e+00
1.09187606e+00
1.09488286e+00
1.09708187e+00
1.09658109e+00
1.09281527e+00
1.09717426e+00
1.09239177e+00
1.09077661e+00
1.08927513e+00
1.09225161e+00
1.08759571e+00
1.09277305e+00
1.08598454e+00
1.08285187e+00
1.08082694e+00
1.08322588e+00
1.08461430e+00
1.08179034e+00
1.08521445e+00
1.08799324e+00
1.08287181e+00
1.08107752e+00
1.08247147e+00
1.07774027e+00
1.08508020e+00
1.08002048e+00
1.07950262e+00
1.08219953e+00
1.07049959e+00
1.07497413e+00
1.08492483e+00
1.06938935e+00
1.07170349e+00
1.08139719e+00
1.07228207e+00
1.07309757e+00
1.07401231e+00
1.07303279e+00
1.07785493e+00
1.07127469e+00
1.07090449e+00
1.07929218e+00
1.07343866e+00
1.06982672e+00
1.07711154e+00
1.07203990e+00
1.06694270e+00
1.07196942e+00
1.06936527e+00
1.06471402e+00
1.07028030e+00
1.06482618e+00
1.05994139e+00
1.07004603e+00
1.07336792e+00
1.05793174e+00
1.06526759e+00
1.07375202e+00
1.05478866e+00
1.05584038e+00
1.07583709e+00
1.06745081e+00
1.04981511e+00
1.06478656e+00
1.07479190e+00
1.05682931e+00
1.05407571e+00
1.07162329e+00
1.06262869e+00
1.04965053e+00
1.06167203e+00
1.07150544e+00
1.05643595e+00
1.04920579e+00
1.06857443e+00
1.07198543e+00
1.04740523e+00
1.04556223e+00
1.06814720e+00
1.06659468e+00
1.04598852e+00
1.04785198e+00
1.06861661e+00
1.06613337e+00
1.04480477e+00
1.04092734e+00
1.06518200e+00
1.07775585e+00
1.05294618e+00
1.02896129e+00
1.04142381e+00
1.07324236e+00
1.08089598e+00
1.05105815e+00
1.02558550e+00
1.03965612e+00
1.07517881e+00
1.08909211e+00
1.04443834e+00
9.97648432e-01
9.91123816e-01
1.00991466e+00
1.12094848e+00
1.11145662e+00
1.10659679e+00
1.10952278e+00
1.11346716e+00
1.12413905e+00
1.12611484e+00
1.12210711e+00
1.10948222e+00
1.10708334e+00
1.10679119e+00
1.10642372e+00
1.11099102e+00
1.11298545e+00
1.11173952e+00
1.11639309e+00
1.11134193e+00
1.10412496e+00
1.10590150e+00
1.10775972e+00
1.11066643e+00
1.10718103e+00
1.10868217e+00
1.09866285e+00
1.09321184e+00
1.09708151e+00
1.10003660e+00
1.09363156e+00
1.09858023e+00
1.09637866e+00
1.09520718e+00
1.09051887e+00
1.08855829e+00
1.08808398e+00
1.08913029e+00
1.09521667e+00
1.08544203e+00
1.09009267e+00
1.08126308e+00
1.09013777e+00
1.08794462e+00
1.09038866e+00
1.08684736e+00
1.08441697e+00
1.07904340e+00
1.08033686e+00
1.07869763e+00
1.08213603e+00
1.07542572e+00
1.07514705e+00
1.08670061e+00
1.08221189e+00
1.07169023e+00
1.08317281e+00
1.07690226e+00
1.07349744e+00
1.07703599e+00
1.06967890e+00
1.07160401e+00
1.08422161e+00
1.06915440e+00
1.07030910e+00
1.07405907e+00
1.06943164e+00
1.07149897e+00
1.06964903e+00
1.06896837e+00
1.08105878e+00
1.06888503e+00
1.06230422e+00
1.07031841e+00
1.06858071e+00
1.06044338e+00
1.06771162e+00
1.06867263e+00
1.06560116e+00
1.07066687e+00
1.06692297e+00
1.05468725e+00
1.06695711e+00
1.07141305e+00
1.05732446e+00
1.06335166e+00
1.07468991e+00
1.05640489e+00
1.05374399e+00
1.07254663e+00
1.07245368e+00
1.05177543e+00
1.05917245e+00
1.07436497e+00
1.05789949e+00
1.05260278e+00
1.06656201e+00
1.06388115e+00
1.05338360e+00
1.06059908e+00
1.07096927e+00
1.05656301e+00
1.04639664e+00
1.06815603e+00
1.07350198e+00
1.05154199e+00
1.04550732e+00
1.06416216e+00
1.06689497e+00
1.04589581e+00
1.04362876e+00
1.06500055e+00
1.06985488e+00
1.04471357e+00
1.03622977e+00
1.06052563e+00
1.07851832e+00
1.05972392e+00
1.03176456e+00
1.03695378e+00
1.06995286e+00
1.07957482e+00
1.05405074e+00
1.02738253e+00
1.03676490e+00
1.07060655e+00
1.08565001e+00
1.04825176e+00
1.00308535e+00
9.94654788e-01
1.00859027e+00
1.11358587e+00
1.10425216e+00
1.11137972e+00
1.11719965e+00
1.12100235e+00
1.12677365e+00
1.11662416e+00
1.11241380e+00
1.10919440e+00
1.10325893e+00
1.09916918e+00
1.11028262e+00
1.11418383e+00
1.11542060e+00
1.11201715e+00
1.11034347e+00
1.10369262e+00
1.10898248e+00
1.11064845e+00
1.10983965e+00
1.10868159e+00
1.10651164e+00
1.10185760e+00
1.09570608e+00
1.09978722e+00
1.10039538e+00
1.09934381e+00
1.09881233e+00
1.09963505e+00
1.09615737e+00
1.09137394e+00
1.08748780e+00
1.09069195e+00
1.08603497e+00
1.09114673e+00
1.09224871e+00
1.08075096e+00
1.08886783e+00
1.08259385e+00
1.09407289e+00
1.08623207e+00
1.08758073e+00
1.09104544e+00
1.08792930e+00
1.08154285e+00
1.08207136e+00
1.07380107e+00
1.08219946e+00
1.07664954e+00
1.07703169e+00
1.08180786e+00
1.07814714e+00
1.06904543e+00
1.08028285e+00
1.07594714e+00
1.07781519e+00
1.07573053e+00
1.07354129e+00
1.07409238e+00
1.08099498e+00
1.06778615e+00
1.07193239e+00
1.07812074e+00
1.07487977e+00
1.07229386e+00