# vtk DataFile Version 2.0
LBM Flow Field - Timestep 690
ASCII
DATASET STRUCTURED_POINTS
DIMENSIONS 128 128 1
ORIGIN 0.0 0.0 0.0
SPACING 1.0 1.0 1.0
POINT_DATA 16384
SCALARS density double 1
LOOKUP_TABLE default
1.31992659e+00
1.30741739e+00
1.29243425e+00
1.27768583e+00
1.26294917e+00
1.24862598e+00
1.23431685e+00
1.22058894e+00
1.20687185e+00
1.19388732e+00
1.18090506e+00
1.16878516e+00
1.15665482e+00
1.14549063e+00
1.13430107e+00
1.12415207e+00
1.11396283e+00
1.10485719e+00
1.09569881e+00
1.08763533e+00
1.07951093e+00
1.07246229e+00
1.06535026e+00
1.05926726e+00
1.05312473e+00
1.04794113e+00
1.04270800e+00
1.03834555e+00
1.03394878e+00
1.03032211e+00
1.02668000e+00
1.02370103e+00
1.02072731e+00
1.01830902e+00
1.01591652e+00
1.01397595e+00
1.01207972e+00
1.01054013e+00
1.00905997e+00
1.00785221e+00
1.00671451e+00
1.00577772e+00
1.00491673e+00
1.00419836e+00
1.00355683e+00
1.00301240e+00
1.00254168e+00
1.00213409e+00
1.00179385e+00
1.00149262e+00
1.00125022e+00
1.00103063e+00
1.00086027e+00
1.00070253e+00
1.00058431e+00
1.00047276e+00
1.00039165e+00
1.00031409e+00
1.00025899e+00
1.00020602e+00
1.00016893e+00
1.00013342e+00
1.00010865e+00
1.00008531e+00
1.00006890e+00
1.00005385e+00
1.00004307e+00
1.00003356e+00
1.00002653e+00
1.00002064e+00
1.00001611e+00
1.00001252e+00
1.00000965e+00
1.00000750e+00
1.00000569e+00
1.00000442e+00
1.00000332e+00
1.00000257e+00
1.00000190e+00
1.00000147e+00
1.00000108e+00
1.00000083e+00
1.00000060e+00
1.00000046e+00
1.00000033e+00
1.00000025e+00
1.00000018e+00
1.00000013e+00
1.00000010e+00
1.00000007e+00
1.00000005e+00
1.00000004e+00
1.00000003e+00
1.00000002e+00
1.00000001e+00
1.00000001e+00
1.00000001e+00
1.00000000e+00
1.00000000e+00
1.00000000e+00
1.00000000e+00
1.00000000e+00
1.00000000e+00
1.00000000e+00
1.00000000e+00
1.00000000e+00
1.00000000e+00
1.00000000e+00
1.00000000e+00
1.00000000e+00
1.00000000e+00
1.00000000e+00
1.00000000e+00
1.00000000e+00
1.00000000e+00
1.00000000e+00
1.00000000e+00
1.00000000e+00
1.00000000e+00
1.00000000e+00
1.00000000e+00
1.00000000e+00
1.00000000e+00
1.00000000e+00
1.00000000e+00
1.00000000e+00
1.00000000e+00
1.00000000e+00
1.11552914e+00
1.09305437e+00
1.07720487e+00
1.06530054e+00
1.06144097e+00
1.05467731e+00
1.04772508e+00
1.03819529e+00
1.04834857e+00
1.04197687e+00
1.02900560e+00
1.04020665e+00
1.03189140e+00
1.02942169e+00
1.03198321e+00
1.03186031e+00
1.02519258e+00
1.02778148e+00
1.02654809e+00
1.01001823e+00
1.03596946e+00
1.02709519e+00
1.03443902e+00
1.01002419e+00
1.03481106e+00
1.03260166e+00
1.02256717e+00
1.02742804e+00
1.03309570e+00
1.02751191e+00
1.02839443e+00
1.02409011e+00
1.02601152e+00
1.03528090e+00
1.03953151e+00
1.03031612e+00
1.02307822e+00
1.02931215e+00
1.03585724e+00
1.03506458e+00
1.02905411e+00
1.02674983e+00
1.03181340e+00
1.04075167e+00
1.04025781e+00
1.03467328e+00
1.03604599e+00
1.04030083e+00
1.03517719e+00
1.02698843e+00
1.02906078e+00
1.03425990e+00
1.03547937e+00
1.03220257e+00
1.02734249e+00
1.03146269e+00
1.03299744e+00
1.03039520e+00
1.03135237e+00
1.03071504e+00
1.03026171e+00
1.02798612e+00
1.02994221e+00
1.03453044e+00
1.02676695e+00
1.02965510e+00
1.03061703e+00
1.02568908e+00
1.03073599e+00
1.02985081e+00
1.02494845e+00
1.02938015e+00
1.02939658e+00
1.02651334e+00
1.02727659e+00
1.02833900e+00
1.02530892e+00
1.02741568e+00
1.02728325e+00
1.02511608e+00
1.02601682e+00
1.02754886e+00
1.02607501e+00
1.02585051e+00
1.02566929e+00
1.02663192e+00
1.02702639e+00
1.02553098e+00
1.02599042e+00
1.02564413e+00
1.02603626e+00
1.02583455e+00
1.02480932e+00
1.02494527e+00
1.02481659e+00
1.02441576e+00
1.02642552e+00
1.02548737e+00
1.02522179e+00
1.02439209e+00
1.02463388e+00
1.02552016e+00
1.02360664e+00
1.02366935e+00
1.02408353e+00
1.02268179e+00
1.02380479e+00
1.02399901e+00
1.02470931e+00
1.02355330e+00
1.02303300e+00
1.02364142e+00
1.02270984e+00
1.02077117e+00
1.02140460e+00
1.02144242e+00
1.02245043e+00
1.02182320e+00
1.02132397e+00
1.02040686e+00
1.02011965e+00
1.02076675e+00
1.02168336e+00
1.02027146e+00
1.02059259e+00
1.01895122e+00
1.02056529e+00
1.02001518e+00
1.09384926e+00
1.08501549e+00
1.07915183e+00
1.06079484e+00
1.05284824e+00
1.05133510e+00
1.05393443e+00
1.04503085e+00
1.04167616e+00
1.02812611e+00
1.04361447e+00
1.04138562e+00
1.02961150e+00
1.03287453e+00
1.02781545e+00
1.02181899e+00
1.02837618e+00
1.02778995e+00
1.01861195e+00
1.03444236e+00
1.02850394e+00
1.02003869e+00
1.03800350e+00
1.03111526e+00
1.02167451e+00
1.02609487e+00
1.03367633e+00
1.02284815e+00
1.02847072e+00
1.02785505e+00
1.02582802e+00
1.02780673e+00
1.03329980e+00
1.03102987e+00
1.03105065e+00
1.03285126e+00
1.02989687e+00
1.03018898e+00
1.03336068e+00
1.03173823e+00
1.02603872e+00
1.03234496e+00
1.03409571e+00
1.03030903e+00
1.03173988e+00
1.03950631e+00
1.04116044e+00
1.03308525e+00
1.03105099e+00
1.03230266e+00
1.03653895e+00
1.03409884e+00
1.02681865e+00
1.02985158e+00
1.03373816e+00
1.03221965e+00
1.02966339e+00
1.02927732e+00
1.02938150e+00
1.03380672e+00
1.02789343e+00
1.02954859e+00
1.02709633e+00
1.03224372e+00
1.03195143e+00
1.02292806e+00
1.03323377e+00
1.02758633e+00
1.02778787e+00
1.03150337e+00
1.02707317e+00
1.02674460e+00
1.02883597e+00
1.02934958e+00
1.02556937e+00
1.02699003e+00
1.02818349e+00
1.02666752e+00
1.02789382e+00
1.02814956e+00
1.02430123e+00
1.02622867e+00
1.02470888e+00
1.02644369e+00
1.02673209e+00
1.02603036e+00
1.02544022e+00
1.02494932e+00
1.02647222e+00
1.02516529e+00
1.02471463e+00
1.02473810e+00
1.02433525e+00
1.02493828e+00
1.02512962e+00
1.02542581e+00
1.02413182e+00
1.02391441e+00
1.02557062e+00
1.02463964e+00
1.02319869e+00
1.02367644e+00
1.02514097e+00
1.02538249e+00
1.02388246e+00
1.02155732e+00
1.02337026e+00
1.02457099e+00
1.02533438e+00
1.02436119e+00
1.02214834e+00
1.02301678e+00
1.02347002e+00
1.02220090e+00
1.02242946e+00
1.02288749e+00
1.02344124e+00
1.02139481e+00
1.02127653e+00
1.02177960e+00
1.02222041e+00
1.02024601e+00
1.02034864e+00
1.02091879e+00
1.02177845e+00
1.01888686e+00
1.01833245e+00
1.01980503e+00
1.07908632e+00
1.07600329e+00
1.07410890e+00
1.06546974e+00
1.05966746e+00
1.05453861e+00
1.04352004e+00
1.03997416e+00
1.04486158e+00
1.04073829e+00
1.03556864e+00
1.02977124e+00
1.03545270e+00
1.03096892e+00
1.02971353e+00
1.03227199e+00
1.02641970e+00
1.02627670e+00
1.02716660e+00
1.02833969e+00
1.02645155e+00
1.03212185e+00
1.02540478e+00
1.02894408e+00
1.03502996e+00
1.02604105e+00
1.02594909e+00
1.02935945e+00
1.02530723e+00
1.02293436e+00
1.03079247e+00
1.02846665e+00
1.02721483e+00
1.02799470e+00
1.02916478e+00
1.03203871e+00
1.03671194e+00
1.03402004e+00
1.02548255e+00
1.03065778e+00
1.03505787e+00
1.02648011e+00
1.02538447e+00
1.03173758e+00
1.03872098e+00
1.03848236e+00
1.03465732e+00
1.03073752e+00
1.03536170e+00
1.03753732e+00
1.03051279e+00
1.02828897e+00
1.03209162e+00
1.03460041e+00
1.03115477e+00
1.02698215e+00
1.02906670e+00
1.03475928e+00
1.02971950e+00
1.02517511e+00
1.02819045e+00
1.03350848e+00
1.03167831e+00
1.02387866e+00
1.02956144e+00
1.02831896e+00
1.02901749e+00
1.03094404e+00
1.02725245e+00
1.02615425e+00
1.03012762e+00
1.02843034e+00
1.02635553e+00
1.02862740e+00
1.02700724e+00
1.02608007e+00
1.02937736e+00
1.02922138e+00
1.02583409e+00
1.02818681e+00
1.02790591e+00
1.02641714e+00
1.02569246e+00
1.02661819e+00
1.02757868e+00
1.02639804e+00
1.02565352e+00
1.02497700e+00
1.02561190e+00
1.02510259e+00
1.02566446e+00
1.02523469e+00
1.02389271e+00
1.02354735e+00
1.02406501e+00
1.02616229e+00
1.02492997e+00
1.02275448e+00
1.02516710e+00
1.02364705e+00
1.02402789e+00
1.02486070e+00
1.02544879e+00
1.02505382e+00
1.02214143e+00
1.02213605e+00
1.02430659e+00
1.02363508e+00
1.02184837e+00
1.02270504e+00
1.02436164e+00
1.02423201e+00
1.02188825e+00
1.02049649e+00
1.02212541e+00
1.02290638e+00
1.02308892e+00
1.02167013e+00
1.01958061e+00
1.02031355e+00
1.02202228e+00
1.02191724e+00
1.02037729e+00
1.01919833e+00
1.02104628e+00
1.02078301e+00
1.02029395e+00
1.01893887e+00
1.07008986e+00
1.06648838e+00
1.06184448e+00
1.05965890e+00
1.06545664e+00
1.05064438e+00
1.04225967e+00
1.05245149e+00
1.04088849e+00
1.03718449e+00
1.04107332e+00
1.03505792e+00
1.03371505e+00
1.03536550e+00
1.02959118e+00
1.02674250e+00
1.03621662e+00
1.03021241e+00
1.02392094e+00
1.03001164e+00
1.02611553e+00
1.02561433e+00
1.02771988e+00
1.02657864e+00
1.02283010e+00
1.03284746e+00
1.02656821e+00
1.02503411e+00
1.02947828e+00
1.02999802e+00
1.02499679e+00
1.02116224e+00
1.02611258e+00
1.03036978e+00
1.03266589e+00
1.03378923e+00
1.03037907e+00
1.03126541e+00
1.03216925e+00
1.03430235e+00
1.02953484e+00
1.02484505e+00
1.02897756e+00
1.03256279e+00
1.03671529e+00
1.03432179e+00
1.03323178e+00
1.03751877e+00
1.03376927e+00
1.02943153e+00
1.02850125e+00
1.03444042e+00
1.03549157e+00
1.02932145e+00
1.02789304e+00
1.03226665e+00
1.03063160e+00
1.02944389e+00
1.03133161e+00
1.02818558e+00
1.03246017e+00
1.02753562e+00
1.03027691e+00
1.02781738e+00
1.02831199e+00
1.03246841e+00
1.02288999e+00
1.02831114e+00
1.03239262e+00
1.02663935e+00
1.02594068e+00
1.02755591e+00
1.02695354e+00
1.02699796e+00
1.02850356e+00
1.02638268e+00
1.02496055e+00
1.02979462e+00
1.02815215e+00
1.02633204e+00
1.02774117e+00
1.02560429e+00
1.02629189e+00
1.02663055e+00
1.02754279e+00
1.02536995e+00
1.02549011e+00
1.02637042e+00
1.02588671e+00
1.02596749e+00
1.02608147e+00
1.02349198e+00
1.02461824e+00
1.02618712e+00
1.02645895e+00
1.02416957e+00
1.02360070e+00
1.02518047e+00
1.02644612e+00
1.02359297e+00
1.02266247e+00
1.02438983e+00
1.02530061e+00
1.02523715e+00
1.02343202e+00
1.02236959e+00
1.02316773e+00
1.02336308e+00
1.02430304e+00
1.02399779e+00
1.02327463e+00
1.02243475e+00
1.02200499e+00
1.02166508e+00
1.02357244e+00
1.02270402e+00
1.02069735e+00
1.02138187e+00
1.02211646e+00
1.02275169e+00
1.01995679e+00
1.02055956e+00
1.02204116e+00
1.02249447e+00
1.02061662e+00
1.01867136e+00
1.01883966e+00
1.02034554e+00
1.06794649e+00
1.05501080e+00
1.06368430e+00
1.06178383e+00
1.05024466e+00
1.05904617e+00
1.06146332e+00
1.03873450e+00
1.04271238e+00
1.04519535e+00
1.03164607e+00
1.04228466e+00
1.03592033e+00
1.02553099e+00
1.03888850e+00
1.03680424e+00
1.01896654e+00
1.02944330e+00
1.03685562e+00
1.02170354e+00
1.03485054e+00
1.03181850e+00
1.02624183e+00
1.03059888e+00
1.02751957e+00
1.02596110e+00
1.02819086e+00
1.02997657e+00
1.02832916e+00
1.02683921e+00
1.02365964e+00
1.02213573e+00
1.02299386e+00
1.03050890e+00
1.03300415e+00
1.03503575e+00
1.03019649e+00
1.03306531e+00
1.03503163e+00
1.03104371e+00
1.02868474e+00
1.02961456e+00
1.03129325e+00
1.03380899e+00
1.03138537e+00
1.03300856e+00
1.03714313e+00
1.03593982e+00
1.02581903e+00
1.02986722e+00
1.03708732e+00
1.03464117e+00
1.02985306e+00
1.02947970e+00
1.03041317e+00
1.03248580e+00
1.03205572e+00
1.02740560e+00
1.02945777e+00
1.03194753e+00
1.03065403e+00
1.02810410e+00
1.03086326e+00
1.03243078e+00
1.02534915e+00
1.02734721e+00
1.03221276e+00
1.02746733e+00
1.02725680e+00
1.02841222e+00
1.02677834e+00
1.02880565e+00
1.03041050e+00
1.02631136e+00
1.02585370e+00
1.02796467e+00
1.02680118e+00
1.02508609e+00
1.02686599e+00
1.02489941e+00
1.02674654e+00
1.02690540e+00
1.02611042e+00
1.02450441e+00
1.02619693e+00
1.02654117e+00
1.02442109e+00
1.02509124e+00
1.02463919e+00
1.02578862e+00
1.02590039e+00
1.02543064e+00
1.02471568e+00
1.02248117e+00
1.02409462e+00
1.02539800e+00
1.02491511e+00
1.02481353e+00
1.02233534e+00
1.02304952e+00
1.02492458e+00
1.02526367e+00
1.02474994e+00
1.02261521e+00
1.02259793e+00
1.02347660e+00
1.02391934e+00
1.02176043e+00
1.02164565e+00
1.02354502e+00
1.02471395e+00
1.02436758e+00
1.02274518e+00
1.02041288e+00
1.02188290e+00
1.02340338e+00
1.02314884e+00
1.01999701e+00
1.01789519e+00
1.02225459e+00
1.02172188e+00
1.02185902e+00
1.02140036e+00
1.02082839e+00
1.02220680e+00
1.02069208e+00
1.02057553e+00
1.01844455e+00
1.05866244e+00
1.07172673e+00
1.06151144e+00
1.05471970e+00
1.05204639e+00
1.05292644e+00
1.05132266e+00
1.04540535e+00
1.04891009e+00
1.05087321e+00
1.03922511e+00
1.03489118e+00
1.03858028e+00
1.03799959e+00
1.02841752e+00
1.03471288e+00
1.03138541e+00
1.03069470e+00
1.03738279e+00
1.02329700e+00
1.03190646e+00
1.03095004e+00
1.03108148e+00
1.02803832e+00
1.02829689e+00
1.02881108e+00
1.02854113e+00
1.02878867e+00
1.02848341e+00
1.02437570e+00
1.02618887e+00
1.03000970e+00
1.02645265e+00
1.02910772e+00
1.02711362e+00
1.03214788e+00
1.03528885e+00
1.03542702e+00
1.03311731e+00
1.02909651e+00
1.02932167e+00
1.03279827e+00
1.03375490e+00
1.03583269e+00
1.03378929e+00
1.03331043e+00
1.03111391e+00
1.03007236e+00
1.03307698e+00
1.03649622e+00
1.03224462e+00
1.02679191e+00
1.02984519e+00
1.03571419e+00
1.03429483e+00
1.02667435e+00
1.02957298e+00
1.03325537e+00
1.03053050e+00
1.03012443e+00
1.02721545e+00
1.03140909e+00
1.02952826e+00
1.02881178e+00
1.03131299e+00
1.02493599e+00
1.02994938e+00
1.02822004e+00
1.02697851e+00
1.02865284e+00
1.02724026e+00
1.02646381e+00
1.02761712e+00
1.02935558e+00
1.02896293e+00
1.02584372e+00
1.02587796e+00
1.02463074e+00
1.02881945e+00
1.02742146e+00
1.02542983e+00
1.02511021e+00
1.02585576e+00
1.02934808e+00
1.02726491e+00
1.02493026e+00
1.02348725e+00
1.02590523e+00
1.02580033e+00
1.02726996e+00
1.02342078e+00
1.02566654e+00
1.02596625e+00
1.02486421e+00
1.02426203e+00
1.02432477e+00
1.02521730e+00
1.02647670e+00
1.02517525e+00
1.02393014e+00
1.02240234e+00
1.02318402e+00
1.02584848e+00
1.02590490e+00
1.02465957e+00
1.02290985e+00
1.02158884e+00
1.02268442e+00
1.02479494e+00
1.02593479e+00
1.02388271e+00
1.02079439e+00
1.02132184e+00
1.02336049e+00
1.02381395e+00
1.02050111e+00
1.02126842e+00
1.02321085e+00
1.02261615e+00
1.02219989e+00
1.01915197e+00
1.02023728e+00
1.02311934e+00
1.02130126e+00
1.02163598e+00
1.01857141e+00
1.01938479e+00
1.02015520e+00
1.04676059e+00
1.06657895e+00
1.05003724e+00
1.05961322e+00
1.05702994e+00
1.04900722e+00
1.04626669e+00
1.06023272e+00
1.04633187e+00
1.03755034e+00
1.04375595e+00
1.04255727e+00
1.03251329e+00
1.04217478e+00
1.03575241e+00
1.02898581e+00
1.03952359e+00
1.03399341e+00
1.02250672e+00
1.03618859e+00
1.03688305e+00
1.01998915e+00
1.03488324e+00
1.02849116e+00
1.02834984e+00
1.03318302e+00
1.02996362e+00
1.02596538e+00
1.02762415e+00
1.02537727e+00
1.02675159e+00
1.02998749e+00
1.02904880e+00
1.03359334e+00
1.02976126e+00
1.03109003e+00
1.03330599e+00
1.03109221e+00
1.02811521e+00
1.03247102e+00
1.03519371e+00
1.03216274e+00
1.02872321e+00
1.03045127e+00
1.03614937e+00
1.03459477e+00
1.03016812e+00
1.03313823e+00
1.03339989e+00
1.03238797e+00
1.03111537e+00
1.03438770e+00
1.03184303e+00
1.02966948e+00
1.03143476e+00
1.03194334e+00
1.03223818e+00
1.03201164e+00
1.02814783e+00
1.02834683e+00
1.03290952e+00
1.02930142e+00
1.02860811e+00
1.02449554e+00
1.02955209e+00
1.03125984e+00
1.02593081e+00
1.02953596e+00
1.02746504e+00
1.02577550e+00
1.02848675e+00
1.02836151e+00
1.02514405e+00
1.02622750e+00
1.02745410e+00
1.02579303e+00
1.02693558e+00
1.02673622e+00
1.02619814e+00
1.02564608e+00
1.02662946e+00
1.02797550e+00
1.02488192e+00
1.02687517e+00
1.02650930e+00
1.02750219e+00
1.02743572e+00
1.02565401e+00
1.02166863e+00
1.02640360e+00
1.02578168e+00
1.02864800e+00
1.02380432e+00
1.02253028e+00
1.02370505e+00
1.02520969e+00
1.02855927e+00
1.02636879e+00
1.02168080e+00
1.02296844e+00
1.02414338e+00
1.02613906e+00
1.02492360e+00
1.02289824e+00
1.02374714e+00
1.02385267e+00
1.02365889e+00
1.02243592e+00
1.02290052e+00
1.02416603e+00
1.02585240e+00
1.02418779e+00
1.02129716e+00
1.02047260e+00
1.02371931e+00
1.02332090e+00
1.02385201e+00
1.02136062e+00
1.02067204e+00
1.02026482e+00
1.02024640e+00
1.02214325e+00
1.02192320e+00
1.02061472e+00
1.02080972e+00
1.02041549e+00
1.02071220e+00
1.01913551e+00
1.06759059e+00
1.04582844e+00
1.04332491e+00
1.06361372e+00
1.05200429e+00
1.05385621e+00
1.05258500e+00
1.04650459e+00
1.04199497e+00
1.05381202e+00
1.03861181e+00
1.04831941e+00
1.04145448e+00
1.03376124e+00
1.04450379e+00
1.03359346e+00
1.03430699e+00
1.03421421e+00
1.03107898e+00
1.04064382e+00
1.02377311e+00
1.02981697e+00
1.03739507e+00
1.02404463e+00
1.03391724e+00
1.03342978e+00
1.02513021e+00
1.03310617e+00
1.03587291e+00
1.02591195e+00
1.02802459e+00
1.02885578e+00
1.02765406e+00
1.03568651e+00
1.03526177e+00
1.02985168e+00
1.02714915e+00
1.03157932e+00
1.03492417e+00
1.03702275e+00
1.03381132e+00
1.02398146e+00
1.03005614e+00
1.03585873e+00
1.03628451e+00
1.02990720e+00
1.02973237e+00
1.03735035e+00
1.03537270e+00
1.03342023e+00
1.02843722e+00
1.03160341e+00
1.03266794e+00
1.03185474e+00
1.03061288e+00
1.03200941e+00
1.02967329e+00
1.02790729e+00
1.03482547e+00
1.02929883e+00
1.02718277e+00
1.02354361e+00
1.03061040e+00
1.03373929e+00
1.02564535e+00
1.03075756e+00
1.02357516e+00
1.02978803e+00
1.03326262e+00
1.02827520e+00
1.02455100e+00
1.02565111e+00
1.02882247e+00
1.02841948e+00
1.02914634e+00
1.02747567e+00
1.02400003e+00
1.02613760e+00
1.02844023e+00
1.02642744e+00
1.02404625e+00
1.02502428e+00
1.02590870e+00
1.02772779e+00
1.02686872e+00
1.02580715e+00
1.02428263e+00
1.02533065e+00
1.02628269e+00
1.02753752e+00
1.02304687e+00
1.02578556e+00
1.02474613e+00
1.02663609e+00
1.02577763e+00
1.02344431e+00
1.02596099e+00
1.02591297e+00
1.02511194e+00
1.02384105e+00
1.02146040e+00
1.02289229e+00
1.02570136e+00
1.02597406e+00
1.02644359e+00
1.02148353e+00
1.02021155e+00
1.02330301e+00
1.02684667e+00
1.02596456e+00
1.02133837e+00
1.02069440e+00
1.02258962e+00
1.02455151e+00
1.02370346e+00
1.02197592e+00
1.02322562e+00
1.02272240e+00
1.02233134e+00
1.02149730e+00
1.01889433e+00
1.02032775e+00
1.02230520e+00
1.02323016e+00
1.02253993e+00
1.01840281e+00
1.01787385e+00
1.01865891e+00
1.05084951e+00
1.05507557e+00
1.06027437e+00
1.04910310e+00
1.04770934e+00
1.05482237e+00
1.04989465e+00
1.04623728e+00
1.04817482e+00
1.04863879e+00
1.04003699e+00
1.05024895e+00
1.03964541e+00
1.04248409e+00
1.04274244e+00
1.02870674e+00
1.04259746e+00
1.04020466e+00
1.03057930e+00
1.03775628e+00
1.02840426e+00
1.04054496e+00
1.02885580e+00
1.02871105e+00
1.03750156e+00
1.03321126e+00
1.03333287e+00
1.02990262e+00
1.02965274e+00
1.03027674e+00
1.03546922e+00
1.03712917e+00
1.03336471e+00
1.03159220e+00
1.02549316e+00
1.03747609e+00
1.03579705e+00
1.03146297e+00
1.03172959e+00
1.02866883e+00
1.03011393e+00
1.03209854e+00
1.03853026e+00
1.02982287e+00
1.02801269e+00
1.03417754e+00
1.03795632e+00
1.03509536e+00
1.02549091e+00
1.03129515e+00
1.03592674e+00
1.03264680e+00
1.02833277e+00
1.03176775e+00
1.03074798e+00
1.02873218e+00
1.03289317e+00
1.02655854e+00
1.02881287e+00
1.02974870e+00
1.02914704e+00
1.03271037e+00
1.02722006e+00
1.03236177e+00
1.02471646e+00
1.02783469e+00
1.03279702e+00
1.02760708e+00
1.02653623e+00
1.02882709e+00
1.03018418e+00
1.02710708e+00
1.02943745e+00
1.02590131e+00
1.02620721e+00
1.02811939e+00
1.02812859e+00
1.02605849e+00
1.02683844e+00
1.02561930e+00
1.02714958e+00
1.02639046e+00
1.02414186e+00
1.02524983e+00
1.02388415e+00
1.02762387e+00
1.02698616e+00
1.02392674e+00
1.02524915e+00
1.02676872e+00
1.02637240e+00
1.02799776e+00
1.02287501e+00
1.02376764e+00
1.02435366e+00
1.02694361e+00
1.02963841e+00
1.02270359e+00
1.02265744e+00
1.02406086e+00
1.02469797e+00
1.02519784e+00
1.02374766e+00
1.02425866e+00
1.02426612e+00
1.02290017e+00
1.02319348e+00
1.02357415e+00
1.02186613e+00
1.02393385e+00
1.02385687e+00
1.02440367e+00
1.02147703e+00
1.02198083e+00
1.02166428e+00
1.02267386e+00
1.02531773e+00
1.02257323e+00
1.01900559e+00
1.01861325e+00
1.02193162e+00
1.02452423e+00
1.02166384e+00
1.01909755e+00
1.01973626e+00
1.02212778e+00
1.02233028e+00
1.01975573e+00
1.04415747e+00
1.04507669e+00
1.06174597e+00
1.04760293e+00
1.04287941e+00
1.05641054e+00
1.05237774e+00
1.04471879e+00
1.05128539e+00
1.04551799e+00
1.04454292e+00
1.04460273e+00
1.03880282e+00
1.04325811e+00
1.04196430e+00
1.04269967e+00
1.04223561e+00
1.03382134e+00
1.03898062e+00
1.03866975e+00
1.03323776e+00
1.04103066e+00
1.03021823e+00
1.04004920e+00
1.03388237e+00
1.03009898e+00
1.03652886e+00
1.03036879e+00
1.03339656e+00
1.03416615e+00
1.03212684e+00
1.02984683e+00
1.03525400e+00
1.03631022e+00
1.02982522e+00
1.03537358e+00
1.03177346e+00
1.03285611e+00
1.03326195e+00
1.02948894e+00
1.03529969e+00
1.03432369e+00
1.03234901e+00
1.02918528e+00
1.03537090e+00
1.03556429e+00
1.02814271e+00
1.03282822e+00
1.03349049e+00
1.03386958e+00
1.03062107e+00
1.02981543e+00
1.02923165e+00
1.03494935e+00
1.03399553e+00
1.02345089e+00
1.02843847e+00
1.03246603e+00
1.03123242e+00
1.03244751e+00
1.02587842e+00
1.03213448e+00
1.02672531e+00
1.03108455e+00
1.03167733e+00
1.02453582e+00
1.02677753e+00
1.02790472e+00
1.02889177e+00
1.02726235e+00
1.02634240e+00
1.02272984e+00
1.02842394e+00
1.03090467e+00
1.02842932e+00
1.02347696e+00
1.02412144e+00
1.02568914e+00
1.03012905e+00
1.02722016e+00
1.02532421e+00
1.02481558e+00
1.02376697e+00
1.02921432e+00
1.02565955e+00
1.02563116e+00
1.02447569e+00
1.02458687e+00
1.02727390e+00
1.02597999e+00
1.02458282e+00
1.02394838e+00
1.02297803e+00
1.02663464e+00
1.02470919e+00
1.02367535e+00
1.02397637e+00
1.02262802e+00
1.02627524e+00
1.02457572e+00
1.02082854e+00
1.02338563e+00
1.02430332e+00
1.02730103e+00
1.02401831e+00
1.01949134e+00
1.02075514e+00
1.02310479e+00
1.02505917e+00
1.02475711e+00
1.02219084e+00
1.02111432e+00
1.01967839e+00
1.02191622e+00
1.02373356e+00
1.02240579e+00
1.02112493e+00
1.02195468e+00
1.02158227e+00
1.02012087e+00
1.01727013e+00
1.02040272e+00
1.02125430e+00
1.02296826e+00
1.02211669e+00
1.01863374e+00
1.01838792e+00
1.01999444e+00
1.05320570e+00
1.05008993e+00
1.04648089e+00
1.05565804e+00
1.05876903e+00
1.04547527e+00
1.04257280e+00
1.05491237e+00
1.05063240e+00
1.04271142e+00
1.04855013e+00
1.04189872e+00
1.04779319e+00
1.03869592e+00
1.04121715e+00
1.05001768e+00
1.03150538e+00
1.04056122e+00
1.04482054e+00
1.03129304e+00
1.03839314e+00
1.04184337e+00
1.03323103e+00
1.04448958e+00
1.03189530e+00
1.03265620e+00
1.03746324e+00
1.03267205e+00
1.03656065e+00
1.03381212e+00
1.03627988e+00
1.03167967e+00
1.03161884e+00
1.03738210e+00
1.03370404e+00
1.03284923e+00
1.02939602e+00
1.03270020e+00
1.03248527e+00
1.03623346e+00
1.03765168e+00
1.02663346e+00
1.03072013e+00
1.03577614e+00
1.03527719e+00
1.03158867e+00
1.02755785e+00
1.03553295e+00
1.03288602e+00
1.03155036e+00
1.02593683e+00
1.03553117e+00
1.03624721e+00
1.02655052e+00
1.02772665e+00
1.03184980e+00
1.03047959e+00
1.03101046e+00
1.02933961e+00
1.02826814e+00
1.02804422e+00
1.03180433e+00
1.02891659e+00
1.02538567e+00
1.02817815e+00
1.03088927e+00
1.02488680e+00
1.02973644e+00
1.02691579e+00
1.02258035e+00
1.02914216e+00
1.02889989e+00
1.02656208e+00
1.02486045e+00
1.02595012e+00
1.02473142e+00
1.02566970e+00
1.02721700e+00
1.02648405e+00
1.02624780e+00
1.02676855e+00
1.02736863e+00
1.02376944e+00
1.02538911e+00
1.02416165e+00
1.02812814e+00
1.02520627e+00
1.02367289e+00
1.02339755e+00
1.02320617e+00
1.02810764e+00
1.02722544e+00
1.02260988e+00
1.02310580e+00
1.02152649e+00
1.02622820e+00
1.02674404e+00
1.02452853e+00
1.02373015e+00
1.02123695e+00
1.02355592e+00
1.02692288e+00
1.02436501e+00
1.02366900e+00
1.02295025e+00
1.02206072e+00
1.02419702e+00
1.02310609e+00
1.02376730e+00
1.02336367e+00
1.02420989e+00
1.02558896e+00
1.02243731e+00
1.01846335e+00
1.01977956e+00
1.02573301e+00
1.02631092e+00
1.02184980e+00
1.01823652e+00
1.01936445e+00
1.02309187e+00
1.02349375e+00
1.02075592e+00
1.01903518e+00
1.02155059e+00
1.02169674e+00
1.02155496e+00
1.01880635e+00
1.05979302e+00
1.05909002e+00
1.03906944e+00
1.04898027e+00
1.05470396e+00
1.04706132e+00
1.04843817e+00
1.05439624e+00
1.04115927e+00
1.04722236e+00
1.05196842e+00
1.03671200e+00
1.04923571e+00
1.04423374e+00
1.04182848e+00
1.04008286e+00
1.03696616e+00
1.04805619e+00
1.03412597e+00
1.03574307e+00
1.04602509e+00
1.03622706e+00
1.03535849e+00
1.03947899e+00
1.02900976e+00
1.04306080e+00
1.03437041e+00
1.03046143e+00
1.04142401e+00
1.03360369e+00
1.03425777e+00
1.03740496e+00
1.03337678e+00
1.03431567e+00
1.03383824e+00
1.03309910e+00
1.02924491e+00
1.03364367e+00
1.03768660e+00
1.03484244e+00
1.02891988e+00
1.02689924e+00
1.03789337e+00
1.03620069e+00
1.02996980e+00
1.03110995e+00
1.03101024e+00
1.03600894e+00
1.02802278e+00
1.03530260e+00
1.03252118e+00
1.02878043e+00
1.03077868e+00
1.02951454e+00
1.03143467e+00
1.03322442e+00
1.03167114e+00
1.02655968e+00
1.03225795e+00
1.03207484e+00
1.02705750e+00
1.02447400e+00
1.02857267e+00
1.03302236e+00
1.02513901e+00
1.03076538e+00
1.02511894e+00
1.02682392e+00
1.03110922e+00
1.02885334e+00
1.02562911e+00
1.02262233e+00
1.02893856e+00
1.02850426e+00
1.02853791e+00
1.02570136e+00
1.02226819e+00
1.02688173e+00
1.02769262e+00
1.02829613e+00
1.02344392e+00
1.02180607e+00
1.02576386e+00
1.02875600e+00
1.02673799e+00
1.02570869e+00
1.02014968e+00
1.02260266e+00
1.02695094e+00
1.02631416e+00
1.02545715e+00
1.02277801e+00
1.02500262e+00
1.02632622e+00
1.02269461e+00
1.02438241e+00
1.02321584e+00
1.02579058e+00
1.02791606e+00
1.02241097e+00
1.02174654e+00
1.02340239e+00
1.02551775e+00
1.02712065e+00
1.02310158e+00
1.01974166e+00
1.02083205e+00
1.02267016e+00
1.02719323e+00
1.02608782e+00
1.02162759e+00
1.01971253e+00
1.02044433e+00
1.02216343e+00
1.02403911e+00
1.02227151e+00
1.02292672e+00
1.02154741e+00
1.02269613e+00
1.01968137e+00
1.01865061e+00
1.02025975e+00
1.02161646e+00
1.02397919e+00
1.02280630e+00
1.01872550e+00
1.01690265e+00
1.01746087e+00
1.05019478e+00
1.05016923e+00
1.05403846e+00
1.04930846e+00
1.04143539e+00
1.05379522e+00
1.05524521e+00
1.04372902e+00
1.04514858e+00
1.05266628e+00
1.04732320e+00
1.04211380e+00
1.04642848e+00
1.04606671e+00
1.04246877e+00
1.03785032e+00
1.04421247e+00
1.03899569e+00
1.03892140e+00
1.04599761e+00
1.03697446e+00
1.03488582e+00
1.04291136e+00
1.03637273e+00
1.03172825e+00
1.04380777e+00
1.03105735e+00
1.03824776e+00
1.04183857e+00
1.02802799e+00
1.03664108e+00
1.03698476e+00
1.03243000e+00
1.03626491e+00
1.02964507e+00
1.03767970e+00
1.03835202e+00
1.03497778e+00
1.02792104e+00
1.02870037e+00
1.03705666e+00
1.03556431e+00
1.03373354e+00
1.02781315e+00
1.03078075e+00
1.03639248e+00
1.03159187e+00
1.03340444e+00
1.02767648e+00
1.03423368e+00
1.03439044e+00
1.02664873e+00
1.02950218e+00
1.03371025e+00
1.03321161e+00
1.02453308e+00
1.03320831e+00
1.03081159e+00
1.02703283e+00
1.02924949e+00
1.02531585e+00
1.03108713e+00
1.02688114e+00
1.03239622e+00
1.02433041e+00
1.02582697e+00
1.03085221e+00
1.02637740e+00
1.02714853e+00
1.02803236e+00
1.02842052e+00
1.02515378e+00
1.03023669e+00
1.02509697e+00
1.02619842e+00
1.02870603e+00
1.02641015e+00
1.02658484e+00
1.02495466e+00
1.02548753e+00
1.02731999e+00
1.02622200e+00
1.02464137e+00
1.02570849e+00
1.02715982e+00
1.02566163e+00
1.02454954e+00
1.02684525e+00
1.02366680e+00
1.02542093e+00
1.02889688e+00
1.02581319e+00
1.02626288e+00
1.02243454e+00
1.02232735e+00
1.02739247e+00
1.02625284e+00
1.02556923e+00
1.02285698e+00
1.02109680e+00
1.02466930e+00
1.02666355e+00
1.02625886e+00
1.02424751e+00
1.02103692e+00
1.02245883e+00
1.02571661e+00
1.02347755e+00
1.02191551e+00
1.02426509e+00
1.02613818e+00
1.02448663e+00
1.01998777e+00
1.01810166e+00
1.02368782e+00
1.02515534e+00
1.02628287e+00
1.02229118e+00
1.01911158e+00
1.02023959e+00
1.02042297e+00
1.02283542e+00
1.02190471e+00
1.02011807e+00
1.02145146e+00
1.02094381e+00
1.02097855e+00
1.01841982e+00
1.03956107e+00
1.03995163e+00
1.05598034e+00
1.05118832e+00
1.04652899e+00
1.05071941e+00
1.04790893e+00
1.04736556e+00
1.05355789e+00
1.04077558e+00
1.04179382e+00
1.05470870e+00
1.04326241e+00
1.04136273e+00
1.04192128e+00
1.04302053e+00
1.04447819e+00
1.03871455e+00
1.04565735e+00
1.03853710e+00
1.03901223e+00
1.04179918e+00
1.03925712e+00
1.03786942e+00
1.03642135e+00
1.03577344e+00
1.03463188e+00
1.04350425e+00
1.03307829e+00
1.03207899e+00
1.04313069e+00
1.02622768e+00
1.03196718e+00
1.04285303e+00
1.03021672e+00
1.03710384e+00
1.03522316e+00
1.03165702e+00
1.03414403e+00
1.03454069e+00
1.03738840e+00
1.02943102e+00
1.02929042e+00
1.03521784e+00
1.03903011e+00
1.03366095e+00
1.02417315e+00
1.03478515e+00
1.03726416e+00
1.03183790e+00
1.02722570e+00
1.03057510e+00
1.03435255e+00
1.02922581e+00
1.03350031e+00
1.02712750e+00
1.02838340e+00
1.03347964e+00
1.02744244e+00
1.02781719e+00
1.02581910e+00
1.03417156e+00
1.02515365e+00
1.02804827e+00
1.03106783e+00
1.02431078e+00
1.02500310e+00
1.02892181e+00
1.02912004e+00
1.02606531e+00
1.02896259e+00
1.02224797e+00
1.02387756e+00
1.02764808e+00
1.02891697e+00
1.02479683e+00
1.02403637e+00
1.02433008e+00
1.02804491e+00
1.02657793e+00
1.02192777e+00
1.02400515e+00
1.02390482e+00
1.02533401e+00
1.02754173e+00
1.02466455e+00
1.02264647e+00
1.02538773e+00
1.02398841e+00
1.02430342e+00
1.02536567e+00
1.02287104e+00
1.02532906e+00
1.02306672e+00
1.02444953e+00
1.02377725e+00
1.02249769e+00
1.02685304e+00
1.02389597e+00
1.02149320e+00
1.02161553e+00
1.02314068e+00
1.02506127e+00
1.02491482e+00
1.02325350e+00
1.02166595e+00
1.02018409e+00
1.02277456e+00
1.02657926e+00
1.02624738e+00
1.02133045e+00
1.02114378e+00
1.02090298e+00
1.02183573e+00
1.02393577e+00
1.02228031e+00
1.02164712e+00
1.02148634e+00
1.02263101e+00
1.02159929e+00
1.01895745e+00
1.01989790e+00
1.02216423e+00
1.02360994e+00
1.02299819e+00
1.01914937e+00
1.01672603e+00
1.01950941e+00
1.04519578e+00
1.05185244e+00
1.04297506e+00
1.04415138e+00
1.05377770e+00
1.05183246e+00
1.04564125e+00
1.04821211e+00
1.04849015e+00
1.04720485e+00
1.04447651e+00
1.04857421e+00
1.04500619e+00
1.04227790e+00
1.04395162e+00
1.04664406e+00
1.03854221e+00
1.04331265e+00
1.04347401e+00
1.03690539e+00
1.04655317e+00
1.03884491e+00
1.03308243e+00
1.03997444e+00
1.04119064e+00
1.03955048e+00
1.03603596e+00
1.03658329e+00
1.03444569e+00
1.03885684e+00
1.03859660e+00
1.03043498e+00
1.03926331e+00
1.03484822e+00
1.03500699e+00
1.03868280e+00
1.02694987e+00
1.03463077e+00
1.03915176e+00
1.03018677e+00
1.03269164e+00
1.03177390e+00
1.03622877e+00
1.03737966e+00
1.03042523e+00
1.02926051e+00
1.03108162e+00
1.03785931e+00
1.03125060e+00
1.02738041e+00
1.03050691e+00
1.03264223e+00
1.03393071e+00
1.02665390e+00
1.02794634e+00
1.03180157e+00
1.02772160e+00
1.02763763e+00
1.02967253e+00
1.03033500e+00
1.02891571e+00
1.02745944e+00
1.02844805e+00
1.02705635e+00
1.02854019e+00