# vtk DataFile Version 2.0
LBM Flow Field - Timestep 60
ASCII
DATASET STRUCTURED_POINTS
DIMENSIONS 128 128 1
ORIGIN 0.0 0.0 0.0
SPACING 1.0 1.0 1.0
POINT_DATA 16384
SCALARS density double 1
LOOKUP_TABLE default
1.29544804e+00
1.25259571e+00
1.20739065e+00
1.16166273e+00
1.12713452e+00
1.09165562e+00
1.06891103e+00
1.04540285e+00
1.03234200e+00
1.01941130e+00
1.01273179e+00
1.00708934e+00
1.00400765e+00
1.00217351e+00
1.00094494e+00
1.00052732e+00
1.00015699e+00
1.00008477e+00
1.00001928e+00
1.00000474e+00
1.00000195e+00
9.99999497e-01
1.00000002e+00
1.00000001e+00
9.99999997e-01
1.00000000e+00
1.00000000e+00
1.00000000e+00
1.00000000e+00
1.00000000e+00
1.00000000e+00
1.00000000e+00
1.00000000e+00
1.00000000e+00
1.00000000e+00
1.00000000e+00
1.00000000e+00
1.00000000e+00
1.00000000e+00
1.00000000e+00
1.00000000e+00
1.00000000e+00
1.00000000e+00
1.00000000e+00
1.00000000e+00
1.00000000e+00
1.00000000e+00
1.00000000e+00
1.00000000e+00
1.00000000e+00
1.00000000e+00
1.00000000e+00
1.00000000e+00
1.00000000e+00
1.00000000e+00
1.00000000e+00
1.00000000e+00
1.00000000e+00
1.00000000e+00
1.00000000e+00
1.00000000e+00
1.00000000e+00
1.00000000e+00
1.00000000e+00
1.00000000e+00
1.00000000e+00
1.00000000e+00
1.00000000e+00
1.00000000e+00
1.00000000e+00
1.00000000e+00
1.00000000e+00
1.00000000e+00
1.00000000e+00
1.00000000e+00
1.00000000e+00
1.00000000e+00
1.00000000e+00
1.00000000e+00
1.00000000e+00
1.00000000e+00
1.00000000e+00
1.00000000e+00
1.00000000e+00
1.00000000e+00
1.00000000e+00
1.00000000e+00
1.00000000e+00
1.00000000e+00
1.00000000e+00
1.00000000e+00
1.00000000e+00
1.00000000e+00
1.00000000e+00
1.00000000e+00
1.00000000e+00
1.00000000e+00
1.00000000e+00
1.00000000e+00
1.00000000e+00
1.00000000e+00
1.00000000e+00
1.00000000e+00
1.00000000e+00
1.00000000e+00
1.00000000e+00
1.00000000e+00
1.00000000e+00
1.00000000e+00
1.00000000e+00
1.00000000e+00
1.00000000e+00
1.00000000e+00
1.00000000e+00
1.00000000e+00
1.00000000e+00
1.00000000e+00
1.00000000e+00
1.00000000e+00
1.00000000e+00
1.00000000e+00
1.00000000e+00
1.00000000e+00
1.00000000e+00
1.00000000e+00
1.00000000e+00
1.00000000e+00
1.00000000e+00
1.12570227e+00
1.10787387e+00
1.09378685e+00
1.09965082e+00
1.09930197e+00
1.09903126e+00
1.09765612e+00
1.09737585e+00
1.09900350e+00
1.09715742e+00
1.09886529e+00
1.09635151e+00
1.09435882e+00
1.09618306e+00
1.09369688e+00
1.09523114e+00
1.09326458e+00
1.08942809e+00
1.09140445e+00
1.08964855e+00
1.08687831e+00
1.08900630e+00
1.08669694e+00
1.08190050e+00
1.08287200e+00
1.08249107e+00
1.07582604e+00
1.07444930e+00
1.07821141e+00
1.07324570e+00
1.06441201e+00
1.06216692e+00
1.06166811e+00
1.05110186e+00
1.03110865e+00
1.01414439e+00
1.00512775e+00
1.00165319e+00
1.00057090e+00
1.00023772e+00
1.00010675e+00
1.00007535e+00
1.00007649e+00
1.00006081e+00
1.00003860e+00
1.00003229e+00
1.00003039e+00
1.00000104e+00
1.00001531e+00
1.00000891e+00
9.99994607e-01
1.00000082e+00
1.00000246e+00
1.00000606e+00
9.99987239e-01
1.00001106e+00
1.00000205e+00
9.99995363e-01
1.00000292e+00
1.00000019e+00
1.00000000e+00
1.00000000e+00
1.00000000e+00
1.00000000e+00
1.00000000e+00
1.00000000e+00
1.00000000e+00
1.00000000e+00
1.00000000e+00
1.00000000e+00
1.00000000e+00
1.00000000e+00
1.00000000e+00
1.00000000e+00
1.00000000e+00
1.00000000e+00
1.00000000e+00
1.00000000e+00
1.00000000e+00
1.00000000e+00
1.00000000e+00
1.00000000e+00
1.00000000e+00
1.00000000e+00
1.00000000e+00
1.00000000e+00
1.00000000e+00
1.00000000e+00
1.00000000e+00
1.00000000e+00
1.00000000e+00
1.00000000e+00
1.00000000e+00
1.00000000e+00
1.00000000e+00
1.00000000e+00
1.00000000e+00
1.00000000e+00
1.00000000e+00
1.00000000e+00
1.00000000e+00
1.00000000e+00
1.00000000e+00
1.00000000e+00
1.00000000e+00
1.00000000e+00
1.00000000e+00
1.00000000e+00
1.00000000e+00
1.00000000e+00
1.00000000e+00
1.00000000e+00
1.00000000e+00
1.00000000e+00
1.00000000e+00
1.00000000e+00
1.00000000e+00
1.00000000e+00
1.00000000e+00
1.00000000e+00
1.00000000e+00
1.00000000e+00
1.00000000e+00
1.00000000e+00
1.00000000e+00
1.00000000e+00
1.00000000e+00
1.00000000e+00
1.10984690e+00
1.10780860e+00
1.10678481e+00
1.10412241e+00
1.09614742e+00
1.10038442e+00
1.10053559e+00
1.09856838e+00
1.09871328e+00
1.09776317e+00
1.09786586e+00
1.09717874e+00
1.09540734e+00
1.09759901e+00
1.09279652e+00
1.09553435e+00
1.09432346e+00
1.08883135e+00
1.09136328e+00
1.09080892e+00
1.08812281e+00
1.09080722e+00
1.08646117e+00
1.08005508e+00
1.08444576e+00
1.08473244e+00
1.07420723e+00
1.07453473e+00
1.08487988e+00
1.07763896e+00
1.05922967e+00
1.05445132e+00
1.06374750e+00
1.06505496e+00
1.04633710e+00
1.02235213e+00
1.00806670e+00
1.00259350e+00
1.00078766e+00
1.00025703e+00
1.00013068e+00
1.00009766e+00
1.00006985e+00
1.00004088e+00
1.00001580e+00
1.00001617e+00
1.00001933e+00
9.99986409e-01
1.00000368e+00
9.99999553e-01
9.99997841e-01
9.99997165e-01
1.00000031e+00
1.00000722e+00
9.99988594e-01
1.00000805e+00
9.99995886e-01
1.00000191e+00
9.99999011e-01
1.00000025e+00
1.00000000e+00
1.00000000e+00
1.00000000e+00
1.00000000e+00
1.00000000e+00
1.00000000e+00
1.00000000e+00
1.00000000e+00
1.00000000e+00
1.00000000e+00
1.00000000e+00
1.00000000e+00
1.00000000e+00
1.00000000e+00
1.00000000e+00
1.00000000e+00
1.00000000e+00
1.00000000e+00
1.00000000e+00
1.00000000e+00
1.00000000e+00
1.00000000e+00
1.00000000e+00
1.00000000e+00
1.00000000e+00
1.00000000e+00
1.00000000e+00
1.00000000e+00
1.00000000e+00
1.00000000e+00
1.00000000e+00
1.00000000e+00
1.00000000e+00
1.00000000e+00
1.00000000e+00
1.00000000e+00
1.00000000e+00
1.00000000e+00
1.00000000e+00
1.00000000e+00
1.00000000e+00
1.00000000e+00
1.00000000e+00
1.00000000e+00
1.00000000e+00
1.00000000e+00
1.00000000e+00
1.00000000e+00
1.00000000e+00
1.00000000e+00
1.00000000e+00
1.00000000e+00
1.00000000e+00
1.00000000e+00
1.00000000e+00
1.00000000e+00
1.00000000e+00
1.00000000e+00
1.00000000e+00
1.00000000e+00
1.00000000e+00
1.00000000e+00
1.00000000e+00
1.00000000e+00
1.00000000e+00
1.00000000e+00
1.00000000e+00
1.00000000e+00
1.10237300e+00
1.10915075e+00
1.10694708e+00
1.10342673e+00
1.10089805e+00
1.10477335e+00
1.09934807e+00
1.09735214e+00
1.09876053e+00
1.09858365e+00
1.10093906e+00
1.09671611e+00
1.09461961e+00
1.09733777e+00
1.09268715e+00
1.09631043e+00
1.09473695e+00
1.08922448e+00
1.09274196e+00
1.09021817e+00
1.08754796e+00
1.09202228e+00
1.08572565e+00
1.07991513e+00
1.08875555e+00
1.08679934e+00
1.07023609e+00
1.07240031e+00
1.09077581e+00
1.08376018e+00
1.05679585e+00
1.04849713e+00
1.06620600e+00
1.07708542e+00
1.05843726e+00
1.02877106e+00
1.01081597e+00
1.00341083e+00
1.00086961e+00
1.00029729e+00
1.00012431e+00
1.00005098e+00
1.00004363e+00
1.00003532e+00
1.00001670e+00
1.00000943e+00
1.00001316e+00
1.00000605e+00
1.00000091e+00
1.00000279e+00
1.00000528e+00
9.99998460e-01
9.99997370e-01
1.00000186e+00
1.00000129e+00
9.99999122e-01
9.99998370e-01
1.00000238e+00
9.99998746e-01
1.00000030e+00
1.00000000e+00
1.00000000e+00
1.00000000e+00
1.00000000e+00
1.00000000e+00
1.00000000e+00
1.00000000e+00
1.00000000e+00
1.00000000e+00
1.00000000e+00
1.00000000e+00
1.00000000e+00
1.00000000e+00
1.00000000e+00
1.00000000e+00
1.00000000e+00
1.00000000e+00
1.00000000e+00
1.00000000e+00
1.00000000e+00
1.00000000e+00
1.00000000e+00
1.00000000e+00
1.00000000e+00
1.00000000e+00
1.00000000e+00
1.00000000e+00
1.00000000e+00
1.00000000e+00
1.00000000e+00
1.00000000e+00
1.00000000e+00
1.00000000e+00
1.00000000e+00
1.00000000e+00
1.00000000e+00
1.00000000e+00
1.00000000e+00
1.00000000e+00
1.00000000e+00
1.00000000e+00
1.00000000e+00
1.00000000e+00
1.00000000e+00
1.00000000e+00
1.00000000e+00
1.00000000e+00
1.00000000e+00
1.00000000e+00
1.00000000e+00
1.00000000e+00
1.00000000e+00
1.00000000e+00
1.00000000e+00
1.00000000e+00
1.00000000e+00
1.00000000e+00
1.00000000e+00
1.00000000e+00
1.00000000e+00
1.00000000e+00
1.00000000e+00
1.00000000e+00
1.00000000e+00
1.00000000e+00
1.00000000e+00
1.00000000e+00
1.00000000e+00
1.10796779e+00
1.10604429e+00
1.09957438e+00
1.10797593e+00
1.10458469e+00
1.10199394e+00
1.09651779e+00
1.10227113e+00
1.09996699e+00
1.09598812e+00
1.09999879e+00
1.09804977e+00
1.09667547e+00
1.09669999e+00
1.09205001e+00
1.09664133e+00
1.09591143e+00
1.08915075e+00
1.09321844e+00
1.09106602e+00
1.08782242e+00
1.09265659e+00
1.08453209e+00
1.07875604e+00
1.09382331e+00
1.09194819e+00
1.06631073e+00
1.06646778e+00
1.09479916e+00
1.09277831e+00
1.05798564e+00
1.04349962e+00
1.06583562e+00
1.08626142e+00
1.07013312e+00
1.03675410e+00
1.01414278e+00
1.00400055e+00
1.00112740e+00
1.00044214e+00
1.00014810e+00
1.00006480e+00
1.00004567e+00
1.00001341e+00
1.00001741e+00
1.00000948e+00
9.99989896e-01
1.00000456e+00
9.99997378e-01
9.99995585e-01
9.99996401e-01
1.00000385e+00
1.00000144e+00
9.99992392e-01
1.00000745e+00
9.99997618e-01
9.99997910e-01
1.00000288e+00
9.99998520e-01
1.00000034e+00
1.00000000e+00
1.00000000e+00
1.00000000e+00
1.00000000e+00
1.00000000e+00
1.00000000e+00
1.00000000e+00
1.00000000e+00
1.00000000e+00
1.00000000e+00
1.00000000e+00
1.00000000e+00
1.00000000e+00
1.00000000e+00
1.00000000e+00
1.00000000e+00
1.00000000e+00
1.00000000e+00
1.00000000e+00
1.00000000e+00
1.00000000e+00
1.00000000e+00
1.00000000e+00
1.00000000e+00
1.00000000e+00
1.00000000e+00
1.00000000e+00
1.00000000e+00
1.00000000e+00
1.00000000e+00
1.00000000e+00
1.00000000e+00
1.00000000e+00
1.00000000e+00
1.00000000e+00
1.00000000e+00
1.00000000e+00
1.00000000e+00
1.00000000e+00
1.00000000e+00
1.00000000e+00
1.00000000e+00
1.00000000e+00
1.00000000e+00
1.00000000e+00
1.00000000e+00
1.00000000e+00
1.00000000e+00
1.00000000e+00
1.00000000e+00
1.00000000e+00
1.00000000e+00
1.00000000e+00
1.00000000e+00
1.00000000e+00
1.00000000e+00
1.00000000e+00
1.00000000e+00
1.00000000e+00
1.00000000e+00
1.00000000e+00
1.00000000e+00
1.00000000e+00
1.00000000e+00
1.00000000e+00
1.00000000e+00
1.00000000e+00
1.00000000e+00
1.10783965e+00
1.10330553e+00
1.10170933e+00
1.10559274e+00
1.09919822e+00
1.10486896e+00
1.10172804e+00
1.10332001e+00
1.09697660e+00
1.09574729e+00
1.10164529e+00
1.09740211e+00
1.09683370e+00
1.09890163e+00
1.09183726e+00
1.09742864e+00
1.09483250e+00
1.08826525e+00
1.09477864e+00
1.09119409e+00
1.08932640e+00
1.09696223e+00
1.08382255e+00
1.07292543e+00
1.09401373e+00
1.09858121e+00
1.06838713e+00
1.06507872e+00
1.09611133e+00
1.09553166e+00
1.05643736e+00
1.04192285e+00
1.06803364e+00
1.09502635e+00
1.08141263e+00
1.04391469e+00
1.01588349e+00
1.00455033e+00
1.00157994e+00
1.00031505e+00
1.00001497e+00
1.00004630e+00
1.00004095e+00
9.99998283e-01
1.00001434e+00
1.00001219e+00
9.99987800e-01
1.00000947e+00
1.00000669e+00
9.99999326e-01
9.99996215e-01
1.00000630e+00
1.00000104e+00
9.99991590e-01
1.00000858e+00
9.99997204e-01
9.99997632e-01
1.00000326e+00
9.99998338e-01
1.00000038e+00
1.00000000e+00
1.00000000e+00
1.00000000e+00
1.00000000e+00
1.00000000e+00
1.00000000e+00
1.00000000e+00
1.00000000e+00
1.00000000e+00
1.00000000e+00
1.00000000e+00
1.00000000e+00
1.00000000e+00
1.00000000e+00
1.00000000e+00
1.00000000e+00
1.00000000e+00
1.00000000e+00
1.00000000e+00
1.00000000e+00
1.00000000e+00
1.00000000e+00
1.00000000e+00
1.00000000e+00
1.00000000e+00
1.00000000e+00
1.00000000e+00
1.00000000e+00
1.00000000e+00
1.00000000e+00
1.00000000e+00
1.00000000e+00
1.00000000e+00
1.00000000e+00
1.00000000e+00
1.00000000e+00
1.00000000e+00
1.00000000e+00
1.00000000e+00
1.00000000e+00
1.00000000e+00
1.00000000e+00
1.00000000e+00
1.00000000e+00
1.00000000e+00
1.00000000e+00
1.00000000e+00
1.00000000e+00
1.00000000e+00
1.00000000e+00
1.00000000e+00
1.00000000e+00
1.00000000e+00
1.00000000e+00
1.00000000e+00
1.00000000e+00
1.00000000e+00
1.00000000e+00
1.00000000e+00
1.00000000e+00
1.00000000e+00
1.00000000e+00
1.00000000e+00
1.00000000e+00
1.00000000e+00
1.00000000e+00
1.00000000e+00
1.00000000e+00
1.10123610e+00
1.10504699e+00
1.10617899e+00
1.10101134e+00
1.09906981e+00
1.10560984e+00
1.10005468e+00
1.10144180e+00
1.10047196e+00
1.09899028e+00
1.10127537e+00
1.09369212e+00
1.09771411e+00
1.10092437e+00
1.09076631e+00
1.09679304e+00
1.09634277e+00
1.09119009e+00
1.09471661e+00
1.08783160e+00
1.08710468e+00
1.10098849e+00
1.08802781e+00
1.07138805e+00
1.09287509e+00
1.10081783e+00
1.06917257e+00
1.06428834e+00
1.09714470e+00
1.09985899e+00
1.05891614e+00
1.04070025e+00
1.06779935e+00
1.10198934e+00
1.09201390e+00
1.05048133e+00
1.01833211e+00
1.00599905e+00
1.00156007e+00
1.00014540e+00
1.00017607e+00
1.00011320e+00
1.00002389e+00
9.99975442e-01
1.00000911e+00
1.00001495e+00
9.99984979e-01
9.99997306e-01
1.00000528e+00
9.99996799e-01
9.99991081e-01
1.00000892e+00
9.99999763e-01
9.99991228e-01
1.00000939e+00
9.99996760e-01
9.99997546e-01
1.00000351e+00
9.99998203e-01
1.00000040e+00
1.00000000e+00
1.00000000e+00
1.00000000e+00
1.00000000e+00
1.00000000e+00
1.00000000e+00
1.00000000e+00
1.00000000e+00
1.00000000e+00
1.00000000e+00
1.00000000e+00
1.00000000e+00
1.00000000e+00
1.00000000e+00
1.00000000e+00
1.00000000e+00
1.00000000e+00
1.00000000e+00
1.00000000e+00
1.00000000e+00
1.00000000e+00
1.00000000e+00
1.00000000e+00
1.00000000e+00
1.00000000e+00
1.00000000e+00
1.00000000e+00
1.00000000e+00
1.00000000e+00
1.00000000e+00
1.00000000e+00
1.00000000e+00
1.00000000e+00
1.00000000e+00
1.00000000e+00
1.00000000e+00
1.00000000e+00
1.00000000e+00
1.00000000e+00
1.00000000e+00
1.00000000e+00
1.00000000e+00
1.00000000e+00
1.00000000e+00
1.00000000e+00
1.00000000e+00
1.00000000e+00
1.00000000e+00
1.00000000e+00
1.00000000e+00
1.00000000e+00
1.00000000e+00
1.00000000e+00
1.00000000e+00
1.00000000e+00
1.00000000e+00
1.00000000e+00
1.00000000e+00
1.00000000e+00
1.00000000e+00
1.00000000e+00
1.00000000e+00
1.00000000e+00
1.00000000e+00
1.00000000e+00
1.00000000e+00
1.00000000e+00
1.00000000e+00
1.10287365e+00
1.10587865e+00
1.10156851e+00
1.10327399e+00
1.10445019e+00
1.10154489e+00
1.09692293e+00
1.10531112e+00
1.10194874e+00
1.09586974e+00
1.09983826e+00
1.09600139e+00
1.10067133e+00
1.10038057e+00
1.08961080e+00
1.09636861e+00
1.09630540e+00
1.09244617e+00
1.09926620e+00
1.08691958e+00
1.08294554e+00
1.10224170e+00
1.09292901e+00
1.07214796e+00
1.09017550e+00
1.10076914e+00
1.07237298e+00
1.06650069e+00
1.09829734e+00
1.10146773e+00
1.05958154e+00
1.03951692e+00
1.06943110e+00
1.10947275e+00
1.10165487e+00
1.05600809e+00
1.02103490e+00
1.00637598e+00
1.00104679e+00
1.00052632e+00
1.00021478e+00
9.99942258e-01
9.99997068e-01
9.99992464e-01
1.00001213e+00
1.00001030e+00
9.99989028e-01
1.00000336e+00
1.00000963e+00
9.99998362e-01
9.99992973e-01
1.00001014e+00
9.99998490e-01
9.99991754e-01
1.00000975e+00
9.99996304e-01
9.99997654e-01
1.00000361e+00
9.99998119e-01
1.00000043e+00
1.00000000e+00
1.00000000e+00
1.00000000e+00
1.00000000e+00
1.00000000e+00
1.00000000e+00
1.00000000e+00
1.00000000e+00
1.00000000e+00
1.00000000e+00
1.00000000e+00
1.00000000e+00
1.00000000e+00
1.00000000e+00
1.00000000e+00
1.00000000e+00
1.00000000e+00
1.00000000e+00
1.00000000e+00
1.00000000e+00
1.00000000e+00
1.00000000e+00
1.00000000e+00
1.00000000e+00
1.00000000e+00
1.00000000e+00
1.00000000e+00
1.00000000e+00
1.00000000e+00
1.00000000e+00
1.00000000e+00
1.00000000e+00
1.00000000e+00
1.00000000e+00
1.00000000e+00
1.00000000e+00
1.00000000e+00
1.00000000e+00
1.00000000e+00
1.00000000e+00
1.00000000e+00
1.00000000e+00
1.00000000e+00
1.00000000e+00
1.00000000e+00
1.00000000e+00
1.00000000e+00
1.00000000e+00
1.00000000e+00
1.00000000e+00
1.00000000e+00
1.00000000e+00
1.00000000e+00
1.00000000e+00
1.00000000e+00
1.00000000e+00
1.00000000e+00
1.00000000e+00
1.00000000e+00
1.00000000e+00
1.00000000e+00
1.00000000e+00
1.00000000e+00
1.00000000e+00
1.00000000e+00
1.00000000e+00
1.00000000e+00
1.00000000e+00
1.10652922e+00
1.10584819e+00
1.10111737e+00
1.10592233e+00
1.10270313e+00
1.10014528e+00
1.09999602e+00
1.10502330e+00
1.09865927e+00
1.09769302e+00
1.10233503e+00
1.09480205e+00
1.09783992e+00
1.10253660e+00
1.09291971e+00
1.09606126e+00
1.09181417e+00
1.09214918e+00
1.10537095e+00
1.08967277e+00
1.07911943e+00
1.10059821e+00
1.09570775e+00
1.07296134e+00
1.09022141e+00
1.10289547e+00
1.07446546e+00
1.06604182e+00
1.09828742e+00
1.10335700e+00
1.06197789e+00
1.04021209e+00
1.07134527e+00
1.11529611e+00
1.10990348e+00
1.06190091e+00
1.02347696e+00
1.00610171e+00
1.00167519e+00
1.00082311e+00
9.99811406e-01
9.99980056e-01
1.00008967e+00
9.99993918e-01
1.00000278e+00
1.00000937e+00
9.99985671e-01
9.99999420e-01
1.00000774e+00
9.99993064e-01
9.99994149e-01
1.00001035e+00
9.99996598e-01
9.99993049e-01
1.00000964e+00
9.99995860e-01
9.99997946e-01
1.00000357e+00
9.99998086e-01
1.00000044e+00
1.00000000e+00
1.00000000e+00
1.00000000e+00
1.00000000e+00
1.00000000e+00
1.00000000e+00
1.00000000e+00
1.00000000e+00
1.00000000e+00
1.00000000e+00
1.00000000e+00
1.00000000e+00
1.00000000e+00
1.00000000e+00
1.00000000e+00
1.00000000e+00
1.00000000e+00
1.00000000e+00
1.00000000e+00
1.00000000e+00
1.00000000e+00
1.00000000e+00
1.00000000e+00
1.00000000e+00
1.00000000e+00
1.00000000e+00
1.00000000e+00
1.00000000e+00
1.00000000e+00
1.00000000e+00
1.00000000e+00
1.00000000e+00
1.00000000e+00
1.00000000e+00
1.00000000e+00
1.00000000e+00
1.00000000e+00
1.00000000e+00
1.00000000e+00
1.00000000e+00
1.00000000e+00
1.00000000e+00
1.00000000e+00
1.00000000e+00
1.00000000e+00
1.00000000e+00
1.00000000e+00
1.00000000e+00
1.00000000e+00
1.00000000e+00
1.00000000e+00
1.00000000e+00
1.00000000e+00
1.00000000e+00
1.00000000e+00
1.00000000e+00
1.00000000e+00
1.00000000e+00
1.00000000e+00
1.00000000e+00
1.00000000e+00
1.00000000e+00
1.00000000e+00
1.00000000e+00
1.00000000e+00
1.00000000e+00
1.00000000e+00
1.00000000e+00
1.10257424e+00
1.10342395e+00
1.10539091e+00
1.10488496e+00
1.10064486e+00
1.10277906e+00
1.10005358e+00
1.10044916e+00
1.10047362e+00
1.10218219e+00
1.10295629e+00
1.09086069e+00
1.09743506e+00
1.10422649e+00
1.09464788e+00
1.09838627e+00
1.09094935e+00
1.08990238e+00
1.10555008e+00
1.09104261e+00
1.07867627e+00
1.10195686e+00
1.09811427e+00
1.07425145e+00
1.08906914e+00
1.10268674e+00
1.07608176e+00
1.06799759e+00
1.10009989e+00
1.10467718e+00
1.06309627e+00
1.04188169e+00
1.07319924e+00
1.12033286e+00
1.11805778e+00
1.06715999e+00
1.02456843e+00
1.00662191e+00
1.00240201e+00
1.00001110e+00
9.99835383e-01
1.00031743e+00
9.99998273e-01
9.99938097e-01
1.00000281e+00
1.00000803e+00
9.99988121e-01
1.00000457e+00
1.00001122e+00
9.99991079e-01
9.99997740e-01
1.00001033e+00
9.99994532e-01
9.99995051e-01
1.00000906e+00
9.99995466e-01
9.99998399e-01
1.00000340e+00
9.99998103e-01
1.00000044e+00
1.00000000e+00
1.00000000e+00
1.00000000e+00
1.00000000e+00
1.00000000e+00
1.00000000e+00
1.00000000e+00
1.00000000e+00
1.00000000e+00
1.00000000e+00
1.00000000e+00
1.00000000e+00
1.00000000e+00
1.00000000e+00
1.00000000e+00
1.00000000e+00
1.00000000e+00
1.00000000e+00
1.00000000e+00
1.00000000e+00
1.00000000e+00
1.00000000e+00
1.00000000e+00
1.00000000e+00
1.00000000e+00
1.00000000e+00
1.00000000e+00
1.00000000e+00
1.00000000e+00
1.00000000e+00
1.00000000e+00
1.00000000e+00
1.00000000e+00
1.00000000e+00
1.00000000e+00
1.00000000e+00
1.00000000e+00
1.00000000e+00
1.00000000e+00
1.00000000e+00
1.00000000e+00
1.00000000e+00
1.00000000e+00
1.00000000e+00
1.00000000e+00
1.00000000e+00
1.00000000e+00
1.00000000e+00
1.00000000e+00
1.00000000e+00
1.00000000e+00
1.00000000e+00
1.00000000e+00
1.00000000e+00
1.00000000e+00
1.00000000e+00
1.00000000e+00
1.00000000e+00
1.00000000e+00
1.00000000e+00
1.00000000e+00
1.00000000e+00
1.00000000e+00
1.00000000e+00
1.00000000e+00
1.00000000e+00
1.00000000e+00
1.00000000e+00
1.10169714e+00
1.10376495e+00
1.10217141e+00
1.10160521e+00
1.10492627e+00
1.10551266e+00
1.09856683e+00
1.09993491e+00
1.09947810e+00
1.10032496e+00
1.10480159e+00
1.09611862e+00
1.09789125e+00
1.09754920e+00
1.09418521e+00
1.10388022e+00
1.09391663e+00
1.08583067e+00
1.10465723e+00
1.09553435e+00
1.08008924e+00
1.10028876e+00
1.09772554e+00
1.07562192e+00
1.08952295e+00
1.10388572e+00
1.07914389e+00
1.06985273e+00
1.09874291e+00
1.10503578e+00
1.06643307e+00
1.04398973e+00
1.07478356e+00
1.12616824e+00
1.12526602e+00
1.07103743e+00
1.02579345e+00
1.00766191e+00
1.00177471e+00
9.99790921e-01
1.00065309e+00
1.00004675e+00
9.99763962e-01
1.00002696e+00
1.00004376e+00
1.00000655e+00
9.99985433e-01
1.00000429e+00
1.00000899e+00
9.99986925e-01
1.00000137e+00
1.00000939e+00
9.99992434e-01
9.99997583e-01
1.00000802e+00
9.99995160e-01
9.99998979e-01
1.00000310e+00
9.99998168e-01
1.00000044e+00
1.00000000e+00
1.00000000e+00
1.00000000e+00
1.00000000e+00
1.00000000e+00
1.00000000e+00
1.00000000e+00
1.00000000e+00
1.00000000e+00
1.00000000e+00
1.00000000e+00
1.00000000e+00
1.00000000e+00
1.00000000e+00
1.00000000e+00
1.00000000e+00
1.00000000e+00
1.00000000e+00
1.00000000e+00
1.00000000e+00
1.00000000e+00
1.00000000e+00
1.00000000e+00
1.00000000e+00
1.00000000e+00
1.00000000e+00
1.00000000e+00
1.00000000e+00
1.00000000e+00
1.00000000e+00
1.00000000e+00
1.00000000e+00
1.00000000e+00
1.00000000e+00
1.00000000e+00
1.00000000e+00
1.00000000e+00
1.00000000e+00
1.00000000e+00
1.00000000e+00
1.00000000e+00
1.00000000e+00
1.00000000e+00
1.00000000e+00
1.00000000e+00
1.00000000e+00
1.00000000e+00
1.00000000e+00
1.00000000e+00
1.00000000e+00
1.00000000e+00
1.00000000e+00
1.00000000e+00
1.00000000e+00
1.00000000e+00
1.00000000e+00
1.00000000e+00
1.00000000e+00
1.00000000e+00
1.00000000e+00
1.00000000e+00
1.00000000e+00
1.00000000e+00
1.00000000e+00
1.00000000e+00
1.00000000e+00
1.00000000e+00
1.00000000e+00
1.10484069e+00
1.10317548e+00
1.09921165e+00
1.10231509e+00
1.10460978e+00
1.10307017e+00
1.10148984e+00
1.10322169e+00
1.09724180e+00
1.09778018e+00
1.10677359e+00
1.09930281e+00
1.09610449e+00
1.09553673e+00
1.09424928e+00
1.10668638e+00
1.09460479e+00
1.08514485e+00
1.10622405e+00
1.09546796e+00
1.07959012e+00
1.10075242e+00
1.10048125e+00
1.07673058e+00
1.08881111e+00
1.10428240e+00
1.08179281e+00
1.07063048e+00
1.09855389e+00
1.10707704e+00
1.06902483e+00
1.04573352e+00
1.07753953e+00
1.13146574e+00
1.13075196e+00
1.07456250e+00
1.02749261e+00
1.00789269e+00
1.00119130e+00
1.00078602e+00
1.00030660e+00
9.99464890e-01
1.00013324e+00
1.00013560e+00
9.99973263e-01
9.99981559e-01
9.99986831e-01
1.00000929e+00
1.00000840e+00
9.99984471e-01
1.00000566e+00
1.00000759e+00
9.99990594e-01
1.00000044e+00
1.00000657e+00
9.99994983e-01
9.99999646e-01
1.00000270e+00
9.99998278e-01
1.00000043e+00
1.00000000e+00
1.00000000e+00
1.00000000e+00
1.00000000e+00
1.00000000e+00
1.00000000e+00
1.00000000e+00
1.00000000e+00
1.00000000e+00
1.00000000e+00
1.00000000e+00
1.00000000e+00
1.00000000e+00
1.00000000e+00
1.00000000e+00
1.00000000e+00
1.00000000e+00
1.00000000e+00
1.00000000e+00
1.00000000e+00
1.00000000e+00
1.00000000e+00
1.00000000e+00
1.00000000e+00
1.00000000e+00
1.00000000e+00
1.00000000e+00
1.00000000e+00
1.00000000e+00
1.00000000e+00
1.00000000e+00
1.00000000e+00
1.00000000e+00
1.00000000e+00
1.00000000e+00
1.00000000e+00
1.00000000e+00
1.00000000e+00
1.00000000e+00
1.00000000e+00
1.00000000e+00
1.00000000e+00
1.00000000e+00
1.00000000e+00
1.00000000e+00
1.00000000e+00
1.00000000e+00
1.00000000e+00
1.00000000e+00
1.00000000e+00
1.00000000e+00
1.00000000e+00
1.00000000e+00
1.00000000e+00
1.00000000e+00
1.00000000e+00
1.00000000e+00
1.00000000e+00
1.00000000e+00
1.00000000e+00
1.00000000e+00
1.00000000e+00
1.00000000e+00
1.00000000e+00
1.00000000e+00
1.00000000e+00
1.00000000e+00
1.00000000e+00
1.10588184e+00
1.10451542e+00
1.10419113e+00
1.10251811e+00
1.09869544e+00
1.10276273e+00
1.10532788e+00
1.10416787e+00
1.09880288e+00
1.09726506e+00
1.10394091e+00
1.09746569e+00
1.10111706e+00
1.09864750e+00
1.09203787e+00
1.10507495e+00
1.09627684e+00
1.08664409e+00
1.10325663e+00
1.09654833e+00
1.08280470e+00
1.10238715e+00
1.09927445e+00
1.07506636e+00
1.09066229e+00
1.10727508e+00
1.08378410e+00
1.07092849e+00
1.09862718e+00
1.10771122e+00
1.07181271e+00
1.04928808e+00
1.08097193e+00
1.13565005e+00
1.13542065e+00
1.07813615e+00
1.02825351e+00
1.00736306e+00
1.00172810e+00
1.00091008e+00
9.99351059e-01
1.00020056e+00
1.00037934e+00
9.99814329e-01
9.99953648e-01
1.00002091e+00
9.99996722e-01
1.00001163e+00
1.00000530e+00
9.99983363e-01
1.00001035e+00
1.00000516e+00
9.99989374e-01
1.00000341e+00
1.00000478e+00
9.99994974e-01
1.00000035e+00
1.00000222e+00
9.99998425e-01
1.00000041e+00
1.00000000e+00
1.00000000e+00
1.00000000e+00
1.00000000e+00
1.00000000e+00
1.00000000e+00
1.00000000e+00
1.00000000e+00
1.00000000e+00
1.00000000e+00
1.00000000e+00
1.00000000e+00
1.00000000e+00
1.00000000e+00
1.00000000e+00
1.00000000e+00
1.00000000e+00
1.00000000e+00
1.00000000e+00
1.00000000e+00
1.00000000e+00
1.00000000e+00
1.00000000e+00
1.00000000e+00
1.00000000e+00
1.00000000e+00
1.00000000e+00
1.00000000e+00
1.00000000e+00
1.00000000e+00
1.00000000e+00
1.00000000e+00
1.00000000e+00
1.00000000e+00
1.00000000e+00
1.00000000e+00
1.00000000e+00
1.00000000e+00
1.00000000e+00
1.00000000e+00
1.00000000e+00
1.00000000e+00
1.00000000e+00
1.00000000e+00
1.00000000e+00
1.00000000e+00
1.00000000e+00
1.00000000e+00
1.00000000e+00
1.00000000e+00
1.00000000e+00
1.00000000e+00
1.00000000e+00
1.00000000e+00
1.00000000e+00
1.00000000e+00
1.00000000e+00
1.00000000e+00
1.00000000e+00
1.00000000e+00
1.00000000e+00
1.00000000e+00
1.00000000e+00
1.00000000e+00
1.00000000e+00
1.00000000e+00
1.00000000e+00
1.00000000e+00
1.10231477e+00
1.10394069e+00
1.10771572e+00
1.10395511e+00
1.09996102e+00
1.10309967e+00
1.10030500e+00
1.10421873e+00
1.10402855e+00
1.09733702e+00
1.09983650e+00
1.09753345e+00
1.10478780e+00
1.09891187e+00
1.08957836e+00
1.10593455e+00
1.09976494e+00
1.08560849e+00
1.10350273e+00
1.09877356e+00
1.08324921e+00
1.10060590e+00
1.09924924e+00
1.07913495e+00
1.09195652e+00
1.10741799e+00
1.08479102e+00
1.07175381e+00
1.09875449e+00
1.10922298e+00
1.07541093e+00
1.05284453e+00
1.08341629e+00
1.13928282e+00
1.14071184e+00
1.08036002e+00
1.02829255e+00
1.00785638e+00
1.00226059e+00
9.99993276e-01
9.99933022e-01
1.00078363e+00
9.99537855e-01
9.99822267e-01
1.00016905e+00
1.00000581e+00
9.99979530e-01
1.00001080e+00
1.00000002e+00
9.99982706e-01
1.00001380e+00
1.00000162e+00
9.99988821e-01
1.00000622e+00
1.00000272e+00
9.99995160e-01
1.00000105e+00
1.00000168e+00
9.99998606e-01
1.00000039e+00
1.00000000e+00
1.00000000e+00
1.00000000e+00
1.00000000e+00
1.00000000e+00
1.00000000e+00
1.00000000e+00
1.00000000e+00
1.00000000e+00
1.00000000e+00
1.00000000e+00
1.00000000e+00
1.00000000e+00
1.00000000e+00
1.00000000e+00
1.00000000e+00
1.00000000e+00
1.00000000e+00
1.00000000e+00
1.00000000e+00
1.00000000e+00
1.00000000e+00
1.00000000e+00
1.00000000e+00
1.00000000e+00
1.00000000e+00
1.00000000e+00
1.00000000e+00
1.00000000e+00
1.00000000e+00
1.00000000e+00
1.00000000e+00
1.00000000e+00
1.00000000e+00
1.00000000e+00
1.00000000e+00
1.00000000e+00
1.00000000e+00
1.00000000e+00
1.00000000e+00
1.00000000e+00
1.00000000e+00
1.00000000e+00
1.00000000e+00
1.00000000e+00
1.00000000e+00
1.00000000e+00
1.00000000e+00
1.00000000e+00
1.00000000e+00
1.00000000e+00
1.00000000e+00
1.00000000e+00
1.00000000e+00
1.00000000e+00
1.00000000e+00
1.00000000e+00
1.00000000e+00
1.00000000e+00
1.00000000e+00
1.00000000e+00
1.00000000e+00
1.00000000e+00
1.00000000e+00
1.00000000e+00
1.00000000e+00
1.00000000e+00
1.00000000e+00
1.10324689e+00
1.10387292e+00
1.10410937e+00
1.10444637e+00
1.10405249e+00
1.10292939e+00
1.09686793e+00
1.10548101e+00
1.10414694e+00
1.09730880e+00
1.10070534e+00
1.09813950e+00
1.10361752e+00
1.10056874e+00
1.09044558e+00
1.10632180e+00
1.09848181e+00
1.08651410e+00
1.10481171e+00
1.09928681e+00
1.08422775e+00
1.10079075e+00
1.10109042e+00
1.07921655e+00
1.09160854e+00
1.10946354e+00
1.08740905e+00
1.07248202e+00
1.09736024e+00
1.11119736e+00
1.08008342e+00
1.05599293e+00
1.08613306e+00
1.14358992e+00
1.14380387e+00
1.08102413e+00
1.02948681e+00
1.00835493e+00
1.00174964e+00
9.99957174e-01
1.00081569e+00
9.99622326e-01
9.99473259e-01
1.00052651e+00
1.00004182e+00
9.99884950e-01
9.99997264e-01
1.00002171e+00
9.99997425e-01
9.99986231e-01
1.00001760e+00
9.99998028e-01
9.99989347e-01
1.00000868e+00
1.00000052e+00
9.99995560e-01
1.00000170e+00
1.00000111e+00
9.99998811e-01
1.00000036e+00
1.00000000e+00
1.00000000e+00
1.00000000e+00
1.00000000e+00
1.00000000e+00
1.00000000e+00
1.00000000e+00
1.00000000e+00
1.00000000e+00
1.00000000e+00
1.00000000e+00
1.00000000e+00
1.00000000e+00
1.00000000e+00
1.00000000e+00
1.00000000e+00
1.00000000e+00
1.00000000e+00
1.00000000e+00
1.00000000e+00
1.00000000e+00
1.00000000e+00
1.00000000e+00
1.00000000e+00
1.00000000e+00
1.00000000e+00
1.00000000e+00
1.00000000e+00
1.00000000e+00
1.00000000e+00
1.00000000e+00
1.00000000e+00
1.00000000e+00
1.00000000e+00
1.00000000e+00
1.00000000e+00
1.00000000e+00
1.00000000e+00
1.00000000e+00
1.00000000e+00
1.00000000e+00
1.00000000e+00
1.00000000e+00
1.00000000e+00
1.00000000e+00
1.00000000e+00
1.00000000e+00
1.00000000e+00
1.00000000e+00
1.00000000e+00
1.00000000e+00
1.00000000e+00
1.00000000e+00
1.00000000e+00
1.00000000e+00
1.00000000e+00
1.00000000e+00
1.00000000e+00
1.00000000e+00
1.00000000e+00
1.00000000e+00
1.00000000e+00
1.00000000e+00
1.00000000e+00
1.00000000e+00
1.00000000e+00
1.00000000e+00
1.00000000e+00
1.10506392e+00
1.10248152e+00
1.10171465e+00
1.10510370e+00
1.10438870e+00
1.10411834e+00
1.09899186e+00
1.10344720e+00
1.10179519e+00
1.10018560e+00
1.10457391e+00
1.09593503e+00
1.10341787e+00
1.10356482e+00
1.09054497e+00
1.10313866e+00
1.09980374e+00
1.09007119e+00
1.10504131e+00
1.09805392e+00
1.08425144e+00
1.10257431e+00
1.10125014e+00
1.08020106e+00
1.09409450e+00
1.11104102e+00
1.08734554e+00
1.07175043e+00
1.09847046e+00
1.11508630e+00
1.08287766e+00
1.05916491e+00
1.08990443e+00
1.14654627e+00
1.14600620e+00
1.08323948e+00
1.03034506e+00
1.00754775e+00
1.00139591e+00
1.00063238e+00
1.00019838e+00
9.99263072e-01
1.00077161e+00
1.00015850e+00
9.99604682e-01
1.00002517e+00
1.00005272e+00
1.00001193e+00
9.99986514e-01
9.99988196e-01
1.00001842e+00
9.99993574e-01
9.99990704e-01
1.00001052e+00
9.99998272e-01
9.99996176e-01
1.00000225e+00
1.00000053e+00
9.99999035e-01
1.00000033e+00
1.00000000e+00
1.00000000e+00
1.00000000e+00
1.00000000e+00
1.00000000e+00