# vtk DataFile Version 2.0
LBM Flow Field - Timestep 790
ASCII
DATASET STRUCTURED_POINTS
DIMENSIONS 128 128 1
ORIGIN 0.0 0.0 0.0
SPACING 1.0 1.0 1.0
POINT_DATA 16384
SCALARS density double 1
LOOKUP_TABLE default
1.32060385e+00
1.30886104e+00
1.29494280e+00
1.28099028e+00
1.26736134e+00
1.25367228e+00
1.24047573e+00
1.22719894e+00
1.21456357e+00
1.20183438e+00
1.18987089e+00
1.17780715e+00
1.16660533e+00
1.15530437e+00
1.14493144e+00
1.13446800e+00
1.12496800e+00
1.11539324e+00
1.10678755e+00
1.09812918e+00
1.09041796e+00
1.08268122e+00
1.07584569e+00
1.06901530e+00
1.06302050e+00
1.05706324e+00
1.05186124e+00
1.04672899e+00
1.04226218e+00
1.03789527e+00
1.03409959e+00
1.03043020e+00
1.02723813e+00
1.02419360e+00
1.02153681e+00
1.01904270e+00
1.01685426e+00
1.01483701e+00
1.01305308e+00
1.01144225e+00
1.01000337e+00
1.00873334e+00
1.00758523e+00
1.00659642e+00
1.00569042e+00
1.00493000e+00
1.00422321e+00
1.00364539e+00
1.00310055e+00
1.00266652e+00
1.00225172e+00
1.00192926e+00
1.00161754e+00
1.00138043e+00
1.00114936e+00
1.00097667e+00
1.00080781e+00
1.00068317e+00
1.00056159e+00
1.00047237e+00
1.00038616e+00
1.00032281e+00
1.00026264e+00
1.00021801e+00
1.00017666e+00
1.00014548e+00
1.00011752e+00
1.00009592e+00
1.00007731e+00
1.00006249e+00
1.00005027e+00
1.00004022e+00
1.00003232e+00
1.00002559e+00
1.00002053e+00
1.00001608e+00
1.00001288e+00
1.00000999e+00
1.00000798e+00
1.00000614e+00
1.00000488e+00
1.00000373e+00
1.00000295e+00
1.00000224e+00
1.00000176e+00
1.00000133e+00
1.00000103e+00
1.00000078e+00
1.00000060e+00
1.00000045e+00
1.00000034e+00
1.00000026e+00
1.00000019e+00
1.00000015e+00
1.00000011e+00
1.00000008e+00
1.00000006e+00
1.00000004e+00
1.00000003e+00
1.00000002e+00
1.00000002e+00
1.00000001e+00
1.00000001e+00
1.00000001e+00
1.00000000e+00
1.00000000e+00
1.00000000e+00
1.00000000e+00
1.00000000e+00
1.00000000e+00
1.00000000e+00
1.00000000e+00
1.00000000e+00
1.00000000e+00
1.00000000e+00
1.00000000e+00
1.00000000e+00
1.00000000e+00
1.00000000e+00
1.00000000e+00
1.00000000e+00
1.00000000e+00
1.00000000e+00
1.00000000e+00
1.00000000e+00
1.00000000e+00
1.00000000e+00
1.00000000e+00
1.12162800e+00
1.09707651e+00
1.08918414e+00
1.08115330e+00
1.06651545e+00
1.05823166e+00
1.06445331e+00
1.03449324e+00
1.04220254e+00
9.98972046e-01
1.00208256e+00
1.04899225e+00
1.00530220e+00
1.00216593e+00
1.04116541e+00
1.00691804e+00
1.01291950e+00
1.01215608e+00
1.01851220e+00
1.02340518e+00
1.04844842e+00
9.78054628e-01
1.05678479e+00
9.97375560e-01
1.02394656e+00
1.01251218e+00
9.90428558e-01
1.01102792e+00
1.05077998e+00
1.02250507e+00
1.01528070e+00
1.01529633e+00
1.01866324e+00
1.01152782e+00
1.02729128e+00
1.02881195e+00
1.01424297e+00
1.00816264e+00
1.02183414e+00
1.02315470e+00
1.01956526e+00
1.01223188e+00
1.02170197e+00
1.02855357e+00
1.02724449e+00
1.02654379e+00
1.02700845e+00
1.02490892e+00
1.03755563e+00
1.04124582e+00
1.02155390e+00
1.00866680e+00
1.02789889e+00
1.03424793e+00
1.02418810e+00
1.01652677e+00
1.02212379e+00
1.03367315e+00
1.03492394e+00
1.01381411e+00
1.02027345e+00
1.03232747e+00
1.02334012e+00
1.02386548e+00
1.01952643e+00
1.02601249e+00
1.02547753e+00
1.01508140e+00
1.02504802e+00
1.02624572e+00
1.01854834e+00
1.01952029e+00
1.02302920e+00
1.02161084e+00
1.02013559e+00
1.01927590e+00
1.02415461e+00
1.02194323e+00
1.01821645e+00
1.02283917e+00
1.02026299e+00
1.01861637e+00
1.02429509e+00
1.02020330e+00
1.01633709e+00
1.02127222e+00
1.02022876e+00
1.02081212e+00
1.01988766e+00
1.01827949e+00
1.02243964e+00
1.02245981e+00
1.01876518e+00
1.02255280e+00
1.02171118e+00
1.01833598e+00
1.01886448e+00
1.02124429e+00
1.02125305e+00
1.01746062e+00
1.01930342e+00
1.02192131e+00
1.01789292e+00
1.01545713e+00
1.02169085e+00
1.01917927e+00
1.01703603e+00
1.02142842e+00
1.02053503e+00
1.01686403e+00
1.01886932e+00
1.01750336e+00
1.01584394e+00
1.01849179e+00
1.01982845e+00
1.01659372e+00
1.01538595e+00
1.02140314e+00
1.01892047e+00
1.01432230e+00
1.01782076e+00
1.01865670e+00
1.01689984e+00
1.01475863e+00
1.01735369e+00
1.01640590e+00
1.01464727e+00
1.01627148e+00
1.10874872e+00
1.08599921e+00
1.08055283e+00
1.06481719e+00
1.06403799e+00
1.05041045e+00
1.05779657e+00
1.05293357e+00
1.04741348e+00
1.01180008e+00
9.95204789e-01
1.00469653e+00
1.01513980e+00
1.02456958e+00
1.01370671e+00
1.01732251e+00
1.00515153e+00
1.01290307e+00
1.04614512e+00
1.03898869e+00
1.03329857e+00
9.86841562e-01
1.07367211e+00
9.90921927e-01
9.86921421e-01
9.84072424e-01
1.05834164e+00
1.02031612e+00
1.00896492e+00
1.01607981e+00
1.03491388e+00
1.01715191e+00
1.01977670e+00
1.01525316e+00
1.02541841e+00
1.02055644e+00
1.01798431e+00
1.02131614e+00
1.02919427e+00
1.00985948e+00
1.01145721e+00
1.02358906e+00
1.02244442e+00
1.01316381e+00
1.02937810e+00
1.03339650e+00
1.02682649e+00
1.03093798e+00
1.03653526e+00
1.02327372e+00
1.02000181e+00
1.02669699e+00
1.03214385e+00
1.02195999e+00
1.01254107e+00
1.02444853e+00
1.03772188e+00
1.02009709e+00
1.01712044e+00
1.02884912e+00
1.02594378e+00
1.02694936e+00
1.01594415e+00
1.02522457e+00
1.03149760e+00
1.01575237e+00
1.02385392e+00
1.02368133e+00
1.02241885e+00
1.02273657e+00
1.02296437e+00
1.01934826e+00
1.02175154e+00
1.02301859e+00
1.02164009e+00
1.02048435e+00
1.02044119e+00
1.02431998e+00
1.02048718e+00
1.01828132e+00
1.02528931e+00
1.02034008e+00
1.01826988e+00
1.02182938e+00
1.02014200e+00
1.02114115e+00
1.01900985e+00
1.01786419e+00
1.02316780e+00
1.02295443e+00
1.01444640e+00
1.02234394e+00
1.02256958e+00
1.01903849e+00
1.01911963e+00
1.02176884e+00
1.01943771e+00
1.01756898e+00
1.02113928e+00
1.02156458e+00
1.01741042e+00
1.01783107e+00
1.02174518e+00
1.01740144e+00
1.01808189e+00
1.02157846e+00
1.01975204e+00
1.01662753e+00
1.01960599e+00
1.01986048e+00
1.01708452e+00
1.01729033e+00
1.02079211e+00
1.01654858e+00
1.01858385e+00
1.02201877e+00
1.01602213e+00
1.01538999e+00
1.02094351e+00
1.01887315e+00
1.01447588e+00
1.01631520e+00
1.01968630e+00
1.01610602e+00
1.01524565e+00
1.01731853e+00
1.01626237e+00
1.01487827e+00
1.08252091e+00
1.07348655e+00
1.07847489e+00
1.06821964e+00
1.07069243e+00
1.06580397e+00
1.03670398e+00
1.03196905e+00
1.04978028e+00
1.02714694e+00
1.00850511e+00
1.00825826e+00
1.01114426e+00
1.00540556e+00
1.00423314e+00
1.02452103e+00
1.01268503e+00
1.02624547e+00
1.02457101e+00
1.00312872e+00
9.99880084e-01
1.00608994e+00
1.02689355e+00
1.02030541e+00
1.05054160e+00
9.91083022e-01
1.02080287e+00
1.02221131e+00
1.01822866e+00
1.01549788e+00
1.03993710e+00
1.01282687e+00
1.00833819e+00
1.03542827e+00
1.02474325e+00
1.00364364e+00
1.03025651e+00
1.02891772e+00
1.00335436e+00
1.01858997e+00
1.02556246e+00
1.00775484e+00
1.00970544e+00
1.02080137e+00
1.03308919e+00
1.02684836e+00
1.02404708e+00
1.02862977e+00
1.02788105e+00
1.02207722e+00
1.03148049e+00
1.03157602e+00
1.01624258e+00
1.01813711e+00
1.03116143e+00
1.02698915e+00
1.02342274e+00
1.01986926e+00
1.02373457e+00
1.03651156e+00
1.02182116e+00
1.01630976e+00
1.02665235e+00
1.02430414e+00
1.02264150e+00
1.01849967e+00
1.02141790e+00
1.02903731e+00
1.01992203e+00
1.01383986e+00
1.02326958e+00
1.02551286e+00
1.01919134e+00
1.01824614e+00
1.02290785e+00
1.02424996e+00
1.01963633e+00
1.02081372e+00
1.02414176e+00
1.02115596e+00
1.02101726e+00
1.02158685e+00
1.02064568e+00
1.02344381e+00
1.02027087e+00
1.01666084e+00
1.02495707e+00
1.02134841e+00
1.01653211e+00
1.02359822e+00
1.01889237e+00
1.01950057e+00
1.02350749e+00
1.02074414e+00
1.01719936e+00
1.02118188e+00
1.02220762e+00
1.01976277e+00
1.01815537e+00
1.01942325e+00
1.02095136e+00
1.01697701e+00
1.01825964e+00
1.02157548e+00
1.01894909e+00
1.01545218e+00
1.02090777e+00
1.02015171e+00
1.01521541e+00
1.01775120e+00
1.02047251e+00
1.01713231e+00
1.01996597e+00
1.01914095e+00
1.01619794e+00
1.01832950e+00
1.02116168e+00
1.01714652e+00
1.01359071e+00
1.01821009e+00
1.01892472e+00
1.01443643e+00
1.01640776e+00
1.01800444e+00
1.01424392e+00
1.01299725e+00
1.01742326e+00
1.01712815e+00
1.06535994e+00
1.07417609e+00
1.07474050e+00
1.05687977e+00
1.06466653e+00
1.05845350e+00
1.04197165e+00
1.04264075e+00
1.02791715e+00
1.03750314e+00
1.04586765e+00
1.01426713e+00
1.01992187e+00
1.01411054e+00
1.01282246e+00
1.01401163e+00
1.03099683e+00
1.02462258e+00
1.00829416e+00
1.03800043e+00
1.04115461e+00
1.01035110e+00
1.00674151e+00
1.00859533e+00
1.00644461e+00
1.02613972e+00
1.02791321e+00
1.00097282e+00
1.04604496e+00
1.02381888e+00
1.00238575e+00
1.01827710e+00
1.03978973e+00
1.01549367e+00
1.00931665e+00
1.03201312e+00
1.02907316e+00
1.00919170e+00
1.01324523e+00
1.02107435e+00
1.01188206e+00
1.00753059e+00
1.01972840e+00
1.02215702e+00
1.01981975e+00
1.01993559e+00
1.03180503e+00
1.02911464e+00
1.02285086e+00
1.02558436e+00
1.02915781e+00
1.02471180e+00
1.01823831e+00
1.02656861e+00
1.03374506e+00
1.01874438e+00
1.01026278e+00
1.03369717e+00
1.03452468e+00
1.01895569e+00
1.01957913e+00
1.02461349e+00
1.02827765e+00
1.02093786e+00
1.01456049e+00
1.03015252e+00
1.02411548e+00
1.01843135e+00
1.02168861e+00
1.02538083e+00
1.02056024e+00
1.02017240e+00
1.02224660e+00
1.02312847e+00
1.02202152e+00
1.02074681e+00
1.02128979e+00
1.02021896e+00
1.02262916e+00
1.02067770e+00
1.01934349e+00
1.02445881e+00
1.01937671e+00
1.02006381e+00
1.02513149e+00
1.01800909e+00
1.01796740e+00
1.02573701e+00
1.01895599e+00
1.01891324e+00
1.02404404e+00
1.01946974e+00
1.01902931e+00
1.02243368e+00
1.02036423e+00
1.02000186e+00
1.01890527e+00
1.02092850e+00
1.02120949e+00
1.01871386e+00
1.01921004e+00
1.02097454e+00
1.01718144e+00
1.01940586e+00
1.02275075e+00
1.01816617e+00
1.01524189e+00
1.01861535e+00
1.02103827e+00
1.01889306e+00
1.01824923e+00
1.01934370e+00
1.01835977e+00
1.01943731e+00
1.02015149e+00
1.01476633e+00
1.01543755e+00
1.02105689e+00
1.01833570e+00
1.01423542e+00
1.01867384e+00
1.01813041e+00
1.01469836e+00
1.01815271e+00
1.02010481e+00
1.01464644e+00
1.01283009e+00
1.01769368e+00
1.07494361e+00
1.06375844e+00
1.07109838e+00
1.06588532e+00
1.03933892e+00
1.06454734e+00
1.07374870e+00
1.02700916e+00
1.04105759e+00
1.03330170e+00
1.00002895e+00
1.03682239e+00
1.02823143e+00
9.94480288e-01
1.04546590e+00
1.02566811e+00
1.00676080e+00
1.03782966e+00
1.02635002e+00
1.00826030e+00
1.02410961e+00
1.03459118e+00
1.01859337e+00
1.01617924e+00
1.01263053e+00
1.03393012e+00
1.00723722e+00
1.01613744e+00
1.03879692e+00
1.00960005e+00
1.02434242e+00
1.02600658e+00
1.01469829e+00
1.01344811e+00
1.04026989e+00
1.02342709e+00
1.00694965e+00
1.01747112e+00
1.03280546e+00
1.01810883e+00
1.00727331e+00
1.00893543e+00
1.01569834e+00
1.01750690e+00
1.02346326e+00
1.03041166e+00
1.02878057e+00
1.01773583e+00
1.02473191e+00
1.03502062e+00
1.02307485e+00
1.01408545e+00
1.03183521e+00
1.03375508e+00
1.01156357e+00
1.01942537e+00
1.03052581e+00
1.02820558e+00
1.01839737e+00
1.02009088e+00
1.02848442e+00
1.02945236e+00
1.01572821e+00
1.02481900e+00
1.02458144e+00
1.02442635e+00
1.02514785e+00
1.01861932e+00
1.02237718e+00
1.02833341e+00
1.01959701e+00
1.01779673e+00
1.02602004e+00
1.02427968e+00
1.01702384e+00
1.02043305e+00
1.02534728e+00
1.02068691e+00
1.02287987e+00
1.02125459e+00
1.01766297e+00
1.02382182e+00
1.02516681e+00
1.01651655e+00
1.01847838e+00
1.02727700e+00
1.01815514e+00
1.01882896e+00
1.02170920e+00
1.01851147e+00
1.02042710e+00
1.02058462e+00
1.01939139e+00
1.02358915e+00
1.01822216e+00
1.01622545e+00
1.02262716e+00
1.02145427e+00
1.01700875e+00
1.01767599e+00
1.01929623e+00
1.02110104e+00
1.01918247e+00
1.01749177e+00
1.01724490e+00
1.01908067e+00
1.01825463e+00
1.01614052e+00
1.01967974e+00
1.02028982e+00
1.01653962e+00
1.01889696e+00
1.01997592e+00
1.01645684e+00
1.01699379e+00
1.01944160e+00
1.01591692e+00
1.01761689e+00
1.02141425e+00
1.01613971e+00
1.01243156e+00
1.01879979e+00
1.02098188e+00
1.01402442e+00
1.01408247e+00
1.01851714e+00
1.01517096e+00
1.01333556e+00
1.06354836e+00
1.07162052e+00
1.05045208e+00
1.05414576e+00
1.05683309e+00
1.05180420e+00
1.03853374e+00
1.04173479e+00
1.04170999e+00
1.03649672e+00
1.03732769e+00
1.02338517e+00
1.03604508e+00
1.02206165e+00
1.00742831e+00
1.04343920e+00
1.02960299e+00
1.00683623e+00
1.04447458e+00
1.02356507e+00
1.00567064e+00
1.01967305e+00
1.02827548e+00
1.02879586e+00
1.01522592e+00
1.02577957e+00
1.02587903e+00
1.03941694e+00
1.00707081e+00
1.01659450e+00
1.03736785e+00
1.02173049e+00
1.01422203e+00
1.02400621e+00
1.02385740e+00
1.01200140e+00
1.02432735e+00
1.03555154e+00
1.01860111e+00
1.00381075e+00
1.01819650e+00
1.02428887e+00
1.01827037e+00
1.01414846e+00
1.02762287e+00
1.02541818e+00
1.01977503e+00
1.02892003e+00
1.02963364e+00
1.01835796e+00
1.01878738e+00
1.03017821e+00
1.03178421e+00
1.02075996e+00
1.01164177e+00
1.02856636e+00
1.03291704e+00
1.01778474e+00
1.01530130e+00
1.03153195e+00
1.02285752e+00
1.02507663e+00
1.01888728e+00
1.02605575e+00
1.03153948e+00
1.01323755e+00
1.01684790e+00
1.03011829e+00
1.02409209e+00
1.01459117e+00
1.02336424e+00
1.02633902e+00
1.01952757e+00
1.02033695e+00
1.02184200e+00
1.02224256e+00
1.02468315e+00
1.01987347e+00
1.01859394e+00
1.02635773e+00
1.02471352e+00
1.01372204e+00
1.02176267e+00
1.02750472e+00
1.01913494e+00
1.01965230e+00
1.02134130e+00
1.02084808e+00
1.02368633e+00
1.01939569e+00
1.01984464e+00
1.02575081e+00
1.01622569e+00
1.01890451e+00
1.02777264e+00
1.01825640e+00
1.01508580e+00
1.02147293e+00
1.02464628e+00
1.01915104e+00
1.01892558e+00
1.02081316e+00
1.01951917e+00
1.01941100e+00
1.01939260e+00
1.02011112e+00
1.01980885e+00
1.01875389e+00
1.01973401e+00
1.02040137e+00
1.01899504e+00
1.01486300e+00
1.01619892e+00
1.02213680e+00
1.01857829e+00
1.01693858e+00
1.01802955e+00
1.01576305e+00
1.01866824e+00
1.02246439e+00
1.01710192e+00
1.01097780e+00
1.01931245e+00
1.02167904e+00
1.01421114e+00
1.01420357e+00
1.01678535e+00
1.01574949e+00
1.04827226e+00
1.05901526e+00
1.04289233e+00
1.06523116e+00
1.06045789e+00
1.04964185e+00
1.03855808e+00
1.06592979e+00
1.04194907e+00
1.03018470e+00
1.04888920e+00
1.01694803e+00
1.01792502e+00
1.04433175e+00
1.01787460e+00
1.02551424e+00
1.02803698e+00
1.01685175e+00
1.02529329e+00
1.02204251e+00
1.04092492e+00
1.01212657e+00
1.01118654e+00
1.03193026e+00
1.03112925e+00
1.01832586e+00
1.02599039e+00
1.02556345e+00
1.01236951e+00
1.04763462e+00
1.01452185e+00
1.01339697e+00
1.03533548e+00
1.02410738e+00
1.00375640e+00
1.02571666e+00
1.03441553e+00
1.01740680e+00
1.01097399e+00
1.02774210e+00
1.03004501e+00
1.01597212e+00
1.01528871e+00
1.02339811e+00
1.02538162e+00
1.01994109e+00
1.02861500e+00
1.03311425e+00
1.01652689e+00
1.01718058e+00
1.03562225e+00
1.03445687e+00
1.00492072e+00
1.01292065e+00
1.03525105e+00
1.02881607e+00
1.00935559e+00
1.01659306e+00
1.02739245e+00
1.03014476e+00
1.01491805e+00
1.01864086e+00
1.03222825e+00
1.02201890e+00
1.01712832e+00
1.02737586e+00
1.02373124e+00
1.02218880e+00
1.02142710e+00
1.02151873e+00
1.02528104e+00
1.02242396e+00
1.01565072e+00
1.02190969e+00
1.02755594e+00
1.01766563e+00
1.01802813e+00
1.02689955e+00
1.02039465e+00
1.01602096e+00
1.02244346e+00
1.02394642e+00
1.02096285e+00
1.01982808e+00
1.01928734e+00
1.02083730e+00
1.02331964e+00
1.01975163e+00
1.02321112e+00
1.02203633e+00
1.01359614e+00
1.02412028e+00
1.02712131e+00
1.01459253e+00
1.01742485e+00
1.02754665e+00
1.02047132e+00
1.01517389e+00
1.02369191e+00
1.02168534e+00
1.01579772e+00
1.01920568e+00
1.02448046e+00
1.01930126e+00
1.01389369e+00
1.02113592e+00
1.02313893e+00
1.01935840e+00
1.01787645e+00
1.01499190e+00
1.01901378e+00
1.02022191e+00
1.01617547e+00
1.01778192e+00
1.01886429e+00
1.01601882e+00
1.01894000e+00
1.02057703e+00
1.01488227e+00
1.01402304e+00
1.02117480e+00
1.01737433e+00
1.01292507e+00
1.01765184e+00
1.01799788e+00
1.01425152e+00
1.01443912e+00
1.01851520e+00
1.06366856e+00
1.04405842e+00
1.03451974e+00
1.06384081e+00
1.03527687e+00
1.04576490e+00
1.05001542e+00
1.04239649e+00
1.02661623e+00
1.05184707e+00
1.03532357e+00
1.04474811e+00
1.02711151e+00
1.03564654e+00
1.03274821e+00
1.02070386e+00
1.03330055e+00
1.03440274e+00
1.01728988e+00
1.01991465e+00
1.03066921e+00
1.03586829e+00
1.02481188e+00
1.00477193e+00
1.04167580e+00
1.03096095e+00
1.01523035e+00
1.02042219e+00
1.03011450e+00
1.02972822e+00
1.01448747e+00
1.03634486e+00
1.01999576e+00
1.01322626e+00
1.01715617e+00
1.03836280e+00
1.01583167e+00
1.01284321e+00
1.03101597e+00
1.03730229e+00
1.01507213e+00
1.01156994e+00
1.02487088e+00
1.02923929e+00
1.01919945e+00
1.02000141e+00
1.02712662e+00
1.02061061e+00
1.02366967e+00
1.03529836e+00
1.02260404e+00
1.01122900e+00
1.02117433e+00
1.03834475e+00
1.02749819e+00
1.00950202e+00
1.01588615e+00
1.03641642e+00
1.03013313e+00
1.01032027e+00
1.02165742e+00
1.02957610e+00
1.02805016e+00
1.02120460e+00
1.01355662e+00
1.03143787e+00
1.02446785e+00
1.01679694e+00
1.02337415e+00
1.02672468e+00
1.01708168e+00
1.01885386e+00
1.02572409e+00
1.02092392e+00
1.02219818e+00
1.02318397e+00
1.01631929e+00
1.01975958e+00
1.02611844e+00
1.02005632e+00
1.01499891e+00
1.02366520e+00
1.02169308e+00
1.01971142e+00
1.01863192e+00
1.02205974e+00
1.02395164e+00
1.01780607e+00
1.01712548e+00
1.02841771e+00
1.02248583e+00
1.01028889e+00
1.02320244e+00
1.02940664e+00
1.01444158e+00
1.01884733e+00
1.02533605e+00
1.01956357e+00
1.01702441e+00
1.02235709e+00
1.02508516e+00
1.01467410e+00
1.01466533e+00
1.02577427e+00
1.02184703e+00
1.01674809e+00
1.01643679e+00
1.02057710e+00
1.02197184e+00
1.01799268e+00
1.01778058e+00
1.01708791e+00
1.01945364e+00
1.02014590e+00
1.01848288e+00
1.01891669e+00
1.01578664e+00
1.01887718e+00
1.02093615e+00
1.01525979e+00
1.01510480e+00
1.01919747e+00
1.01776377e+00
1.01275314e+00
1.01812316e+00
1.01901337e+00
1.01095282e+00
1.01358950e+00
1.01735000e+00
1.06280090e+00
1.06481768e+00
1.04843752e+00
1.03760295e+00
1.05397229e+00
1.04654487e+00
1.04128436e+00
1.02996425e+00
1.03804285e+00
1.00737008e+00
1.02563816e+00
9.87896984e-01
9.95412333e-01
9.80531742e-01
9.43447516e-01
9.59730332e-01
9.10076827e+00
-2.51013376e+01
-5.88637928e+01
-1.26048235e+02
-3.80365802e+02
-8.12406728e+02
-1.76108620e+03
-3.62173600e+03
-6.88587243e+03
-1.26338574e+04
-2.19445465e+04
-3.63287330e+04
-5.76152664e+04
-8.71912583e+04
-1.26687503e+05
-1.76443457e+05
-2.35803898e+05
-3.04097161e+05
-3.75209862e+05
-4.50097606e+05
-5.15869839e+05
-5.77220803e+05
-6.19596464e+05
-6.48772309e+05
-6.57782012e+05
-6.48242313e+05
-6.25268585e+05
-5.84858707e+05
-5.38859602e+05
-4.82847285e+05
-4.24507398e+05
-3.66670969e+05
-3.05712767e+05
-2.54126977e+05
-1.99378282e+05
-1.57420972e+05
-1.15722567e+05
-8.47831649e+04
-5.82742148e+04
-3.87263493e+04
-2.45864427e+04
-1.47121478e+04
-8.38815291e+03
-4.50828709e+03
-2.27624892e+03
-1.05811922e+03
-4.80667547e+02
-1.91166560e+02
-6.29411829e+01
-3.27219973e+01
2.00342691e+00
1.38656295e+00
1.10897609e+00
1.05381102e+00
1.03109040e+00
1.03151004e+00
1.02185102e+00
1.00897468e+00
1.02419858e+00
1.02942532e+00
1.01244798e+00
1.01298467e+00
1.02516640e+00
1.02189651e+00
1.01789182e+00
1.01461371e+00
1.02481397e+00
1.02061821e+00
1.01400978e+00
1.02079645e+00
1.02743663e+00
1.01621362e+00
1.01418633e+00
1.02872290e+00
1.02035913e+00
1.01508789e+00
1.02451832e+00
1.01943071e+00
1.01566713e+00
1.02098414e+00
1.02621437e+00
1.01783854e+00
1.01182057e+00
1.02424829e+00
1.02585314e+00
1.01407135e+00
1.01662437e+00
1.02344092e+00
1.02237696e+00
1.01370419e+00
1.01836686e+00
1.02142310e+00
1.01699713e+00
1.01835149e+00
1.01925674e+00
1.02014736e+00
1.01863957e+00
1.01582881e+00
1.01883031e+00
1.01827063e+00
1.01630363e+00
1.01781858e+00
1.01848290e+00
1.01303201e+00
1.01567028e+00
1.02346137e+00
1.01579135e+00
1.00996089e+00
1.01891534e+00
1.02101858e+00
1.01512505e+00
1.04623623e+00
1.03780778e+00
1.05154277e+00
1.02783560e+00
1.03386182e+00
1.06354696e+00
1.03027885e+00
1.01877241e+00
1.04911740e+00
1.04217290e+00
1.02209078e+00
1.06448020e+00
1.06739440e+00
1.10790841e+00
1.19000362e+00
1.29307715e+00
1.06465460e+01
1.41375683e+01
-1.79586395e+02
-7.48484560e+02
-2.22914938e+03
-5.68013019e+03
-1.39351394e+04
-3.07302100e+04
-6.38719721e+04
-1.25996960e+05
-2.35010590e+05
-4.19493973e+05
-7.17126603e+05
-1.17721138e+06
-1.86246479e+06
-2.84002938e+06
-4.18733554e+06
-5.96736358e+06
-8.22758505e+06
-1.09963161e+07
-1.42028497e+07
-1.78110065e+07
-2.15733390e+07
-2.53534363e+07
-2.87935165e+07
-3.16646295e+07
-3.36706642e+07
-3.46001871e+07
-3.43759534e+07
-3.29609858e+07
-3.05210452e+07
-2.72636023e+07
-2.34651853e+07
-1.94913939e+07
-1.55498558e+07
-1.19791810e+07
-8.83857587e+06
-6.28872851e+06
-4.28546000e+06
-2.80267841e+06
-1.76064955e+06
-1.05704567e+06
-6.10496621e+05
-3.38656732e+05
-1.81449046e+05
-9.49684598e+04
-4.95144217e+04
-2.62801817e+04
-1.47194152e+04
-8.97381182e+03
-5.84780382e+03
-4.07159218e+03
-2.91387371e+03
-2.14835660e+03
-1.57556871e+03
-1.15279768e+03
-8.43030827e+02
-6.15430183e+02
-4.48989971e+02
-3.26938222e+02
-2.37708156e+02
-1.72420570e+02
-1.24747573e+02
-8.99743746e+01
-6.45294250e+01
-4.59927364e+01
-3.24832704e+01
-2.25973547e+01
-1.53139947e+01
-9.98753230e+00
-6.85579987e+00
-4.13210653e+00
-9.18302446e-01
1.01418846e+00
1.01867447e+00
1.02608869e+00
1.01621998e+00
1.01610514e+00
1.02556149e+00
1.02515007e+00
1.01290692e+00
1.01762953e+00
1.02798257e+00
1.02198362e+00
1.01311188e+00
1.02025274e+00
1.02660749e+00
1.01663773e+00
1.01582789e+00
1.02431025e+00
1.01901605e+00
1.01400005e+00
1.01927056e+00
1.02405915e+00
1.02063983e+00
1.01478550e+00
1.01860986e+00
1.01959837e+00
1.01919830e+00
1.01796983e+00
1.01578116e+00
1.01770746e+00
1.01627740e+00
1.02069112e+00
1.01947125e+00
1.01230122e+00
1.01432744e+00
1.02332638e+00
1.01977743e+00
1.01087246e+00
1.01513562e+00
1.02043558e+00
1.06352434e+00
1.03537452e+00
1.04727676e+00
1.05871485e+00
1.05430178e+00
1.03610618e+00
1.02419490e+00
1.05123159e+00
1.04349559e+00
1.03768102e+00
1.04894225e+00
1.07235443e+00
1.11418418e+00
1.12781248e+00
1.26078738e+00
1.76365249e+01
1.84136628e+01
-5.17027985e+02
-2.33247143e+03
-7.55545615e+03
-2.18122909e+04
-5.50143402e+04
-1.27202922e+05
-2.72955634e+05
-5.45980489e+05
-1.02835729e+06
-1.83243428e+06
-3.08879273e+06
-4.93993744e+06
-7.48415259e+06
-1.07043084e+07
-1.43734628e+07
-1.78644657e+07
-2.00632254e+07
-1.91013042e+07
-1.25841798e+07
3.80082498e+06
2.25468582e+07
1.89380891e+07
2.07371804e+07
2.37175337e+07
2.62299871e+07
2.80147988e+07
2.87875858e+07
2.85372529e+07
2.73298795e+07
2.39666144e+07
3.72452105e+07
4.24775703e+07
-1.32653103e+07
-2.24844822e+07
-2.17808510e+07
-2.38442154e+07
-2.20663118e+07
-1.66905466e+07
-1.27165872e+07
-9.47216398e+06
-6.01502791e+06
-4.09354729e+06
-2.66198848e+06
-1.56926829e+06
-9.17302719e+05
-5.25711629e+05
-2.98441686e+05
-1.74252678e+05
-1.05109885e+05
-6.62755865e+04
-4.39175269e+04
-3.00947224e+04
-2.09993775e+04
-1.47880607e+04
-1.04102908e+04
-7.31345870e+03
-5.12462170e+03
-3.58071633e+03
-2.49347586e+03
-1.73035720e+03
-1.19646400e+03
-8.23158952e+02
-5.63968557e+02
-3.84787039e+02
-2.59641705e+02
-1.74429362e+02
-1.17431743e+02
-7.51315076e+01
-4.89098469e+01
-3.74703415e+01
-1.01963060e+01
-3.51270161e+00
1.02216718e+00
1.01496245e+00
1.02108180e+00
1.02361704e+00
1.01805249e+00
1.01708310e+00
1.02365633e+00
1.02226243e+00
1.01819976e+00
1.01762916e+00
1.02422934e+00
1.02161326e+00
1.01543457e+00
1.02530878e+00
1.02392847e+00
1.01513035e+00
1.01515978e+00
1.02488966e+00
1.02400214e+00
1.01348096e+00
1.01838864e+00
1.02259823e+00
1.01671991e+00
1.02012126e+00
1.01969824e+00
1.01521934e+00
1.01615220e+00
1.02062781e+00
1.02283369e+00
1.01538280e+00
1.01232376e+00
1.02017951e+00
1.02373419e+00
1.01474247e+00
1.01347913e+00
1.02094668e+00
1.01651239e+00
1.01103986e+00
1.01831375e+00
1.05245559e+00
1.06033328e+00
1.03752162e+00
1.05647310e+00
1.04879135e+00
1.01747527e+00
1.03635854e+00
1.04420758e+00
1.01782828e+00
1.08521744e+00
1.14405657e+00
1.16846002e+00
1.33314515e+00
1.71449328e+00
3.82679990e+01
4.43986229e+01
-1.22312966e+03
-5.88429364e+03
-2.14412030e+04
-7.48169898e+04
-2.97936566e+05
-1.12616453e+06
-3.00732710e+06
-5.26907254e+06
-8.95048380e+06
-1.34426264e+07
-1.54002658e+07
-1.98350525e+07
-1.84205575e+07
-1.76554524e+07
-8.50946974e+06
8.86003896e+06
3.81496461e+07
6.60337427e+07
1.12279206e+08
1.81500460e+08
2.37461469e+08
3.26297014e+08
4.09296715e+08
4.90381415e+08
5.63642618e+08
6.25539421e+08
6.68748623e+08
6.90220769e+08
6.87808778e+08
6.77662866e+08
6.70942319e+08
6.21387600e+08
6.61079199e+08
4.95202090e+08
6.76437428e+08
4.61273666e+08
4.45398639e+08
2.96737554e+08
2.41744252e+08
1.23910421e+08
5.99162572e+07
1.81568999e+07
-1.34005117e+05
-8.38433373e+06
-6.84965986e+06
-4.46539526e+06
-2.94766135e+06
-1.87551819e+06
-1.13387874e+06
-6.83481040e+05
-4.11390013e+05
-2.53203947e+05
-1.61347904e+05
-1.05342836e+05
-6.98197872e+04
-4.66909872e+04
-3.12970387e+04
-2.09146856e+04
-1.39173084e+04
-9.19380709e+03
-6.03193451e+03
-3.91932481e+03
-2.52198969e+03
-1.60542277e+03
-1.00389071e+03
-6.00618571e+02
-4.12736933e+02
-2.78953224e+02
-9.44118599e+01
1.94863471e+01
5.65889232e+01
-3.64683606e+01
-5.89949885e+00
1.02358074e+00
1.01805538e+00
1.01370259e+00
1.02050402e+00
1.02315323e+00
1.01738982e+00
1.01909328e+00
1.02174795e+00
1.02124630e+00
1.01507362e+00
1.02057519e+00
1.02829067e+00
1.01738966e+00
1.01021283e+00
1.02194434e+00
1.03098470e+00
1.01530956e+00
1.01005287e+00
1.02474540e+00
1.02344907e+00
1.01708692e+00
1.01723500e+00
1.01799501e+00
1.01743106e+00
1.01957537e+00
1.02339797e+00
1.01463284e+00
1.01245496e+00
1.02026240e+00
1.02441724e+00
1.01753458e+00
1.01009472e+00
1.01725479e+00
1.02174425e+00
1.01474150e+00
1.01458457e+00
1.02018600e+00
1.01336658e+00
1.00935321e+00
1.03442495e+00
1.04548469e+00
1.04966313e+00
1.03781363e+00
1.01492423e+00
1.02460396e+00
1.02770089e+00
1.03004474e+00
1.10490991e+00
1.16836413e+00
1.17953712e+00
1.07109087e+00
3.39843271e+00
7.55020297e+01
8.38385402e+01
-2.49110748e+03
-1.27511458e+04
-4.68835232e+04
-1.69550048e+05
-7.02533786e+05
-2.46262730e+06
-4.49443899e+06
1.27578947e+05
2.15781869e+06
6.06130470e+06
1.26318732e+07
2.04928553e+07
3.69557592e+07
6.59958409e+07
1.10423997e+08
1.90601688e+08
2.89135395e+08
4.47708308e+08
6.49852500e+08
8.97751847e+08
1.20044286e+09
1.55307977e+09
1.94449398e+09
2.37002069e+09
2.79205465e+09
3.18620415e+09
3.51764500e+09
3.75370892e+09
3.87845060e+09
3.87071074e+09
3.71473190e+09
3.60792660e+09
3.25566669e+09
3.18448902e+09
2.88659727e+09
2.80798237e+09
2.35722152e+09
2.27168466e+09
1.84909078e+09
1.43271960e+09
1.00559757e+09
6.90816410e+08
3.62707782e+08
1.61453859e+08
5.63614877e+07
4.95430817e+06
-1.57851031e+06
-5.36691363e+06
-5.67462633e+06
-3.82416255e+06
-2.79972021e+06
-1.50662511e+06
-7.83887840e+05
-4.58609701e+05
-3.56889170e+05
-1.64826377e+05
-1.21243701e+05
-1.63120974e+04
3.39574834e+04
7.45232344e+04
5.70156312e+04
5.55667095e+04
3.04978869e+04
2.22630950e+04
3.94691483e+03
9.05866345e+03
-6.75557336e+02
-7.36030677e+03
-2.08231356e+02
1.36904251e+02
1.79266809e+02
1.45929627e+01
-4.53583601e+01
-8.47598228e+00
1.01331799e+00
1.02256124e+00
1.02097037e+00
1.01518653e+00
1.01772822e+00
1.01935923e+00
1.01972215e+00
1.02033460e+00
1.02192909e+00
1.02009227e+00
1.01602822e+00
1.01895805e+00
1.02741966e+00
1.02081254e+00
1.01100443e+00
1.02254923e+00
1.02750111e+00
1.01837466e+00
1.01573540e+00
1.02025610e+00
1.02186755e+00
1.01611355e+00
1.02093670e+00
1.02110328e+00
1.01270314e+00
1.02030253e+00
1.02478838e+00
1.01552018e+00
1.01330273e+00
1.02021137e+00
1.02294871e+00
1.01402583e+00
1.01124439e+00
1.02090711e+00
1.02190538e+00
1.01124420e+00
1.01211867e+00
1.02253313e+00
1.02002533e+00
1.03363241e+00
1.05077383e+00
1.05512038e+00
1.02899804e+00
1.02906704e+00
1.04639372e+00
1.07079837e+00
1.16078274e+00
1.14265477e+00
8.79383173e-01
6.71898668e-01
9.60524940e+00
1.41548675e+02
1.35123004e+02
-4.62798679e+03
-2.39997668e+04
-8.80517642e+04
-4.19276253e+05
-3.37090247e+06
-1.75698526e+07
-1.58762150e+07
1.82608292e+07
1.28123388e+07
1.51736407e+08
1.61021069e+08
3.13907917e+08
3.45324067e+08
4.59069361e+08
5.08329562e+08
7.49348034e+08
9.91469827e+08
1.46489872e+09
2.15263081e+09
3.03414887e+09
4.29477228e+09
5.65310789e+09
7.34057054e+09
9.10896174e+09
1.10915201e+10
1.30576250e+10
1.49081103e+10
1.66164674e+10
1.81458444e+10
2.40478999e+10
5.83138753e+10
1.58614986e+11
2.81355778e+11
4.82044141e+11
7.94454127e+11
8.16669263e+11
1.14427159e+12
8.66612989e+11
8.93267513e+11
5.80508602e+11
3.46875192e+11
2.05747620e+11
6.53699103e+10
1.27164410e+10
2.40417450e+09
7.76594904e+08
3.93891947e+08
1.22224593e+08
6.23829403e+07
-6.90594569e+06
2.99624446e+07
-1.03218619e+06
3.63830098e+07
-2.80494721e+07
-3.20316753e+05
-3.48485694e+06
-1.95477731e+06
-1.37593422e+06
-9.74547002e+05
-6.42383315e+05
-2.61806542e+05
-1.69904202e+05
-6.70774827e+04
6.24448577e+04
-4.22712079e+04
9.38650840e+04
-3.78449987e+04
1.98280636e+04
-2.01844481e+04
9.20734724e+03
-1.50376905e+03
3.47078039e+02
7.96628492e+01
-6.83245894e+01
-1.29326049e+01
1.01942160e+00
1.01522510e+00
1.01728338e+00
1.01501321e+00
1.01656172e+00
1.02215633e+00
1.01964802e+00
1.01421567e+00
1.01695552e+00
1.02508211e+00
1.02344861e+00
1.01141401e+00
1.01835892e+00
1.02983692e+00
1.01910010e+00
1.01135904e+00
1.02366238e+00
1.02801589e+00
1.01416779e+00
1.01345876e+00
1.02606855e+00
1.01913776e+00
1.01256465e+00
1.02260688e+00
1.02300328e+00
1.01332534e+00
1.01785708e+00
1.02430774e+00
1.01515422e+00
1.01167496e+00
1.01981085e+00
1.02403454e+00
1.01366881e+00
1.00889707e+00
1.02165380e+00
1.02486022e+00
1.01153658e+00
1.00887945e+00
1.02202117e+00
1.04020879e+00
1.06300375e+00
1.03035275e+00
1.02119079e+00
1.02309909e+00
1.10877236e+00
1.13282001e+00
9.53036922e-01
7.07803560e-01
8.16119446e-01
1.84951688e+01
2.26997680e+02
2.09517412e+02
-7.85147763e+03
-4.45208239e+04
-1.93926631e+05
-1.06967772e+06
-9.08232505e+06
-4.68665371e+07
6.04847608e+07
3.11774343e+08
2.27574637e+08
-2.34306820e+09
4.68641591e+09
3.14568457e+09
2.10909172e+09
5.33817371e+09
2.28237019e+10
-5.28115189e+09
3.86240983e+10
-1.19807805e+10
5.80276422e+10
-1.05229947e+09
3.31356173e+10
3.05973678e+10
2.86493071e+10
3.29286514e+10
3.72713180e+10
4.25531381e+10
4.46735059e+10
5.40676815e+10
3.80938301e+10
2.95199963e+10
9.67943008e+08
-3.24779453e+11
-6.49424296e+11