# vtk DataFile Version 2.0
LBM Flow Field - Timestep 180
ASCII
DATASET STRUCTURED_POINTS
DIMENSIONS 128 128 1
ORIGIN 0.0 0.0 0.0
SPACING 1.0 1.0 1.0
POINT_DATA 16384
SCALARS density double 1
LOOKUP_TABLE default
1.31015333e+00
1.28578667e+00
1.25688372e+00
1.22935519e+00
1.20239720e+00
1.17756802e+00
1.15373592e+00
1.13231842e+00
1.11237256e+00
1.09469242e+00
1.07890776e+00
1.06493982e+00
1.05314144e+00
1.04258890e+00
1.03426559e+00
1.02665702e+00
1.02111396e+00
1.01589630e+00
1.01240459e+00
1.00901890e+00
1.00692892e+00
1.00486422e+00
1.00366675e+00
1.00249302e+00
1.00183063e+00
1.00121404e+00
1.00085832e+00
1.00056130e+00
1.00037639e+00
1.00024572e+00
1.00015400e+00
1.00010123e+00
1.00005883e+00
1.00003885e+00
1.00002108e+00
1.00001370e+00
1.00000714e+00
1.00000437e+00
1.00000229e+00
1.00000125e+00
1.00000069e+00
1.00000032e+00
1.00000019e+00
1.00000008e+00
1.00000004e+00
1.00000002e+00
1.00000001e+00
1.00000000e+00
1.00000000e+00
1.00000000e+00
1.00000000e+00
1.00000000e+00
1.00000000e+00
1.00000000e+00
1.00000000e+00
1.00000000e+00
1.00000000e+00
1.00000000e+00
1.00000000e+00
1.00000000e+00
1.00000000e+00
1.00000000e+00
1.00000000e+00
1.00000000e+00
1.00000000e+00
1.00000000e+00
1.00000000e+00
1.00000000e+00
1.00000000e+00
1.00000000e+00
1.00000000e+00
1.00000000e+00
1.00000000e+00
1.00000000e+00
1.00000000e+00
1.00000000e+00
1.00000000e+00
1.00000000e+00
1.00000000e+00
1.00000000e+00
1.00000000e+00
1.00000000e+00
1.00000000e+00
1.00000000e+00
1.00000000e+00
1.00000000e+00
1.00000000e+00
1.00000000e+00
1.00000000e+00
1.00000000e+00
1.00000000e+00
1.00000000e+00
1.00000000e+00
1.00000000e+00
1.00000000e+00
1.00000000e+00
1.00000000e+00
1.00000000e+00
1.00000000e+00
1.00000000e+00
1.00000000e+00
1.00000000e+00
1.00000000e+00
1.00000000e+00
1.00000000e+00
1.00000000e+00
1.00000000e+00
1.00000000e+00
1.00000000e+00
1.00000000e+00
1.00000000e+00
1.00000000e+00
1.00000000e+00
1.00000000e+00
1.00000000e+00
1.00000000e+00
1.00000000e+00
1.00000000e+00
1.00000000e+00
1.00000000e+00
1.00000000e+00
1.00000000e+00
1.00000000e+00
1.00000000e+00
1.00000000e+00
1.00000000e+00
1.00000000e+00
1.00000000e+00
1.13267452e+00
1.10741981e+00
1.09201137e+00
1.09899291e+00
1.09829188e+00
1.09024157e+00
1.08834427e+00
1.08310538e+00
1.08479753e+00
1.08842921e+00
1.09341179e+00
1.09557809e+00
1.08679320e+00
1.09361711e+00
1.09562120e+00
1.09285247e+00
1.09242328e+00
1.09162880e+00
1.09396112e+00
1.09837204e+00
1.10266336e+00
1.10780000e+00
1.11087643e+00
1.12153961e+00
1.13089240e+00
1.13521661e+00
1.13846120e+00
1.14287693e+00
1.14316822e+00
1.13738475e+00
1.13265177e+00
1.13467288e+00
1.12267348e+00
1.11056711e+00
1.11334424e+00
1.11832290e+00
1.11145539e+00
1.10602494e+00
1.11400661e+00
1.11401200e+00
1.11404631e+00
1.11739514e+00
1.12446803e+00
1.12059180e+00
1.11809600e+00
1.12035347e+00
1.12636014e+00
1.12113284e+00
1.11919480e+00
1.12224860e+00
1.12103976e+00
1.11888459e+00
1.11643260e+00
1.11602729e+00
1.11904143e+00
1.11897385e+00
1.11373950e+00
1.11029124e+00
1.11438455e+00
1.11575035e+00
1.11069392e+00
1.11364305e+00
1.10870499e+00
1.10126827e+00
1.11032013e+00
1.10886290e+00
1.09694818e+00
1.09690117e+00
1.09537669e+00
1.09000568e+00
1.09632093e+00
1.09290379e+00
1.08578506e+00
1.08895615e+00
1.09728031e+00
1.09716691e+00
1.09680585e+00
1.09975776e+00
1.10430899e+00
1.10170278e+00
1.09851895e+00
1.09833314e+00
1.09634570e+00
1.08726116e+00
1.08226553e+00
1.08173698e+00
1.07527139e+00
1.07065343e+00
1.07179877e+00
1.06747603e+00
1.06361229e+00
1.06240820e+00
1.06202513e+00
1.06545392e+00
1.06129169e+00
1.05211638e+00
1.05479349e+00
1.05689264e+00
1.05461766e+00
1.05164020e+00
1.04368143e+00
1.03917981e+00
1.04582166e+00
1.04909778e+00
1.04364527e+00
1.03407227e+00
1.01771618e+00
1.00878464e+00
1.00005300e+00
1.00092567e+00
1.00446717e+00
9.98805996e-01
9.99667559e-01
9.98717741e-01
9.99376635e-01
1.00321129e+00
9.99405506e-01
9.98852951e-01
9.99498314e-01
9.99531562e-01
1.00199761e+00
1.00046467e+00
9.98592908e-01
9.99372562e-01
1.00038760e+00
1.00092979e+00
1.00004927e+00
9.99512098e-01
1.11154199e+00
1.10234909e+00
1.10620584e+00
1.09824195e+00
1.09442196e+00
1.09803619e+00
1.08249368e+00
1.08734881e+00
1.08881187e+00
1.08476399e+00
1.09670194e+00
1.08495978e+00
1.09000768e+00
1.10057319e+00
1.09618373e+00
1.08869940e+00
1.09182275e+00
1.10089589e+00
1.10092156e+00
1.10339132e+00
1.10528880e+00
1.11404244e+00
1.12657037e+00
1.13236469e+00
1.13175316e+00
1.13577488e+00
1.13888335e+00
1.14116466e+00
1.13430127e+00
1.12108570e+00
1.11883478e+00
1.12573791e+00
1.12072274e+00
1.11531462e+00
1.11487908e+00
1.11789535e+00
1.11739035e+00
1.11723506e+00
1.12754241e+00
1.12481206e+00
1.11813944e+00
1.11864441e+00
1.11890373e+00
1.11660591e+00
1.12397098e+00
1.11413923e+00
1.11122462e+00
1.11164636e+00
1.10792292e+00
1.11229591e+00
1.11092117e+00
1.10644315e+00
1.10955722e+00
1.10223376e+00
1.09951601e+00
1.10380696e+00
1.10006393e+00
1.10272107e+00
1.10499574e+00
1.09597411e+00
1.09414810e+00
1.10357858e+00
1.10551260e+00
1.10311454e+00
1.10463995e+00
1.10041231e+00
1.09601838e+00
1.10573251e+00
1.10873600e+00
1.09355853e+00
1.09261954e+00
1.09776956e+00
1.09286603e+00
1.09261108e+00
1.09190283e+00
1.09050430e+00
1.09378213e+00
1.09558135e+00
1.09395393e+00
1.09832685e+00
1.10100899e+00
1.09891716e+00
1.09169562e+00
1.08973624e+00
1.09096269e+00
1.08996519e+00
1.07803214e+00
1.06917111e+00
1.07374160e+00
1.07457032e+00
1.06394798e+00
1.05938589e+00
1.06251236e+00
1.06937382e+00
1.06760203e+00
1.04938001e+00
1.04399137e+00
1.05630321e+00
1.06715249e+00
1.06099989e+00
1.04532508e+00
1.03514922e+00
1.03358301e+00
1.04675275e+00
1.05164012e+00
1.04416849e+00
1.02863320e+00
1.01136121e+00
1.00535635e+00
9.98032908e-01
1.00164630e+00
1.00507476e+00
9.98395449e-01
9.99631301e-01
9.97716077e-01
1.00011398e+00
1.00362314e+00
9.99223006e-01
9.98506503e-01
9.98570470e-01
9.99774487e-01
1.00263922e+00
1.00088321e+00
9.98682373e-01
9.98888815e-01
1.00003107e+00
1.00123307e+00
1.00042269e+00
1.09840678e+00
1.10823698e+00
1.10640412e+00
1.09814252e+00
1.10478187e+00
1.08791026e+00
1.09026659e+00
1.08614877e+00
1.08440723e+00
1.10064193e+00
1.08862798e+00
1.08204625e+00
1.09990754e+00
1.10161537e+00
1.09087167e+00
1.09402380e+00
1.10405654e+00
1.09933067e+00
1.10510013e+00
1.10722373e+00
1.11832514e+00
1.12997188e+00
1.13178280e+00
1.13612733e+00
1.13586027e+00
1.13343078e+00
1.12776887e+00
1.12654272e+00
1.11918296e+00
1.11007453e+00
1.11717137e+00
1.12260867e+00
1.11186563e+00
1.11577468e+00
1.12537008e+00
1.13267836e+00
1.13084530e+00
1.12350021e+00
1.12816371e+00
1.12541019e+00
1.11879017e+00
1.12202283e+00
1.11791204e+00
1.10756542e+00
1.11110010e+00
1.10516221e+00
1.10820178e+00
1.10727941e+00
1.09837166e+00
1.10355699e+00
1.10213435e+00
1.09483496e+00
1.10146184e+00
1.09277382e+00
1.09286034e+00
1.10015317e+00
1.09058907e+00
1.09032749e+00
1.09051986e+00
1.08778886e+00
1.09446154e+00
1.09785628e+00
1.08904601e+00
1.08899730e+00
1.09682649e+00
1.10632965e+00
1.09907708e+00
1.09605894e+00
1.10472158e+00
1.10372712e+00
1.10328138e+00
1.10334396e+00
1.09218697e+00
1.09624936e+00
1.09852861e+00
1.08475462e+00
1.08633873e+00
1.09792974e+00
1.08996432e+00
1.08149925e+00
1.09566084e+00
1.10437509e+00
1.09042914e+00
1.08425790e+00
1.09473085e+00
1.09823736e+00
1.07891716e+00
1.06467000e+00
1.07996155e+00
1.08870927e+00
1.06517499e+00
1.05117348e+00
1.05890577e+00
1.07888925e+00
1.07745913e+00
1.04847292e+00
1.03485554e+00
1.05088322e+00
1.07358220e+00
1.07249735e+00
1.04623820e+00
1.02678059e+00
1.03178424e+00
1.04418385e+00
1.06052340e+00
1.05360576e+00
1.03502140e+00
1.01737589e+00
1.00590773e+00
1.00255668e+00
9.96580810e-01
1.00146447e+00
1.00253705e+00
9.99590707e-01
1.00043590e+00
9.97535709e-01
1.00075456e+00
1.00252880e+00
9.99986312e-01
9.99642120e-01
9.97866987e-01
9.99214033e-01
1.00176567e+00
1.00105859e+00
9.99835865e-01
9.99004054e-01
9.99749094e-01
1.00089065e+00
1.10693895e+00
1.10588542e+00
1.09797052e+00
1.09840078e+00
1.10042303e+00
1.08898268e+00
1.09571975e+00
1.09686830e+00
1.09735331e+00
1.09056706e+00
1.08730828e+00
1.10434789e+00
1.09742247e+00
1.08907055e+00
1.09320642e+00
1.09963989e+00
1.10295268e+00
1.10508589e+00
1.11932098e+00
1.12041926e+00
1.13019154e+00
1.13519140e+00
1.13989265e+00
1.13768250e+00
1.12654439e+00
1.12382209e+00
1.12060095e+00
1.11022698e+00
1.11182282e+00
1.10992604e+00
1.11279714e+00
1.11751188e+00
1.11634508e+00
1.13229996e+00
1.13390104e+00
1.12546876e+00
1.11946190e+00
1.12589135e+00
1.13118737e+00
1.12410351e+00
1.11217229e+00
1.11509532e+00
1.11538290e+00
1.11197930e+00
1.11039980e+00
1.10830911e+00
1.11218224e+00
1.10620452e+00
1.10114875e+00
1.10751701e+00
1.10431092e+00
1.09554360e+00
1.10503667e+00
1.09970651e+00
1.09945186e+00
1.10120010e+00
1.09379702e+00
1.09606344e+00
1.10304523e+00
1.09905997e+00
1.09259535e+00
1.09140848e+00
1.09792098e+00
1.09832418e+00
1.09178533e+00
1.09535058e+00
1.09908920e+00
1.09833325e+00
1.10509711e+00
1.09963624e+00
1.09832072e+00
1.10826908e+00
1.10144091e+00
1.09629920e+00
1.10032422e+00
1.08912482e+00
1.08275657e+00
1.09276920e+00
1.08858651e+00
1.07497395e+00
1.08726827e+00
1.10332117e+00
1.08841181e+00
1.07777966e+00
1.09456026e+00
1.11002469e+00
1.08779572e+00
1.05854564e+00
1.07654249e+00
1.10118273e+00
1.07542759e+00
1.04602582e+00
1.05094361e+00
1.07917278e+00
1.09033976e+00
1.05616890e+00
1.02811760e+00
1.04477326e+00
1.07617035e+00
1.08045307e+00
1.05359117e+00
1.02099187e+00
1.02214367e+00
1.04393464e+00
1.06249439e+00
1.06565301e+00
1.04204744e+00
1.02201551e+00
1.00976155e+00
1.00478110e+00
1.00159109e+00
9.95684497e-01
1.00066673e+00
1.00102112e+00
1.00105240e+00
1.00028281e+00
9.96514926e-01
1.00016559e+00
1.00187548e+00
1.00164520e+00
1.00082454e+00
9.97649735e-01
9.98466757e-01
1.00081124e+00
1.00130068e+00
1.00053941e+00
9.99167830e-01
9.99562992e-01
1.10814705e+00
1.10211776e+00
1.09194223e+00
1.10291343e+00
1.09771553e+00
1.10072295e+00
1.09867228e+00
1.09698110e+00
1.09204671e+00
1.09368969e+00
1.10077663e+00
1.09003524e+00
1.09530186e+00
1.09747667e+00
1.09218959e+00
1.10731013e+00
1.11352367e+00
1.11785281e+00
1.12247563e+00
1.13546093e+00
1.14337311e+00
1.13789555e+00
1.13035750e+00
1.12334139e+00
1.12218448e+00
1.11820253e+00
1.10754854e+00
1.10694645e+00
1.11351518e+00
1.11116805e+00
1.12181440e+00
1.12538083e+00
1.11905381e+00
1.12013901e+00
1.12491103e+00
1.12545175e+00
1.11991392e+00
1.11954961e+00
1.11515998e+00
1.10895509e+00
1.11665726e+00
1.12077997e+00
1.11298905e+00
1.11512394e+00
1.11789179e+00
1.11862389e+00
1.11838594e+00
1.11064327e+00
1.11477640e+00
1.11674289e+00
1.11199388e+00
1.10893634e+00
1.11613293e+00
1.10978843e+00
1.10493486e+00
1.11259553e+00
1.11669319e+00
1.11026154e+00
1.10887625e+00
1.11152097e+00
1.10532269e+00
1.10958077e+00
1.10929838e+00
1.10383280e+00
1.10152370e+00
1.10068731e+00
1.09706779e+00
1.09727155e+00
1.09719584e+00
1.10009968e+00
1.09850232e+00
1.09776191e+00
1.09456406e+00
1.10058645e+00
1.10150140e+00
1.08863359e+00
1.08558719e+00
1.09794853e+00
1.08962872e+00
1.06900232e+00
1.07908149e+00
1.09945603e+00
1.08764412e+00
1.07107971e+00
1.08860251e+00
1.11281052e+00
1.09665389e+00
1.06033433e+00
1.07300180e+00
1.10611452e+00
1.08730375e+00
1.04826307e+00
1.04952998e+00
1.07751023e+00
1.08866813e+00
1.06055709e+00
1.02838449e+00
1.04243733e+00
1.08061263e+00
1.08937136e+00
1.05565591e+00
1.02194583e+00
1.01476681e+00
1.04006248e+00
1.06655033e+00
1.07267104e+00
1.05265536e+00
1.02353693e+00
1.01124071e+00
1.00304994e+00
1.00432785e+00
1.00189887e+00
9.97140278e-01
1.00040176e+00
1.00014956e+00
1.00180831e+00
1.00071433e+00
9.97357880e-01
9.98673344e-01
9.99811259e-01
1.00195112e+00
1.00192697e+00
9.99219999e-01
9.98488002e-01
9.99472452e-01
1.00088215e+00
1.00081947e+00
9.99638082e-01
1.09784520e+00
1.10277741e+00
1.10294017e+00
1.10330721e+00
1.10016610e+00
1.09872124e+00
1.09479841e+00
1.09383663e+00
1.09124133e+00
1.10287318e+00
1.09143812e+00
1.09500061e+00
1.10166371e+00
1.09519823e+00
1.10753211e+00
1.11744861e+00
1.11393557e+00
1.12375345e+00
1.14103354e+00
1.14288908e+00
1.13266134e+00
1.13090555e+00
1.12693316e+00
1.12259328e+00
1.11160389e+00
1.10826096e+00
1.10913910e+00
1.11319159e+00
1.11386709e+00
1.12248004e+00
1.12310809e+00
1.11464977e+00
1.12019771e+00
1.12997957e+00
1.11707633e+00
1.10676181e+00
1.10590776e+00
1.11712508e+00
1.11659357e+00
1.10660803e+00
1.11668595e+00
1.12602179e+00
1.11518532e+00
1.11984804e+00
1.12205278e+00
1.12051731e+00
1.12077693e+00
1.11697242e+00
1.11689804e+00
1.11672112e+00
1.11341973e+00
1.11314179e+00
1.11520590e+00
1.11697741e+00
1.11558891e+00
1.11922930e+00
1.11845687e+00
1.11201532e+00
1.11545164e+00
1.12373670e+00
1.11442890e+00
1.11583360e+00
1.11013235e+00
1.10287138e+00
1.10861608e+00
1.10313654e+00
1.10076555e+00
1.10352508e+00
1.08814648e+00
1.08589435e+00
1.10028553e+00
1.09606038e+00
1.08635722e+00
1.09527192e+00
1.10330038e+00
1.08790712e+00
1.08429077e+00
1.09922741e+00
1.09362467e+00
1.07081100e+00
1.07895636e+00
1.09804528e+00
1.08480582e+00
1.06547647e+00
1.08070618e+00
1.10711373e+00
1.09983876e+00
1.07074413e+00
1.07208580e+00
1.10323330e+00
1.09371384e+00
1.05451518e+00
1.05222175e+00
1.08164380e+00
1.09072297e+00
1.05878467e+00
1.02995162e+00
1.04079721e+00
1.07699549e+00
1.09256472e+00
1.06025769e+00
1.02299100e+00
1.01587737e+00
1.03525982e+00
1.06881574e+00
1.08069730e+00
1.06314452e+00
1.03175933e+00
1.01026830e+00
1.00339708e+00
9.99069809e-01
1.00378295e+00
1.00113719e+00
9.97973729e-01
9.99243754e-01
9.99562802e-01
1.00308514e+00
1.00160196e+00
9.98846817e-01
9.98060906e-01
9.98165484e-01
1.00120017e+00
1.00204220e+00
1.00028202e+00
9.99010285e-01
9.99157335e-01
1.00052316e+00
1.00066992e+00
1.09966831e+00
1.09459307e+00
1.10310877e+00
1.09754362e+00
1.10190726e+00
1.09034896e+00
1.09578037e+00
1.09855813e+00
1.09784768e+00
1.10168629e+00
1.08926004e+00
1.10277102e+00
1.09578697e+00
1.11055195e+00
1.11587500e+00
1.11925703e+00
1.13042595e+00
1.13991716e+00
1.14467229e+00
1.13498903e+00
1.13309125e+00
1.12605321e+00
1.11350679e+00
1.10963403e+00
1.10611174e+00
1.11459228e+00
1.11542604e+00
1.11664795e+00
1.12386898e+00
1.12477266e+00
1.12375963e+00
1.11738430e+00
1.11734740e+00
1.11233319e+00
1.09825615e+00
1.10806726e+00
1.11277909e+00
1.11218194e+00
1.11114970e+00
1.11213709e+00
1.12151673e+00
1.12682040e+00
1.10994212e+00
1.12049091e+00
1.12129963e+00
1.10887731e+00
1.10812665e+00
1.11031784e+00
1.10620619e+00
1.11017287e+00
1.10862172e+00
1.11076249e+00
1.11242340e+00
1.10979039e+00
1.11009516e+00
1.10966389e+00
1.10716849e+00
1.11095821e+00
1.10955702e+00
1.10483448e+00
1.10256386e+00
1.10263272e+00
1.10267716e+00
1.10798035e+00
1.11054144e+00
1.09055589e+00
1.08937799e+00
1.10330194e+00
1.09318426e+00
1.08510154e+00
1.09310776e+00
1.08621529e+00
1.07742086e+00
1.08762769e+00
1.09885575e+00
1.08756967e+00
1.08072553e+00
1.09937107e+00
1.10082677e+00
1.07267116e+00
1.07300139e+00
1.09971920e+00
1.08951541e+00
1.06320672e+00
1.07690994e+00
1.10093523e+00
1.09138473e+00
1.07397359e+00
1.07969573e+00
1.10309930e+00
1.09347375e+00
1.05650489e+00
1.05626324e+00
1.08546486e+00
1.09483822e+00
1.06049990e+00
1.02887749e+00
1.04168031e+00
1.08170124e+00
1.09402946e+00
1.06249946e+00
1.02108807e+00
1.01189631e+00
1.03351840e+00
1.06681613e+00
1.08813810e+00
1.07033166e+00
1.04041141e+00
1.01548945e+00
1.00603061e+00
1.00019504e+00
9.98324025e-01
1.00273998e+00
1.00028204e+00
9.99378039e-01
9.98368871e-01
9.98009039e-01
1.00189733e+00
1.00215811e+00
1.00130633e+00
9.99106104e-01
9.97517785e-01
9.99496907e-01
1.00140415e+00
1.00118509e+00
9.99706397e-01
9.99217957e-01
1.00007799e+00
1.09791676e+00
1.10226925e+00
1.09479635e+00
1.10151232e+00
1.09508451e+00
1.09485121e+00
1.10506138e+00
1.09497105e+00
1.09820311e+00
1.09369557e+00
1.09672086e+00
1.10278474e+00
1.10968890e+00
1.11529807e+00
1.12265836e+00
1.14025951e+00
1.13661410e+00
1.14297009e+00
1.13617470e+00
1.12954671e+00
1.11801769e+00
1.11251214e+00
1.11125813e+00
1.11238423e+00
1.11584686e+00
1.11687363e+00
1.12021140e+00
1.13081435e+00
1.12650490e+00
1.11652450e+00
1.11667358e+00
1.10709249e+00
1.11030199e+00
1.10888512e+00
1.10300860e+00
1.10856587e+00
1.11743212e+00
1.11357417e+00
1.11418807e+00
1.11825191e+00
1.12115163e+00
1.11370420e+00
1.09905994e+00
1.10690629e+00
1.10475281e+00
1.09155171e+00
1.09921311e+00
1.10742759e+00
1.09847894e+00
1.10441073e+00
1.10170761e+00
1.10318982e+00
1.10854806e+00
1.10264227e+00
1.10222037e+00
1.10549146e+00
1.09324499e+00
1.09906842e+00
1.09352200e+00
1.08510414e+00
1.09693732e+00
1.09676978e+00
1.08263059e+00
1.08672840e+00
1.09308208e+00
1.08929099e+00
1.09269761e+00
1.09805104e+00
1.08573118e+00
1.07927342e+00
1.08974106e+00
1.08962325e+00
1.07875324e+00
1.07842922e+00
1.08674530e+00
1.08248980e+00
1.07730251e+00
1.09139566e+00
1.10062187e+00
1.08095940e+00
1.07295417e+00
1.09344861e+00
1.09239674e+00
1.06572949e+00
1.07430787e+00
1.09836553e+00
1.08657349e+00
1.06866609e+00
1.07959354e+00
1.10810113e+00
1.09870362e+00
1.05960433e+00
1.05451016e+00
1.08878885e+00
1.09715416e+00
1.06389222e+00
1.03081334e+00
1.03908446e+00
1.08343442e+00
1.09921172e+00
1.06524204e+00
1.02412598e+00
1.00972395e+00
1.03215339e+00
1.06794675e+00
1.09082716e+00
1.07685452e+00
1.04248614e+00
1.01969905e+00
1.00624777e+00
1.00401139e+00
9.99178514e-01
9.98481311e-01
1.00287999e+00
1.00136477e+00
1.00071185e+00
9.97813599e-01
9.97387825e-01
9.99709886e-01
1.00142158e+00
1.00233917e+00
1.00038836e+00
9.98426847e-01
9.98886586e-01
1.00044258e+00
1.00104733e+00
1.00003957e+00
9.99555694e-01
1.10402909e+00
1.10005738e+00
1.09825558e+00
1.10318917e+00
1.09173357e+00
1.10494007e+00
1.09501159e+00
1.09364216e+00
1.09795277e+00
1.09603365e+00
1.10659197e+00
1.10922814e+00
1.11817329e+00
1.12577898e+00
1.14230816e+00
1.13369985e+00
1.14202923e+00
1.14140835e+00
1.12418441e+00
1.11620959e+00
1.11209156e+00
1.11547759e+00
1.11246153e+00
1.11975993e+00
1.11967090e+00
1.12329071e+00
1.13027296e+00
1.12445359e+00
1.11718979e+00
1.11263572e+00
1.10652131e+00
1.10785256e+00
1.10858878e+00
1.10580432e+00
1.10666339e+00
1.11856574e+00
1.12126634e+00
1.11462417e+00
1.11347761e+00
1.11264897e+00
1.10297192e+00
1.09732488e+00
1.09388131e+00
1.09986301e+00
1.09627115e+00
1.09020824e+00
1.09836352e+00
1.10391065e+00
1.09352876e+00
1.10595123e+00
1.10682916e+00
1.10243371e+00
1.10586701e+00
1.09659458e+00
1.09332321e+00
1.10034989e+00
1.08662126e+00
1.09187181e+00
1.09554335e+00
1.08133182e+00
1.08662075e+00
1.08687530e+00
1.07936089e+00
1.08521328e+00
1.09056770e+00
1.08289382e+00
1.08124681e+00
1.08853082e+00
1.08814716e+00
1.08411919e+00
1.09229401e+00
1.08671215e+00
1.07090267e+00
1.08032309e+00
1.09318457e+00
1.07635292e+00
1.06407066e+00
1.08610463e+00
1.09739462e+00
1.08024661e+00
1.07499883e+00
1.09402839e+00
1.09170545e+00
1.06661373e+00
1.07201812e+00
1.09703734e+00
1.08723907e+00
1.06487508e+00
1.07242430e+00
1.10511293e+00
1.10302818e+00
1.06401729e+00
1.05564118e+00
1.08963756e+00
1.10287235e+00
1.06816127e+00
1.03199389e+00
1.03658684e+00
1.07988987e+00
1.10404001e+00
1.06964449e+00
1.02592405e+00
1.01003541e+00
1.02709231e+00
1.06969897e+00
1.09692812e+00
1.08891706e+00
1.04803094e+00
1.01951507e+00
1.00757669e+00
1.00132850e+00
1.00199500e+00
9.98348571e-01
9.98341736e-01
1.00072835e+00
1.00203191e+00
1.00277513e+00
9.99819720e-01
9.97980055e-01
9.97854823e-01
9.99519903e-01
1.00205167e+00
1.00158931e+00
9.99458243e-01
9.98721672e-01
9.99930265e-01
1.00073923e+00
1.00021784e+00
1.10107013e+00
1.08751314e+00
1.10825765e+00
1.09472387e+00
1.09739980e+00
1.09868671e+00
1.09818767e+00
1.10048744e+00
1.09819330e+00
1.10972531e+00
1.10854160e+00
1.11919582e+00
1.12397696e+00
1.13774934e+00
1.13740210e+00
1.13984676e+00
1.14560433e+00
1.12125156e+00
1.12031294e+00
1.11297779e+00
1.11760133e+00
1.11212190e+00
1.11536123e+00
1.12662204e+00
1.12372132e+00
1.12881149e+00
1.12364548e+00
1.11457624e+00
1.11133688e+00
1.10689368e+00
1.10792162e+00
1.10775644e+00
1.10630663e+00
1.10989154e+00
1.12228662e+00
1.12349336e+00
1.10828062e+00
1.10377635e+00
1.10895265e+00
1.10348814e+00
1.09602806e+00
1.09289945e+00
1.09126070e+00
1.09953038e+00
1.09991522e+00
1.09765043e+00
1.10680795e+00
1.11617629e+00
1.10611800e+00
1.10771491e+00
1.10345264e+00
1.09796556e+00
1.09899805e+00
1.09422183e+00
1.09311700e+00
1.09847098e+00
1.08438028e+00
1.08894237e+00
1.09805021e+00
1.08446539e+00
1.08863404e+00
1.09767702e+00
1.08786087e+00
1.08685064e+00
1.09221149e+00
1.08398592e+00
1.07991582e+00
1.09657028e+00
1.09096203e+00
1.07353164e+00
1.09177213e+00
1.09979724e+00
1.07138777e+00
1.07509913e+00
1.09631352e+00
1.08264500e+00
1.06179704e+00
1.07805379e+00
1.09125699e+00
1.07664928e+00
1.07224798e+00
1.09237921e+00
1.09338586e+00
1.06845781e+00
1.07031448e+00
1.09356186e+00
1.08832160e+00
1.06448647e+00
1.06859710e+00
1.09740742e+00
1.10663897e+00
1.07066794e+00
1.05616728e+00
1.08612152e+00
1.10358348e+00
1.07477672e+00
1.03794820e+00
1.03970305e+00
1.07625070e+00
1.10247513e+00
1.07536604e+00
1.02859837e+00
1.01062573e+00
1.02260512e+00
1.06361022e+00
1.10080877e+00
1.09659478e+00
1.05961956e+00
1.02190366e+00
1.00856815e+00
1.00282305e+00
1.00134168e+00
1.00282250e+00
9.97491848e-01
9.97493318e-01
9.98513381e-01
1.00061568e+00
1.00278401e+00
1.00171420e+00
9.99827697e-01
9.98158237e-01
9.98414545e-01
1.00051468e+00
1.00158003e+00
1.00031938e+00
9.99233828e-01
9.99817700e-01
1.00030602e+00
1.09106768e+00
1.10383102e+00
1.09805164e+00
1.09790988e+00
1.10141137e+00
1.09319522e+00
1.10137519e+00
1.09937527e+00
1.11277053e+00
1.10820168e+00
1.11046479e+00
1.13367702e+00
1.13682195e+00
1.14288146e+00
1.14320738e+00
1.14150127e+00
1.12224166e+00
1.11841360e+00
1.11644208e+00
1.10858623e+00
1.11621739e+00
1.11984513e+00
1.12640238e+00
1.12730988e+00
1.13039468e+00
1.12201190e+00
1.11455714e+00
1.10788397e+00
1.10480311e+00
1.10863975e+00
1.10771049e+00
1.10817394e+00
1.12064356e+00
1.11923943e+00
1.11448172e+00
1.11457921e+00
1.10750002e+00
1.10185746e+00
1.10277807e+00
1.09166546e+00
1.09143620e+00
1.09694510e+00
1.10222518e+00
1.11177337e+00
1.10851248e+00
1.10830727e+00
1.11760516e+00
1.11271106e+00
1.10036314e+00
1.10167604e+00
1.09987456e+00
1.09896730e+00
1.09314581e+00
1.08562668e+00
1.09105717e+00
1.09633738e+00
1.08599969e+00
1.09168342e+00
1.10219323e+00
1.08886041e+00
1.09144968e+00
1.10449333e+00
1.09092708e+00
1.08420306e+00
1.09884936e+00
1.09410252e+00
1.08229156e+00
1.09445585e+00
1.08979198e+00
1.07239833e+00
1.09455670e+00
1.10497423e+00
1.07627484e+00
1.07518885e+00
1.09631843e+00
1.08627843e+00
1.06584191e+00
1.07636353e+00
1.08743241e+00
1.07244170e+00
1.06776423e+00
1.08901032e+00
1.09463927e+00
1.07099354e+00
1.06756705e+00
1.09037801e+00
1.08927504e+00
1.06436511e+00
1.06637440e+00
1.09352998e+00
1.09870319e+00
1.07419186e+00
1.06160290e+00
1.08671341e+00
1.10528019e+00
1.07725586e+00
1.04170054e+00
1.03984361e+00
1.07664784e+00
1.10180429e+00
1.07986876e+00
1.03613458e+00
1.01155265e+00
1.02380470e+00
1.05918470e+00
1.10127564e+00
1.10071284e+00
1.06531039e+00
1.02848103e+00
1.00655923e+00
1.00369154e+00
9.99864455e-01
1.00173408e+00
1.00350562e+00
1.00072687e+00
9.98688122e-01
9.97032215e-01
9.98238528e-01
1.00091088e+00
1.00218005e+00
1.00169119e+00
9.99314678e-01
9.98156210e-01
9.99667556e-01
1.00112165e+00
1.00050136e+00
9.99591399e-01
9.99750585e-01
1.10304603e+00
1.10412112e+00
1.09587858e+00
1.10218403e+00
1.08968240e+00
1.10555245e+00
1.09958039e+00
1.10447868e+00
1.10675587e+00
1.11110736e+00
1.13516527e+00
1.14043142e+00
1.14678183e+00
1.14323931e+00
1.13832361e+00
1.12346644e+00
1.11633802e+00
1.11651827e+00
1.11018758e+00
1.11922429e+00
1.12593945e+00
1.12819291e+00
1.12295634e+00
1.13044597e+00
1.12264660e+00
1.11074291e+00
1.10456577e+00
1.10307573e+00
1.10876978e+00
1.11028787e+00
1.11694766e+00
1.11686291e+00
1.11691619e+00
1.11879530e+00
1.11431077e+00
1.10905233e+00
1.09589657e+00
1.09208816e+00
1.10593515e+00
1.09823884e+00
1.09875349e+00
1.10942817e+00
1.11219213e+00
1.11358429e+00
1.10829068e+00
1.10817386e+00
1.11096723e+00
1.09505564e+00
1.09320385e+00
1.09902444e+00
1.08636390e+00
1.08643521e+00
1.09297477e+00
1.08859323e+00
1.09163186e+00
1.09467987e+00
1.08819397e+00
1.08994723e+00
1.09957290e+00
1.08759412e+00
1.08316289e+00
1.09652120e+00
1.08881692e+00
1.08799281e+00
1.09862750e+00
1.08477677e+00
1.07861085e+00
1.09736585e+00
1.08850633e+00
1.07047689e+00
1.08801394e+00
1.10055523e+00
1.07917115e+00
1.07419301e+00
1.09666104e+00
1.09573248e+00
1.07109527e+00
1.07514597e+00
1.09062749e+00
1.07481598e+00
1.06151383e+00
1.08102931e+00
1.09153988e+00
1.07427572e+00
1.06962432e+00
1.08709760e+00
1.08841471e+00
1.06530508e+00
1.06079627e+00
1.08951099e+00
1.09789204e+00
1.07289913e+00
1.06259822e+00
1.08374388e+00
1.10711174e+00
1.08358360e+00
1.04695923e+00
1.04018215e+00
1.07418864e+00
1.10422837e+00
1.07933911e+00
1.03860543e+00
1.01401142e+00
1.02243364e+00
1.06117973e+00
1.10359275e+00
1.10963431e+00
1.06884749e+00
1.03220205e+00
1.01154125e+00
1.00132797e+00
9.99543338e-01
9.97289946e-01
1.00038280e+00
1.00238019e+00
1.00257892e+00
1.00139956e+00
9.98480062e-01
9.97780992e-01
9.98703363e-01
1.00063197e+00
1.00200980e+00
1.00070897e+00
9.98847725e-01
9.99292180e-01
1.00048158e+00
1.00037349e+00
9.99897383e-01
1.10025057e+00
1.09019028e+00
1.10457846e+00
1.09303244e+00
1.09634042e+00
1.10546551e+00
1.09786732e+00
1.10988663e+00
1.11380055e+00
1.13641133e+00
1.13891744e+00
1.14460809e+00
1.14130866e+00
1.13710467e+00
1.12992315e+00
1.11811902e+00
1.11236136e+00
1.11168294e+00
1.12425804e+00
1.12279666e+00
1.13045266e+00
1.12693821e+00
1.12557075e+00
1.12305032e+00
1.10561530e+00
1.10947053e+00
1.10413881e+00
1.11106227e+00
1.11460992e+00
1.11338963e+00
1.12155027e+00
1.11636384e+00
1.11555806e+00
1.11734000e+00
1.09822936e+00
1.09856037e+00
1.10444417e+00
1.09935107e+00
1.10559155e+00
1.10075811e+00
1.10704873e+00
1.11898128e+00
1.10999869e+00
1.10430057e+00
1.09879485e+00
1.09717763e+00
1.09924747e+00
1.08176948e+00
1.08171706e+00
1.09582190e+00
1.08227204e+00
1.08418553e+00
1.09725872e+00
1.08967734e+00
1.08903198e+00
1.09888926e+00
1.09175288e+00
1.08232794e+00
1.09032785e+00
1.08733446e+00
1.08190575e+00
1.09106372e+00
1.07584322e+00
1.07486502e+00
1.09188928e+00
1.07576261e+00
1.07192893e+00
1.09927687e+00
1.09235589e+00
1.06385749e+00
1.07286458e+00
1.09453912e+00
1.08695846e+00
1.07433017e+00
1.08741147e+00
1.09207067e+00
1.07666025e+00
1.07785543e+00
1.09129015e+00
1.07866149e+00
1.06390130e+00
1.07782805e+00
1.08693091e+00
1.07101459e+00
1.06909180e+00
1.08700725e+00
1.08924671e+00
1.06551010e+00
1.06324305e+00
1.08424408e+00
1.09434551e+00
1.07258147e+00
1.05824011e+00
1.08229004e+00
1.10782186e+00
1.09029264e+00
1.04919735e+00
1.04204830e+00
1.07063540e+00
1.10633107e+00
1.08973260e+00
1.03854032e+00
1.01533308e+00
1.01787143e+00
1.05599508e+00
1.10457252e+00
1.11615610e+00
1.07910280e+00
1.03237164e+00
1.01457898e+00
1.00514360e+00
1.00186378e+00
1.00031389e+00
9.96885849e-01
9.97320168e-01
9.99709040e-01
1.00177078e+00
1.00278206e+00
1.00098508e+00
9.98788250e-01
9.98028888e-01
9.99418133e-01
1.00129150e+00
1.00107407e+00
9.99523741e-01
9.99452331e-01
1.00018690e+00
1.00019806e+00
1.09359257e+00
1.10156274e+00
1.10000709e+00
1.09334549e+00
1.10635974e+00
1.10002650e+00
1.10833779e+00
1.11476345e+00
1.13083313e+00
1.13736576e+00
1.14382074e+00
1.14950889e+00
1.13332421e+00
1.13181611e+00
1.11404270e+00
1.11689618e+00
1.11685439e+00
1.12124163e+00
1.12550221e+00
1.12662522e+00
1.13211308e+00
1.12168335e+00
1.12278547e+00
1.11304169e+00
1.10144555e+00
1.10637829e+00
1.11366267e+00
1.11443117e+00
1.11588685e+00
1.11688849e+00
1.11947467e+00
1.11732694e+00
1.11326187e+00
1.10444041e+00
1.09517537e+00
1.10650470e+00
1.10650105e+00
1.09914979e+00
1.10978862e+00
1.10730836e+00
1.10519524e+00
1.11046676e+00
1.09887512e+00
1.09461753e+00
1.09597806e+00
1.09068201e+00
1.08995978e+00
1.08039927e+00
1.08464620e+00
1.10182743e+00
1.09045423e+00
1.08650156e+00
1.10191804e+00
1.09069387e+00
1.08399042e+00
1.09304785e+00
1.09080744e+00
1.08484309e+00
1.08945756e+00
1.08097434e+00
1.07587134e+00
1.08716165e+00
1.07748046e+00
1.07493933e+00
1.09513872e+00
1.08249828e+00
1.06191830e+00
1.08004568e+00
1.09438110e+00
1.07354960e+00
1.07529624e+00
1.08970574e+00
1.07411641e+00
1.06620470e+00
1.08916532e+00
1.08896871e+00
1.07548279e+00
1.08207191e+00
1.09093888e+00
1.07725259e+00
1.06742708e+00
1.07894086e+00
1.08520562e+00
1.06826288e+00
1.06497538e+00
1.08586558e+00
1.09236950e+00
1.06527012e+00
1.05572959e+00
1.08386121e+00
1.09450658e+00
1.07513618e+00
1.05634318e+00
1.07646758e+00
1.10622136e+00
1.09564920e+00
1.05614557e+00
1.04204224e+00
1.06953275e+00
1.10059034e+00
1.09582868e+00
1.04917108e+00
1.01614770e+00
1.01983006e+00
1.05147574e+00
1.10396500e+00
1.12067272e+00
1.08581246e+00
1.03681832e+00
1.00908913e+00
1.00518112e+00
1.00257708e+00
1.00284303e+00
1.00266941e+00
9.99270251e-01
9.98041808e-01
9.97370354e-01
9.99266573e-01
1.00161449e+00
1.00200674e+00
1.00068429e+00
9.98753197e-01
9.98604595e-01
1.00050195e+00
1.00088724e+00
9.99991717e-01
9.99674420e-01
9.99925723e-01
1.10077213e+00
1.09948369e+00
1.09624775e+00
1.09994274e+00
1.10398255e+00
1.10519338e+00
1.11673710e+00
1.12888478e+00
1.13923389e+00
1.14348446e+00
1.14744148e+00
1.13388282e+00
1.13159361e+00
1.11894693e+00
1.11649619e+00
1.11907150e+00
1.11649158e+00
1.12595129e+00
1.12821398e+00
1.13198687e+00
1.12479355e+00
1.12144743e+00
1.11236791e+00
1.10473678e+00
1.10172301e+00
1.11543628e+00
1.12051742e+00
1.11284643e+00
1.11922920e+00
1.12105432e+00
1.11652532e+00
1.10768148e+00
1.10481584e+00
1.10307629e+00
1.10099537e+00
1.10677561e+00
1.10579953e+00
1.10122442e+00
1.10988819e+00
1.10388009e+00
1.10403334e+00
1.10826148e+00
1.09124181e+00
1.08662632e+00
1.09730221e+00
1.09444124e+00
1.09354021e+00
1.09515639e+00
1.09953622e+00
1.10820714e+00
1.09181430e+00
1.08525551e+00
1.10328533e+00
1.09394851e+00
1.08269925e+00
1.08785837e+00
1.08125787e+00
1.08064851e+00
1.08779488e+00
1.08325554e+00
1.08761715e+00
1.09387208e+00
1.07860990e+00
1.07433730e+00
1.09482977e+00