# vtk DataFile Version 2.0
LBM Flow Field - Timestep 1020
ASCII
DATASET STRUCTURED_POINTS
DIMENSIONS 128 128 1
ORIGIN 0.0 0.0 0.0
SPACING 1.0 1.0 1.0
POINT_DATA 16384
SCALARS density double 1
LOOKUP_TABLE default
1.32173476e+00
1.31140482e+00
1.29912674e+00
1.28683198e+00
1.27474927e+00
1.26263676e+00
1.25085051e+00
1.23902231e+00
1.22762603e+00
1.21617686e+00
1.20525426e+00
1.19426931e+00
1.18389238e+00
1.17344554e+00
1.16367321e+00
1.15382575e+00
1.14470307e+00
1.13550276e+00
1.12706053e+00
1.11854127e+00
1.11079634e+00
1.10297823e+00
1.09593416e+00
1.08882405e+00
1.08247221e+00
1.07606460e+00
1.07038558e+00
1.06466383e+00
1.05962915e+00
1.05456694e+00
1.05014076e+00
1.04570375e+00
1.04184471e+00
1.03799225e+00
1.03465526e+00
1.03134210e+00
1.02847996e+00
1.02565793e+00
1.02322282e+00
1.02084240e+00
1.01878718e+00
1.01679886e+00
1.01507807e+00
1.01343360e+00
1.01200427e+00
1.01065762e+00
1.00947985e+00
1.00838800e+00
1.00742531e+00
1.00654879e+00
1.00576833e+00
1.00507157e+00
1.00444411e+00
1.00389560e+00
1.00339546e+00
1.00296776e+00
1.00257261e+00
1.00224219e+00
1.00193285e+00
1.00167986e+00
1.00144000e+00
1.00124793e+00
1.00106379e+00
1.00091916e+00
1.00077925e+00
1.00067117e+00
1.00056601e+00
1.00048582e+00
1.00040766e+00
1.00034856e+00
1.00029113e+00
1.00024786e+00
1.00020616e+00
1.00017466e+00
1.00014475e+00
1.00012197e+00
1.00010077e+00
1.00008440e+00
1.00006956e+00
1.00005787e+00
1.00004760e+00
1.00003932e+00
1.00003229e+00
1.00002647e+00
1.00002171e+00
1.00001766e+00
1.00001446e+00
1.00001167e+00
1.00000955e+00
1.00000765e+00
1.00000624e+00
1.00000497e+00
1.00000404e+00
1.00000320e+00
1.00000259e+00
1.00000204e+00
1.00000165e+00
1.00000129e+00
1.00000104e+00
1.00000081e+00
1.00000065e+00
1.00000050e+00
1.00000040e+00
1.00000031e+00
1.00000024e+00
1.00000019e+00
1.00000015e+00
1.00000011e+00
1.00000009e+00
1.00000007e+00
1.00000005e+00
1.00000004e+00
1.00000003e+00
1.00000002e+00
1.00000002e+00
1.00000001e+00
1.00000001e+00
1.00000001e+00
1.00000001e+00
1.00000000e+00
1.00000000e+00
1.00000000e+00
1.00000000e+00
1.00000000e+00
1.00000000e+00
1.00000000e+00
1.00000000e+00
1.00000000e+00
-2.38084425e+176
8.70993814e+176
2.35029206e+176
-5.61981436e+177
-1.49087566e+178
-7.11268048e+177
-4.08027247e+177
-4.09491095e+177
-1.11219561e+177
1.96655026e+177
-3.95590228e+176
-1.14863118e+176
-6.64811269e+175
-4.32011624e+174
-3.45292774e+175
3.64063559e+175
-1.18783830e+176
1.38405231e+176
2.36376108e+176
4.46222767e+176
-4.68157219e+175
-1.29242499e+177
-2.27003616e+177
5.09244067e+176
1.02170410e+178
6.55743618e+178
-1.28814163e+179
2.42284982e+180
-3.73472693e+179
2.15874377e+179
-1.39487726e+178
-1.71383375e+178
7.31668451e+179
-1.92820830e+180
-3.24522213e+179
-1.75241160e+180
-2.27646937e+181
1.28285735e+181
-8.63007184e+180
-4.57649077e+180
3.85086273e+180
9.58631346e+178
4.92290105e+179
1.73511809e+180
4.39714732e+180
1.01563334e+180
-1.57223235e+181
2.88512579e+181
-1.22589556e+181
5.52134313e+179
3.25324892e+179
-7.94536841e+179
6.82817026e+179
-4.89972449e+178
-1.86336235e+179
4.17289953e+179
5.55659726e+178
-4.42364794e+178
8.77369679e+178
-2.53084764e+178
-1.13686964e+178
-2.75819543e+178
3.61431815e+178
-5.42840484e+178
-3.10606480e+179
-5.63589882e+178
-5.96089297e+178
-9.01051641e+177
1.09301867e+178
2.56408212e+177
-1.68722258e+177
-3.23625316e+176
-1.22622023e+176
1.39387129e+176
1.70570191e+176
-1.26043646e+176
4.14253907e+175
-1.12629814e+176
8.56192240e+175
-4.50487507e+175
2.32908183e+175
-2.75582262e+175
3.41969855e+175
-2.61768595e+175
3.93756015e+174
-4.81342670e+175
7.38464719e+175
-2.77423991e+175
-4.03024857e+175
-3.02378098e+175
9.57005101e+173
4.44446972e+174
3.68855673e+175
-2.57035797e+175
3.45366755e+175
-1.90373946e+175
5.64378209e+174
-2.19823932e+175
-4.86863624e+174
3.00622033e+174
-2.45680862e+174
7.55069738e+174
4.34017584e+172
-8.31759995e+173
-4.77658814e+173
-1.30098668e+172
3.31881039e+170
4.83676382e+170
7.71865196e+170
1.32464539e+171
9.13988207e+169
-1.39456685e+170
6.24336330e+169
1.70521901e+167
2.83066253e+168
4.54784485e+167
7.10520982e+166
1.75753043e+166
2.56217684e+165
8.91608431e+164
3.83780716e+164
1.21554659e+164
-3.11697574e+164
1.06585502e+164
1.03089498e+163
-1.19271136e+164
9.83318612e+163
-6.98764006e+162
-6.77472751e+176
7.27603052e+177
-4.33398129e+177
-4.87454260e+177
2.37836263e+178
1.61500016e+178
5.05242268e+177
3.76238640e+177
-7.96192832e+176
3.20250719e+177
1.11397534e+176
1.92720926e+176
-1.52930217e+175
1.70873778e+175
3.95708713e+175
1.28917064e+176
-2.58715647e+176
7.56826868e+175
-1.22206519e+176
6.42078791e+175
-7.18165922e+176
-3.96383233e+176
1.44352331e+177
-3.17415037e+177
3.99615469e+176
-1.43778288e+179
-8.63338938e+179
3.05350173e+178
-6.97831703e+179
1.56382305e+179
-1.07691217e+180
6.18635270e+179
4.05701335e+180
-2.00423902e+180
1.66910312e+180
-1.83940612e+180
-4.74258265e+180
6.18847574e+180
-6.03888244e+180
-7.45571073e+180
4.85060993e+180
1.66939174e+179
-6.87935190e+178
-9.46737307e+179
-1.36518333e+181
1.03097217e+181
-6.80820953e+180
6.08616580e+180
2.07155721e+177
7.28172008e+179
3.10247697e+179
-2.66948504e+179
-1.95982329e+179
-2.25000702e+179
-9.50385236e+178
2.72063960e+179
6.15129257e+179
-8.74328039e+179
-3.07438856e+179
-5.66405976e+178
-3.33080609e+178
1.38520536e+179
-4.60206756e+178
2.13728890e+179
4.76286245e+179
-2.68173542e+179
7.98800633e+178
1.44926086e+178
-2.68526691e+177
2.26088243e+177
-3.93289656e+177
-7.31086377e+176
-1.75562909e+177
1.95562237e+177
-8.15491381e+175
-5.73792645e+175
1.00946078e+176
-2.54743779e+175
2.16919572e+176
9.10625691e+175
-4.15243853e+175
-1.70596908e+175
1.94911516e+176
-2.23529624e+176
7.64867175e+175
-2.62343451e+175
1.64933414e+175
-3.20632178e+175
-2.87176275e+175
-2.15603141e+175
-1.85891349e+175
-1.13164243e+175
3.82223293e+175
-6.19578836e+175
1.02579997e+176
-3.07930368e+175
-5.80943768e+175
-1.55256779e+175
9.55789785e+175
-5.61160590e+174
-1.60607108e+175
-4.29658493e+174
4.01020002e+174
9.78848916e+173
2.23942183e+173
-4.50861036e+173
8.77202366e+171
2.58032594e+170
-3.76908366e+171
-1.71350644e+171
4.20171776e+170
-9.95191858e+168
5.84646372e+169
-1.02686898e+169
2.12233313e+168
1.85538898e+168
2.31359112e+167
5.28587439e+166
8.56862267e+165
3.72193803e+165
-8.83327737e+164
9.23057475e+164
-1.08258284e+165
-1.09078253e+164
-1.97326453e+163
-1.20912254e+164
1.04997202e+164
-7.54190768e+162
-1.35906139e+176
4.14458535e+177
-7.66808717e+177
-1.58401091e+176
6.48109631e+177
-2.45395887e+178
8.33504718e+177
-1.94118929e+177
-5.86489790e+177
4.24602692e+177
-2.63555544e+176
-6.20791026e+175
-3.93347527e+175
1.03027313e+175
-1.31672316e+175
1.23187261e+176
-3.93137106e+175
-1.79432859e+176
-2.02795289e+175
3.06057912e+175
5.58727921e+176
1.66470698e+177
-9.13713126e+176
1.65987644e+177
-1.53125232e+178
5.85260502e+178
8.45636837e+178
2.54847974e+179
1.27986553e+179
3.17102587e+179
2.02183729e+180
-2.28863877e+180
1.32712989e+180
8.33864591e+179
2.01100963e+181
2.66459466e+182
1.52189206e+182
1.43409486e+182
1.12637538e+181
2.49410609e+178
4.74515916e+180
-9.99750920e+179
3.81978790e+180
2.11115206e+180
1.69863206e+179
1.57359431e+180
-5.57861220e+180
-2.68651377e+180
-2.68362204e+180
1.14070489e+180
6.67038569e+179
-4.54380102e+179
9.04957988e+179
-5.56271681e+178
6.06491622e+179
-7.77337086e+179
8.57002707e+179
1.94116628e+180
3.69114115e+179
7.17135964e+178
3.17076821e+178
-5.31657167e+178
1.83797056e+179
-2.59932509e+179
4.08912427e+179
1.99717347e+179
1.32884345e+179
2.26079384e+179
5.90145667e+178
1.12574070e+178
-6.38449223e+177
2.58928762e+177
-2.33194606e+177
1.13679336e+177
1.64075628e+176
-4.07595407e+175
-1.51165196e+176
-9.25714799e+175
-1.14312775e+176
2.45071708e+175
1.90004345e+175
-6.23016456e+175
-8.78441836e+175
-2.41360005e+176
2.01579925e+175
-1.58024200e+176
9.29154719e+175
-1.34725126e+176
7.10712331e+176
-1.91172306e+176
3.04520950e+175
-5.95540925e+175
1.20656105e+175
-1.10645791e+176
-2.86300640e+175
1.56035634e+176
-4.74311602e+175
1.16987944e+176
-4.16243918e+175
-3.53170193e+175
-7.97642429e+174
-1.26718781e+174
-7.71156993e+174
1.65135593e+174
9.54755624e+173
-4.10181136e+173
6.28549228e+172
-1.71713695e+172
-1.43998880e+172
-2.31970793e+172
-4.63749993e+171
-2.27164825e+170
-6.68263774e+169
3.36948312e+169
-5.17490952e+168
-4.72582837e+167
1.81887788e+168
1.91381488e+167
3.51299103e+166
6.86946515e+165
-2.50024666e+165
6.77192411e+164
8.38416313e+164
2.84348098e+164
9.14037848e+163
-2.58564718e+164
3.08275804e+164
-8.93948994e+163
5.77106093e+176
4.45448132e+177
-5.19278742e+177
1.03422740e+176
1.54827103e+177
4.70930725e+177
3.52284910e+178
-1.58170444e+178
-5.29105896e+177
3.39776110e+177
2.02857530e+176
3.45423333e+175
7.55061112e+174
-2.43011004e+173
2.32788287e+176
1.57308094e+177
-3.40678601e+175
-2.02795221e+176
1.05515255e+176
1.37654332e+177
-1.50112932e+177
-3.14347273e+177
1.17384163e+178
-2.48748438e+177
1.26425179e+178
3.14467849e+178
4.90839392e+178
4.04465584e+178
-2.91916018e+179
-3.17829883e+180
-4.02877602e+179
2.87956981e+180
8.62618646e+178
-7.57379419e+179
1.10765901e+182
-2.69621616e+182
-2.90750068e+182
-1.00967892e+182
-2.27611163e+181
-6.12228411e+180
7.74886695e+180
1.08323161e+180
1.77929831e+181
8.94663734e+179
-6.48821806e+180
2.18898805e+180
9.69522908e+179
5.11026138e+180
-1.07730573e+180
-1.12685558e+180
-2.89277254e+179
8.59512786e+178
-1.08949019e+179
-3.92072019e+179
-1.19354819e+179
-1.10829775e+180
4.93883328e+179
-4.77271224e+180
8.67524180e+179
4.33989490e+179
3.64694334e+179
1.83511815e+180
3.62283458e+179
9.68988894e+178
-2.30531426e+180
-5.23088580e+178
-2.11907589e+179
-2.26438306e+179
2.06262376e+179
1.10189049e+179
2.84290295e+177
2.13831669e+177
1.76266629e+176
-2.46701608e+176
3.68352879e+176
3.22622164e+176
-1.40073243e+176
-8.86749569e+175
-1.87309030e+176
-1.39886893e+176
7.28029796e+175
8.57162520e+174
-1.00434437e+176
-1.16175991e+176
3.79992520e+176
2.69203346e+176
4.80137214e+175
-4.94968554e+176
-7.20847244e+176
3.31192130e+176
-1.47700311e+177
4.33736307e+177
8.76628280e+177
3.86625120e+175
-2.24535276e+175
-3.78981899e+175
-1.63558575e+176
4.00936288e+175
1.28995843e+175
6.79264129e+175
-1.26235921e+176
-1.21824452e+174
-7.98973865e+173
-3.26363959e+174
-8.72210249e+173
-2.64413068e+173
1.91019558e+173
-9.95494491e+172
1.05816446e+173
1.69891954e+172
-1.19136846e+172
-3.72512023e+171
-5.51324717e+169
-1.87214645e+170
4.79907708e+169
-1.78667429e+169
-6.04508252e+168
3.26075384e+166
1.05436091e+167
2.05200495e+166
4.46392173e+166
1.98738046e+166
1.84768843e+165
-1.20523335e+164
-5.84810710e+163
-1.45109214e+163
1.47226710e+163
3.09067018e+163
-3.02178795e+175
4.83472161e+177
-5.28601819e+177
5.70678316e+176
-8.42178378e+176
-2.27490473e+177
-5.56551849e+177
-4.90882891e+177
-4.07547503e+177
4.18017414e+177
-1.01347576e+176
-2.26314566e+175
3.94943421e+175
-4.51104242e+175
1.37652890e+177
-2.14769493e+177
-1.06977272e+177
1.49567363e+176
4.96596039e+176
2.49569483e+177
-3.28259992e+177
-8.77910044e+176
-6.51766119e+176
-2.85159454e+178
2.54414262e+178
-2.46786360e+178
1.18880062e+178
-1.66598565e+179
-2.29936173e+180
4.21087052e+180
-4.45397388e+180
-4.08482353e+180
-5.17940331e+180
-6.57952742e+180
-1.28051701e+182
-1.05664211e+182
2.38109663e+182
-4.38771279e+181
-7.62185961e+181
-9.89420957e+180
-2.61627751e+181
4.14628315e+181
1.86303144e+181
-7.49318599e+181
2.82677994e+181
-5.79669136e+179
-2.55082772e+179
2.22333098e+179
-2.63356240e+177
2.82445888e+180
9.62305662e+179
7.19355006e+179
1.23331723e+179
-2.96526625e+178
3.48513378e+179
1.54039112e+180
-7.85355547e+179
4.66514389e+181
1.53066209e+181
-9.17749651e+180
-1.27929903e+180
2.95420608e+179
-2.24396698e+180
1.55448360e+180
1.50876840e+180
-1.93120042e+179
1.37364294e+179
2.21330493e+179
-3.96877225e+178
2.25214231e+179
6.37596665e+178
4.12768687e+177
-8.57464976e+175
1.67036410e+177
4.92899738e+176
-9.07146782e+176
-3.43388153e+176
8.88724981e+176
9.96720514e+176
-1.73928485e+176
-4.15435005e+175
2.31053720e+176
-2.14502950e+177
-4.38344536e+178
-2.59519342e+178
-1.58613182e+178
1.90636099e+178
6.86890625e+177
7.18750511e+176
-1.26035272e+177
6.03517749e+176
-2.85948633e+178
2.51190213e+177
-3.21136809e+176
4.08688587e+176
1.52642797e+176
7.47459808e+175
6.60412236e+175
-1.46844025e+176
4.84874128e+176
-1.55422806e+176
-2.42806752e+174
-7.35219632e+174
8.82489432e+174
-6.58760546e+174
-1.38386777e+173
1.51210029e+173
-1.46995498e+173
6.80029498e+170
-1.62074296e+172
1.69674480e+172
-1.66828500e+172
-4.56674154e+170
1.41999320e+170
-1.24794874e+170
1.79455545e+170
-8.68555833e+168
-8.73701786e+167
-1.67189371e+167
1.22562372e+166
-1.23981098e+167
-1.66201765e+166
5.46225983e+165
1.23194288e+164
-1.44560782e+164
-1.14255857e+163
-8.34418488e+163
-1.02387778e+164
-3.04453679e+176
3.94019921e+177
-1.87282838e+177
-3.31440152e+177
2.47165895e+176
1.39395148e+176
-2.02417899e+177
-5.45158800e+177
-1.92358337e+177
2.90247244e+177
-3.80733796e+174
2.12993127e+175
1.04132766e+175
7.31397910e+174
3.52313070e+176
-6.68553423e+176
1.84563396e+177
-4.15031057e+176
-1.79757778e+177
2.19508510e+177
-2.39866546e+177
2.43069562e+178
6.74858089e+177
-2.24988134e+178
7.75491896e+178
-9.35445213e+178
-1.34054546e+178
-1.17344182e+180
-1.92620839e+180
1.67469015e+180
-2.04806583e+180
3.77090972e+180
7.49668901e+180
-2.99474807e+181
7.50749245e+181
2.19973113e+181
-2.01054459e+182
-2.38357401e+182
8.52513995e+181
-1.03115997e+180
-1.64220135e+181
4.15326832e+180
-4.38003482e+180
-2.08182641e+181
2.05904294e+181
-4.35547417e+180
4.71801891e+179
6.24896195e+179
-1.44677645e+180
-4.50138173e+180
-3.55697010e+180
-1.16269072e+180
4.20988480e+179
9.31770855e+179
-6.05242858e+179
-1.86130281e+180
6.14274529e+179
2.19757700e+181
-1.50518380e+182
2.56704558e+181
-2.63106561e+180
2.87024673e+180
3.36208725e+179
9.38032102e+179
-2.26454309e+179
-5.32690396e+179
-4.57659080e+179
-2.28315083e+179
-3.57963035e+178
-4.55964042e+179
4.83878476e+178
-1.42366290e+179
-7.27154626e+177
7.51579381e+176
5.82785033e+177
-5.89731694e+175
-9.15358086e+176
3.31776602e+177
6.01185104e+177
9.02385217e+175
-3.11328636e+176
4.25821425e+175
-4.70394883e+178
2.23302715e+178
8.03113727e+178
5.78177315e+177
7.84938589e+178
-2.22620400e+177
-2.22490237e+178
1.51890494e+178
9.38074931e+177
7.00422883e+177
-1.32911118e+177
-6.89225420e+176
-1.68386008e+176
-2.52541696e+176
-1.27472927e+176
-4.74998643e+175
4.79384414e+176
2.97384711e+176
8.05893158e+175
1.21507520e+175
-3.06141661e+175
5.55955919e+173
-3.08645791e+174
-1.14511250e+174
3.16916147e+173
-1.95148376e+170
-1.48974950e+173
-2.40122315e+172
8.66013224e+171
-5.06626666e+171
-4.00191110e+168
-1.19117214e+171
-2.37438187e+171
1.24907201e+170
-9.65716110e+168
1.46765724e+168
-1.84635582e+166
1.32982357e+167
1.31080783e+167
-6.58268433e+166
-1.58402592e+166
-1.94817456e+165
-4.19239195e+165
-9.91322559e+164
1.54498203e+164
4.19683367e+163
-6.97635768e+176
1.36409299e+177
2.33857455e+177
-1.37458329e+177
-1.68666390e+176
-9.15797099e+175
-1.41405433e+177
-9.62752840e+176
2.49101138e+177
2.92340321e+176
6.33570931e+175
-1.41139142e+176
3.01517861e+175
-3.10158043e+175
-7.58026305e+176
4.57659541e+176
-6.37341360e+176
-3.16426818e+177
2.13729962e+176
1.06067361e+177
-8.67129833e+177
-4.89906749e+178
-3.33187879e+178
-1.51444410e+178
7.31987246e+177
-2.45706578e+178
-3.55459528e+179
-1.71849014e+180
3.47359706e+180
-8.41674340e+179
1.16486007e+181
1.17757388e+181
-7.44671602e+179
-2.58725446e+181
1.01886873e+182
1.49949384e+181
1.05055351e+182
2.40234601e+182
-1.46274668e+180
-4.28388873e+181
1.10403044e+181
2.32466937e+181
1.45623548e+181
2.57037053e+180
-2.85826176e+180
1.43255604e+181
-2.59286364e+179
1.05107283e+181
7.22282782e+180
7.23922636e+179
-2.22413861e+181
-1.05901345e+181
-1.58970424e+180
-2.04797555e+180
3.64523972e+178
1.17613858e+180
-1.69535440e+180
-1.75432260e+181
2.37406718e+181
4.77729098e+181
3.29723245e+180
-1.51600022e+181
-1.24308244e+180
2.21288266e+180
4.53290404e+180
-1.45425193e+180
-1.47784077e+180
-6.06611453e+180
-1.13024384e+179
-8.80964167e+179
1.25067211e+180
-2.11208046e+179
-2.39232525e+178
-5.29932626e+178
8.61147339e+177
-3.95806096e+177
-1.68925254e+177
-2.22486863e+178
9.81733848e+177
1.26577197e+177
2.00204548e+177
2.98576844e+178
7.35127697e+178
1.90017420e+179
2.47709240e+179
-2.28599895e+178
-1.36971132e+179
7.86357908e+178
-8.44251707e+178
1.02898874e+179
-3.38747815e+178
8.40736746e+177
4.25756625e+177
4.60774821e+176
-1.00149196e+176
2.07401016e+176
-1.86208308e+176
-5.33693966e+176
-1.48215378e+177
4.52139854e+176
3.74985186e+175
2.06927789e+175
-1.59084059e+175
2.16135108e+175
1.03093510e+173
-2.47126065e+174
1.10044777e+174
1.38153285e+173
-5.28092889e+172
2.37543990e+173
7.29583486e+172
-1.06527909e+172
5.26952411e+170
5.90677476e+171
-4.79730517e+169
1.95600578e+170
-2.77346611e+169
3.98369586e+168
-2.59084539e+168
3.70091885e+168
-6.74040197e+167
-5.96492869e+167
-2.85480327e+167
-6.24309753e+166
-5.11095548e+166
-6.63312378e+165
-2.60052912e+164
3.71772906e+163
-2.83918220e+176
-1.03571685e+177
3.05919028e+176
1.20448882e+177
-2.13879839e+177
2.08342042e+177
-1.86962077e+177
1.26038949e+177
-1.94294484e+176
-1.99271297e+175
9.17938695e+175
-3.36908551e+175
2.76021273e+176
7.50884259e+175
6.03989565e+176
-1.23680405e+176
-6.02285019e+176
7.66708876e+177
-6.26473403e+177
8.35360996e+177
4.01360904e+177
4.35062653e+178
2.73061378e+177
1.34072290e+178
5.91459002e+178
4.71132519e+178
-7.64083991e+179
-2.98641439e+180
2.02100889e+180
-1.05017942e+181
2.63516332e+181
3.07819204e+181
2.19954422e+181
2.19139101e+181
-4.97690341e+181
-5.71813007e+181
2.11570428e+182
-1.67061158e+182
-3.40757894e+181
2.35431513e+181
-9.13704113e+180
-5.02341207e+181
-1.24887898e+181
2.79548437e+181
-1.07619325e+181
-1.50241641e+180
-2.33543760e+180
-1.05523842e+181
-9.48104052e+179
-2.05269363e+181
-6.21969161e+181
-5.00777425e+181
1.62255101e+181
2.33650288e+179
-5.60323979e+178
2.73656760e+180
4.54780002e+180
-6.37178346e+180
-4.85759439e+181
-1.81373582e+182
-3.02346565e+181
-2.30392930e+180
-4.61479624e+182
-5.65441584e+182
4.62496112e+181
-1.17892465e+180
8.45410122e+180
3.02030040e+180
-5.87930266e+180
-7.62140066e+179
6.80334955e+179
-1.37570818e+178
7.55026409e+178
9.16848053e+177
2.73588219e+177
-8.17959373e+177
1.10207062e+178
-2.46398327e+176
-1.45912343e+177
-2.66733754e+177
-1.04728740e+178
2.07393042e+178
-2.48435124e+179
-2.24295107e+179
-2.19790070e+178
2.67963227e+178
6.07334528e+178
4.63009666e+178
-2.06580479e+178
3.71291618e+177
-3.67763067e+178
-5.98109264e+177
-1.41416941e+177
3.59761612e+177
-7.64063127e+176
-5.39165966e+177
3.40547364e+177
1.79967219e+177
5.13876445e+176
-1.34354515e+176
9.39966356e+175
3.28389344e+175
-7.95563068e+174
3.79701972e+173
-9.58683775e+173
-1.73792610e+173
8.79704368e+173
1.27091002e+173
-3.74931118e+173
-3.72796436e+173
3.29959201e+173
1.02413406e+172
1.51502783e+171
-3.57520339e+171
-7.59264899e+171
3.30394277e+170
-9.49352962e+169
5.67959390e+169
-2.02835286e+169
8.68588673e+168
1.40702215e+168
4.15972568e+167
1.01318307e+167
5.09372347e+166
-6.41207466e+166
-6.21272190e+165
-8.54096760e+160
-1.07275612e+164
-1.15956492e+176
-3.90284064e+176
2.65774591e+175
-4.52665905e+176
8.81893277e+176
-3.55686989e+176
-2.37877007e+176
-3.91823819e+175
8.45886130e+175
-4.68126611e+176
-1.76984103e+177
-5.91247035e+176
-3.93256294e+176
-3.18765819e+176
5.25664583e+176
1.54500246e+178
-6.51117752e+178
-8.47608639e+178
-2.80137464e+178
1.13989750e+178
-9.38120529e+177
1.68090653e+178
2.06848626e+178
1.08427958e+179
6.87314995e+178
1.54507922e+179
4.90612033e+180
-1.09448550e+180
9.28647573e+180
2.44343584e+181
2.83315410e+180
-5.16120026e+181
-2.89710072e+182
5.23580706e+182
-2.21525810e+182
6.92104541e+181
7.51898677e+181
-1.34088240e+182
1.76594117e+181
-1.24048286e+182
9.51173883e+181
-7.32734498e+181
-1.26357276e+181
-1.23937681e+182
-3.03313593e+181
-1.96439409e+178
-3.82712569e+180
1.01910135e+181
2.53755392e+181
-2.46219129e+180
2.89553932e+182
-4.60194326e+181
1.34700458e+181
2.04939690e+181
-1.86520943e+180
6.14841957e+178
4.66977277e+180
1.59213504e+180
8.45112673e+181
3.68331884e+182
9.02026241e+181
-8.56948210e+180
1.48199336e+182
1.67740702e+183
1.48310255e+182
-1.90579613e+180
1.11281739e+180
1.42577294e+181
-1.44777380e+181
-5.30843179e+179
7.50460302e+179
1.44856293e+179
4.87933844e+178
4.57864933e+178
1.64432504e+179
5.31517031e+178
3.54237176e+177
7.32441241e+178
-8.01189564e+178
2.04102700e+178
-5.77444131e+178
-2.80163056e+178
4.29407951e+178
1.34328043e+177
3.60801050e+177
-1.45815422e+179
-8.19284009e+178
8.65891503e+178
-7.42593642e+178
-1.66287995e+178
-7.84989814e+177
-2.97120685e+178
-3.39221789e+178
-2.01125161e+178
1.38726121e+178
-1.17742401e+178
5.04048779e+177
-3.74170834e+177
-1.32917261e+177
8.51034303e+176
-1.91995882e+176
3.40320958e+176
1.14668642e+176
1.06992344e+175
-7.56999170e+173
4.25990283e+174
5.68689245e+173
-3.89752245e+173
3.10495418e+173
-2.57483217e+173
-1.27475359e+173
1.26359880e+173
-4.15355969e+171
2.56430530e+172
-3.77576779e+171
-3.82812945e+170
-5.43351352e+169
1.61935618e+169
8.40958390e+168
1.05266340e+168
-4.28777564e+166
2.35356330e+167
1.21395766e+168
7.81008976e+166
4.82467891e+166
-3.21336623e+166
2.04310101e+164
-2.76936932e+164
7.26768270e+175
6.28324487e+176
8.20543510e+176
1.91186354e+175
3.58299731e+176
-2.73717190e+176
2.76824926e+176
-1.95122475e+176
-7.88609081e+176
2.64386532e+176
1.71964164e+177
9.25862604e+176
2.05215798e+177
-2.68973636e+176
2.49696548e+176
-1.08307435e+178
2.96761704e+179
3.50804148e+178
7.21115405e+177
6.09791280e+178
6.04245174e+177
-8.23959907e+177
6.44396817e+178
-1.97607684e+179
-5.52714876e+178
4.46362321e+180
-1.27860347e+180
-9.61677407e+179
5.04153076e+180
-1.17200335e+181
-7.40737453e+181
2.17538721e+181
-1.49897876e+182
1.37127367e+182
-1.06205848e+182
8.61250514e+181
2.81146904e+181
-5.49701523e+181
4.86588467e+181
1.27118660e+182
9.34227586e+181
1.30140875e+182
5.80233702e+181
5.82261218e+182
3.91087491e+182
-5.48974366e+181
-3.12776677e+181
1.89883631e+181
-3.55001567e+181
-8.75979710e+181
-1.24672853e+182
-8.22903435e+180
1.72620826e+182
-7.67890544e+181
-4.41546739e+180
6.07793039e+180
2.52627317e+180
-6.51040780e+178
-4.04542904e+181
-1.76951459e+182
-8.63338672e+181
2.29017392e+181
3.99111854e+181
-5.56641849e+182
-4.67457077e+182
-4.18239505e+180
-3.48853836e+180
1.76313131e+181
7.30029242e+179
-1.45840148e+180
-2.12224585e+179
-1.06806824e+179
-8.77548746e+178
-1.39117564e+179
-2.73661152e+179
-3.98953615e+178
-2.49108482e+177
1.73071276e+179
-3.65404915e+179
1.73249584e+179
3.34350250e+178
-1.29418867e+178
6.55784297e+178
-2.74859607e+178
7.86400940e+179
7.57206206e+180
-8.70443576e+179
1.80895517e+180
-4.36925780e+180
-3.35997204e+179
1.59404871e+178
4.98610488e+178
6.79765810e+177
9.33059652e+178
5.14211813e+177
9.57968268e+176
9.13532309e+177
1.34995594e+177
4.65146539e+177
2.63121909e+177
-1.78738319e+177
-4.46000354e+176
3.29485164e+176
1.13540890e+176
-1.22458528e+175
-1.00269621e+174
2.05588585e+174
-2.59278648e+173
-5.29663738e+172
-5.24390016e+172
7.16531739e+172
5.81797028e+172
-7.47207983e+171
-3.59042160e+171
3.44812999e+171
-3.92017966e+170
-9.60287325e+168
-2.33962847e+169
2.46163339e+169
-4.56607029e+168
-9.51469166e+167
-1.55968972e+168
-9.93107813e+167
-1.77560283e+168
-6.71102608e+167
-9.92028494e+166
8.60328417e+164
1.04847707e+165
-4.94254203e+176
-1.46465415e+176
-4.06226995e+176
-1.45778805e+176
7.35592579e+176
-5.22373944e+176
-7.47691900e+176
-3.16587183e+176
-6.47413191e+174
1.19521356e+177
-2.88748909e+176
-3.01549672e+176
-4.42519756e+176
8.24788427e+176
1.75890748e+177
-9.18877097e+178
-6.32477827e+178
3.21452970e+178
-1.34197577e+179
-7.80696864e+178
-1.23368481e+178
-1.67274271e+178
1.61645239e+179
-3.02664912e+178
1.09189649e+179
1.36214677e+181
-1.51954363e+181
2.40016506e+180
-1.67561485e+181
1.08127545e+182
-9.94722398e+180
5.12122195e+181
-5.28969706e+181
7.47358721e+181
-8.50276632e+181
3.63735110e+181
-1.50653302e+181
-7.17397001e+181
-1.30672254e+182
5.54988366e+182
-1.04897030e+183
-4.42832559e+181
-1.18661743e+182
-4.99994003e+181
-1.25881440e+183
-2.48621001e+181
-1.51665862e+181
4.59783736e+181
-1.98106820e+181
-2.66677943e+181
1.01023492e+182
4.02005537e+182
-6.42670465e+181
-9.38420818e+181
-7.33631012e+181
-1.42710308e+180
4.94645677e+180
-1.03558707e+181
3.04687417e+180
-1.38547947e+181
-3.06868775e+181
-1.81673824e+181
-5.85360757e+181
3.19477755e+181
-5.52266752e+180
-1.30751910e+181
-2.00010028e+181
7.99481551e+180
-2.37739993e+181
-1.16929266e+180
3.20937462e+180
-3.45777165e+180
2.23483203e+180
-5.29024488e+178
5.02211658e+178
2.97643849e+178
3.11614594e+177
1.41954514e+178
-9.02006153e+178
7.58060366e+178
3.17477392e+178
-2.38578899e+179
1.09586927e+179
7.45774464e+178
8.48383271e+180
-1.82516569e+180
-1.57870722e+181
-3.48729755e+180
-1.91307418e+180
1.25508356e+180
2.73129713e+180
5.76411840e+178
-9.08388387e+177
-3.48658393e+178
-3.17977324e+178
2.12701489e+177
-1.02867211e+178
-4.95869499e+177
-1.26528059e+178
7.74434045e+177
-3.96446714e+177
-3.27805648e+178
-5.24980047e+176
7.52189342e+176
-2.72368445e+175
1.07027212e+175
-2.79566294e+174
1.35103979e+173
1.35995158e+173
1.88432943e+172
-7.41088507e+172
6.27039467e+170
1.85337905e+172
5.73044451e+171
2.64069085e+171
-1.57166336e+171
-5.18497462e+169
-3.32250725e+168
-1.61362186e+168
-8.88278192e+168
6.17897123e+167
-8.56342615e+167
3.01186907e+167
4.82292345e+168
1.07264820e+168
-1.21990773e+166
-1.53841840e+165
-5.40923357e+163
-9.17814801e+174
-1.88831230e+176
-1.50308038e+176
-2.46634898e+176
1.24741592e+176
-6.96972197e+176
6.24403284e+176
4.74886212e+176
-1.99582450e+176
-2.95028190e+176
3.09195146e+175
2.01057110e+177
3.25554436e+176
-1.63233202e+177
-1.84987867e+177
-1.46042832e+177
1.01351127e+178
-1.92536627e+177
2.40575686e+178
4.17128547e+178
2.37831791e+178
3.81554639e+178
1.89719653e+179
-4.64046035e+179
-4.72211690e+179
6.71104199e+180
-1.09233439e+181
1.00295067e+180
-3.28116885e+181
-8.93154875e+180
-6.43553491e+181
1.33583712e+182
-6.52044801e+181
2.00325766e+181
3.20616668e+181
-5.09385549e+181
-5.36764093e+180
3.07725585e+181
-1.58806698e+183
4.13595146e+183
-1.83381517e+183
9.47662314e+181
1.52255252e+182
-9.28815133e+181
3.63114618e+182
3.65731693e+182
-5.45914464e+181
1.93405378e+181
-6.45457266e+181
4.33500559e+181
-7.22655063e+182
4.71724002e+181
-3.01268126e+181
-5.34141436e+181
2.40198087e+182
-2.50009174e+181
1.11605672e+181
2.25675574e+181
9.72252988e+180
-2.24083823e+181
4.88157434e+181
5.57712827e+181
2.92523243e+180
-6.62762655e+180
1.67272505e+181
1.40619202e+181
4.69897892e+181
4.61421036e+180
6.48633201e+180
-4.76616865e+180
3.11531725e+180
-1.16660095e+181
6.06581192e+180
2.87773005e+180
-1.20113976e+179
3.01203285e+178
2.24194613e+178
2.73447059e+178
3.27245362e+178
9.79239004e+177
1.28068492e+179
-1.67458014e+179
-2.88294712e+179
-2.23355592e+179
2.18367454e+181
-2.12214442e+181
3.18055442e+180
7.00590592e+180
6.34018346e+180
-2.07810850e+181
1.52096216e+181
-1.92363847e+179
1.33878082e+179
-3.45259660e+178
-5.91073958e+176
-5.74729343e+176
3.27966006e+177
3.40124073e+177
5.01959051e+177
-2.49942357e+178
1.04157940e+179
-2.21025248e+178
-7.97755178e+176
7.58463671e+176
-1.86541078e+175
4.05227112e+174
1.57806506e+175
-5.96452804e+173
-2.77028366e+173
-2.43607024e+173
-2.35052790e+173
-1.84675331e+172
-1.15180209e+173
-1.03986462e+172
-1.42493488e+171
-1.28565097e+171
1.12143741e+169
-1.11615402e+169
-1.35724288e+169
-1.82923914e+167
5.40654092e+167
7.18316937e+167
-7.01614064e+168
-1.48876779e+167
-1.30313467e+168
-3.41415499e+167
-2.21054119e+166
1.22555163e+166
7.62324706e+175
-7.61559516e+175
3.01945227e+176
9.51976330e+175
4.06966210e+176
4.38365943e+176
-4.42584690e+175
1.21102190e+176
2.52511250e+176
1.71166962e+177
-7.22333716e+177
-1.29938598e+177
-3.27909059e+176
5.93683609e+176
5.03611543e+177
5.43628098e+177
-1.96813607e+178
-1.96794200e+178
2.12056222e+178
7.68702516e+176
2.56247855e+179
1.41445176e+179
5.83087955e+179
5.87971590e+180
2.69696353e+181
4.65589098e+181
1.02811666e+181
2.67595348e+181
2.21715497e+181
8.90419577e+181
-1.50618351e+182
6.86122808e+181
-1.30754168e+181
1.34071196e+182
2.41722277e+182
2.56195944e+181
-1.70587282e+181
-2.86139643e+181
-9.60255562e+182
6.47630382e+182
2.24214410e+181
1.85964967e+182
-8.10427001e+181
-8.34065902e+181
-7.90513454e+181
3.64485215e+182
-3.18937161e+181
5.10848324e+182
-6.10988750e+182
1.21503305e+182
1.48919053e+182
-2.08205221e+181
-2.69781310e+181
1.08396414e+182
-3.62663619e+181
-8.96663496e+181
7.05621088e+180
-1.78876783e+180
-8.09157227e+180
2.88010682e+181
3.47577232e+180
-5.81200502e+181
1.39029861e+181
7.41839186e+180
-6.89453428e+180
9.70149425e+180
-2.97287262e+181
4.88900646e+180
-2.92543966e+181
8.06059875e+179
2.73893721e+180
4.10862038e+180
-1.11365328e+181
1.26760196e+181
-1.44066358e+180
2.81986752e+179
2.46228540e+178
-8.00962224e+178
-9.72908844e+177
-7.87512288e+177
4.89786773e+178
1.14993767e+179
2.96218474e+179
-2.19771505e+178
7.10738007e+180
-1.82718779e+181
4.36305224e+180
2.87972954e+180
4.09714340e+180
-1.81333076e+181
6.80853791e+180
4.81326862e+178
2.09373564e+179
-1.64351120e+179
5.16039571e+177
-7.06950792e+177
6.64828710e+177
-3.45869065e+177
1.78767710e+177
-2.94646645e+178
-4.52054106e+177
5.82483285e+177
-1.52684914e+177
7.59304408e+176
-1.01790101e+175
-6.11913527e+175
3.35561447e+175
-6.36383824e+173
2.88646306e+173
2.37267169e+173
1.08233609e+174
-1.26237598e+172
7.88941430e+172
-1.33966065e+173
-2.33067893e+172
3.85190778e+170
2.21485849e+170
4.49163253e+169
-5.89152688e+169
2.18261813e+169
-3.70025800e+168
4.33688186e+167
4.99965572e+167
2.06910294e+168
9.50452342e+167
8.45841147e+166
-4.70954623e+166
8.56795452e+166
2.43429499e+175
-6.36546242e+175
3.26575642e+175
-2.30712549e+175
-1.53498312e+176
-1.69068828e+176
-1.63571341e+176
-1.61238863e+175
-1.72988926e+175
1.44388973e+177
2.36042711e+177
1.56841884e+177
6.07374074e+177
1.18648246e+178
3.46273300e+178
1.00960197e+178
-3.33399135e+178
-1.03961876e+179
8.17693567e+178
7.58466273e+178
1.58492459e+179
2.03675192e+180
3.22672125e+180
1.43690365e+181