# vtk DataFile Version 2.0
LBM Flow Field - Timestep 360
ASCII
DATASET STRUCTURED_POINTS
DIMENSIONS 128 128 1
ORIGIN 0.0 0.0 0.0
SPACING 1.0 1.0 1.0
POINT_DATA 16384
SCALARS density double 1
LOOKUP_TABLE default
1.31604818e+00
1.29867295e+00
1.27817669e+00
1.25785430e+00
1.23817538e+00
1.21877637e+00
1.20036345e+00
1.18228176e+00
1.16549571e+00
1.14903709e+00
1.13412895e+00
1.11949957e+00
1.10660138e+00
1.09390566e+00
1.08303407e+00
1.07228077e+00
1.06335185e+00
1.05446679e+00
1.04731847e+00
1.04016171e+00
1.03458023e+00
1.02896545e+00
1.02471164e+00
1.02042566e+00
1.01725807e+00
1.01407872e+00
1.01177142e+00
1.00948256e+00
1.00783665e+00
1.00623964e+00
1.00508876e+00
1.00401013e+00
1.00322105e+00
1.00251649e+00
1.00198629e+00
1.00154132e+00
1.00119276e+00
1.00092086e+00
1.00069729e+00
1.00053622e+00
1.00039684e+00
1.00030399e+00
1.00021992e+00
1.00016756e+00
1.00011872e+00
1.00008967e+00
1.00006247e+00
1.00004652e+00
1.00003204e+00
1.00002336e+00
1.00001602e+00
1.00001135e+00
1.00000780e+00
1.00000534e+00
1.00000369e+00
1.00000243e+00
1.00000169e+00
1.00000108e+00
1.00000075e+00
1.00000046e+00
1.00000032e+00
1.00000019e+00
1.00000013e+00
1.00000008e+00
1.00000005e+00
1.00000003e+00
1.00000002e+00
1.00000001e+00
1.00000001e+00
1.00000000e+00
1.00000000e+00
1.00000000e+00
1.00000000e+00
1.00000000e+00
1.00000000e+00
1.00000000e+00
1.00000000e+00
1.00000000e+00
1.00000000e+00
1.00000000e+00
1.00000000e+00
1.00000000e+00
1.00000000e+00
1.00000000e+00
1.00000000e+00
1.00000000e+00
1.00000000e+00
1.00000000e+00
1.00000000e+00
1.00000000e+00
1.00000000e+00
1.00000000e+00
1.00000000e+00
1.00000000e+00
1.00000000e+00
1.00000000e+00
1.00000000e+00
1.00000000e+00
1.00000000e+00
1.00000000e+00
1.00000000e+00
1.00000000e+00
1.00000000e+00
1.00000000e+00
1.00000000e+00
1.00000000e+00
1.00000000e+00
1.00000000e+00
1.00000000e+00
1.00000000e+00
1.00000000e+00
1.00000000e+00
1.00000000e+00
1.00000000e+00
1.00000000e+00
1.00000000e+00
1.00000000e+00
1.00000000e+00
1.00000000e+00
1.00000000e+00
1.00000000e+00
1.00000000e+00
1.00000000e+00
1.00000000e+00
1.00000000e+00
1.00000000e+00
1.00000000e+00
1.00000000e+00
1.12497712e+00
1.10360744e+00
1.08712473e+00
1.08670968e+00
1.08331002e+00
1.07387685e+00
1.07117891e+00
1.07276111e+00
1.06954749e+00
1.06802860e+00
1.07086563e+00
1.06890530e+00
1.07016815e+00
1.07261912e+00
1.07202324e+00
1.07099785e+00
1.07067454e+00
1.07042224e+00
1.07164592e+00
1.07172516e+00
1.07670577e+00
1.08382621e+00
1.08383351e+00
1.08276942e+00
1.07856757e+00
1.07882605e+00
1.07541571e+00
1.07705070e+00
1.07529221e+00
1.07140243e+00
1.07424493e+00
1.07602774e+00
1.07428659e+00
1.07592438e+00
1.07748067e+00
1.07335505e+00
1.07367982e+00
1.07617777e+00
1.07694169e+00
1.07459899e+00
1.07280268e+00
1.07122177e+00
1.07751445e+00
1.07528162e+00
1.07409623e+00
1.07234489e+00
1.07248930e+00
1.07337532e+00
1.07178656e+00
1.07109964e+00
1.07093550e+00
1.06974855e+00
1.06956142e+00
1.06647135e+00
1.06548250e+00
1.06249412e+00
1.06140610e+00
1.06440131e+00
1.06716681e+00
1.06446265e+00
1.06246448e+00
1.06026755e+00
1.06210662e+00
1.06495811e+00
1.06291243e+00
1.06536104e+00
1.06332473e+00
1.05838240e+00
1.06553887e+00
1.06484548e+00
1.05917774e+00
1.05864006e+00
1.05924664e+00
1.06139438e+00
1.05614351e+00
1.05638316e+00
1.05788411e+00
1.05500011e+00
1.05553852e+00
1.05507375e+00
1.05330571e+00
1.05511411e+00
1.05456972e+00
1.05137397e+00
1.05436720e+00
1.05393421e+00
1.05246433e+00
1.05268602e+00
1.05478280e+00
1.05346899e+00
1.05184868e+00
1.05380520e+00
1.05261013e+00
1.04925590e+00
1.05205954e+00
1.05373751e+00
1.05224893e+00
1.05160225e+00
1.05196355e+00
1.05034010e+00
1.05185831e+00
1.05145063e+00
1.05034340e+00
1.05393026e+00
1.05342156e+00
1.04822442e+00
1.05015316e+00
1.05034463e+00
1.04704902e+00
1.04577046e+00
1.04905006e+00
1.05081214e+00
1.05062987e+00
1.05119288e+00
1.04951028e+00
1.05056142e+00
1.04701821e+00
1.04496264e+00
1.04556400e+00
1.04314975e+00
1.04255122e+00
1.04166294e+00
1.04287096e+00
1.04097088e+00
1.03929037e+00
1.04025753e+00
1.03906554e+00
1.03865482e+00
1.10263323e+00
1.09879613e+00
1.09805936e+00
1.08745973e+00
1.07792667e+00
1.07823711e+00
1.07722059e+00
1.07360180e+00
1.07135987e+00
1.07419575e+00
1.07142372e+00
1.07477293e+00
1.07559254e+00
1.07370464e+00
1.07361854e+00
1.07490576e+00
1.07574179e+00
1.06981442e+00
1.06848716e+00
1.07301931e+00
1.07564586e+00
1.07767746e+00
1.08054860e+00
1.07866612e+00
1.07562970e+00
1.07704018e+00
1.07467399e+00
1.07428101e+00
1.07626097e+00
1.07317519e+00
1.07478052e+00
1.07642834e+00
1.07498395e+00
1.07497525e+00
1.07654265e+00
1.07438962e+00
1.07435516e+00
1.07720669e+00
1.07462221e+00
1.07166110e+00
1.07458071e+00
1.07476108e+00
1.07702682e+00
1.07227146e+00
1.07256997e+00
1.07518145e+00
1.07549032e+00
1.07437857e+00
1.07194447e+00
1.07110028e+00
1.07085629e+00
1.06941195e+00
1.07214260e+00
1.06507021e+00
1.06361759e+00
1.06587065e+00
1.06766983e+00
1.07109113e+00
1.06675571e+00
1.06332061e+00
1.06380011e+00
1.06002117e+00
1.06464490e+00
1.06711813e+00
1.06543400e+00
1.06055842e+00
1.06254639e+00
1.05956360e+00
1.06261977e+00
1.06335764e+00
1.05905658e+00
1.05550066e+00
1.05830475e+00
1.06192369e+00
1.05590376e+00
1.04982034e+00
1.05836965e+00
1.05613056e+00
1.05571518e+00
1.05476877e+00
1.05278571e+00
1.05570034e+00
1.05505574e+00
1.05136561e+00
1.05402099e+00
1.05326844e+00
1.05131206e+00
1.05365051e+00
1.05392059e+00
1.05266781e+00
1.05184247e+00
1.05374764e+00
1.05189714e+00
1.04917039e+00
1.05183866e+00
1.05343849e+00
1.05095109e+00
1.05148950e+00
1.05345264e+00
1.05234598e+00
1.05016070e+00
1.04884509e+00
1.04836194e+00
1.05417118e+00
1.05430030e+00
1.04842381e+00
1.04818795e+00
1.05197611e+00
1.04728362e+00
1.04655456e+00
1.04957254e+00
1.04975777e+00
1.04841563e+00
1.04826898e+00
1.04942111e+00
1.05031949e+00
1.04692245e+00
1.04621952e+00
1.04708539e+00
1.04446016e+00
1.04291066e+00
1.04173754e+00
1.04161600e+00
1.04154310e+00
1.03953197e+00
1.03864581e+00
1.03957067e+00
1.03964618e+00
1.09034887e+00
1.10005856e+00
1.09470172e+00
1.08427210e+00
1.08279397e+00
1.08385914e+00
1.07651499e+00
1.06860320e+00
1.07385936e+00
1.07599727e+00
1.07580189e+00
1.07014104e+00
1.07019311e+00
1.07553466e+00
1.07552239e+00
1.07332958e+00
1.07477391e+00
1.07731371e+00
1.07389229e+00
1.07377477e+00
1.07794452e+00
1.07860677e+00
1.07879046e+00
1.07433445e+00
1.07619642e+00
1.07917410e+00
1.07627094e+00
1.07390973e+00
1.07558284e+00
1.07624259e+00
1.07841176e+00
1.07559025e+00
1.07469550e+00
1.07589242e+00
1.07552780e+00
1.07395345e+00
1.07506815e+00
1.07586573e+00
1.07248102e+00
1.07533398e+00
1.07630701e+00
1.07376149e+00
1.07101515e+00
1.07404557e+00
1.07459622e+00
1.07329295e+00
1.07319832e+00
1.07612582e+00
1.06969424e+00
1.07302797e+00
1.07179493e+00
1.07093297e+00
1.06737304e+00
1.06387551e+00
1.06490293e+00
1.06933876e+00
1.06713375e+00
1.07169992e+00
1.06908617e+00
1.06477248e+00
1.06243850e+00
1.05653657e+00
1.06396852e+00
1.07109305e+00
1.06776193e+00
1.06087059e+00
1.05415432e+00
1.06054668e+00
1.06661998e+00
1.06217806e+00
1.05692385e+00
1.05256378e+00
1.05686849e+00
1.06265324e+00
1.05532838e+00
1.04755132e+00
1.05687018e+00
1.06123924e+00
1.05597304e+00
1.05209107e+00
1.05162826e+00
1.05941417e+00
1.05396146e+00
1.04905854e+00
1.05489734e+00
1.05652794e+00
1.05133995e+00
1.05290723e+00
1.05312266e+00
1.05068282e+00
1.05205107e+00
1.05489523e+00
1.05179730e+00
1.04690594e+00
1.05332720e+00
1.05507572e+00
1.04859995e+00
1.05050599e+00
1.05421780e+00
1.05233027e+00
1.05037543e+00
1.04961750e+00
1.04805569e+00
1.05323654e+00
1.05156890e+00
1.04749705e+00
1.05215986e+00
1.05366651e+00
1.04658946e+00
1.04430454e+00
1.05000631e+00
1.04815779e+00
1.04840627e+00
1.04806638e+00
1.04919146e+00
1.05139686e+00
1.04579122e+00
1.04781033e+00
1.04823402e+00
1.04330723e+00
1.04259157e+00
1.04310652e+00
1.04181371e+00
1.03968531e+00
1.04267341e+00
1.04046513e+00
1.03978623e+00
1.04000285e+00
1.09550459e+00
1.09192988e+00
1.08536602e+00
1.09459628e+00
1.09222630e+00
1.07781006e+00
1.07370454e+00
1.07992015e+00
1.07856278e+00
1.06910353e+00
1.07269069e+00
1.06866486e+00
1.07055480e+00
1.07084595e+00
1.07486879e+00
1.07408537e+00
1.07303161e+00
1.07849769e+00
1.07722551e+00
1.07644110e+00
1.07991720e+00
1.07934440e+00
1.07716685e+00
1.07542643e+00
1.07429791e+00
1.07522510e+00
1.07522214e+00
1.07613571e+00
1.07540204e+00
1.07807238e+00
1.07867465e+00
1.07795279e+00
1.07302039e+00
1.07608353e+00
1.07465915e+00
1.07399677e+00
1.07237426e+00
1.07740739e+00
1.07374363e+00
1.07596445e+00
1.07425494e+00
1.07719372e+00
1.07604735e+00
1.07505224e+00
1.07034328e+00
1.06931134e+00
1.07252525e+00
1.07902566e+00
1.06959032e+00
1.07048502e+00
1.07021343e+00
1.07079177e+00
1.06719088e+00
1.06342869e+00
1.06189881e+00
1.06537187e+00
1.06644289e+00
1.07265463e+00
1.06934565e+00
1.05873958e+00
1.05634968e+00
1.05890398e+00
1.06479623e+00
1.06902677e+00
1.06087799e+00
1.06043535e+00
1.05420867e+00
1.05998951e+00
1.06695111e+00
1.06131500e+00
1.05192391e+00
1.05238052e+00
1.05945261e+00
1.06198360e+00
1.05053967e+00
1.05006828e+00
1.05773736e+00
1.06270033e+00
1.05337679e+00
1.04941288e+00
1.05107718e+00
1.06127035e+00
1.05450784e+00
1.04743686e+00
1.05633495e+00
1.05885907e+00
1.05096142e+00
1.05005763e+00
1.05329937e+00
1.05203580e+00
1.05171734e+00
1.05394591e+00
1.05369070e+00
1.04745753e+00
1.05215209e+00
1.05398384e+00
1.04843145e+00
1.04816009e+00
1.05660459e+00
1.05360399e+00
1.04826977e+00
1.04671229e+00
1.04811465e+00
1.05180868e+00
1.05346648e+00
1.04734770e+00
1.05429254e+00
1.05430428e+00
1.04427716e+00
1.04457430e+00
1.04876169e+00
1.04828130e+00
1.04582431e+00
1.04698248e+00
1.05122637e+00
1.05044355e+00
1.04650390e+00
1.04759079e+00
1.05035298e+00
1.04292076e+00
1.04183761e+00
1.04327771e+00
1.04267219e+00
1.03970455e+00
1.04103616e+00
1.04146350e+00
1.04035917e+00
1.04017405e+00
1.10032527e+00
1.09020475e+00
1.08913766e+00
1.08971848e+00
1.08190401e+00
1.08472716e+00
1.08442234e+00
1.08108056e+00
1.07639936e+00
1.07497536e+00
1.07757951e+00
1.07494687e+00
1.07125122e+00
1.07252950e+00
1.07833390e+00
1.07861320e+00
1.07585239e+00
1.07506157e+00
1.07658854e+00
1.07875784e+00
1.07974766e+00
1.07783861e+00
1.07539405e+00
1.07630660e+00
1.07514705e+00
1.07825410e+00
1.07491925e+00
1.07541994e+00
1.07597341e+00
1.07620950e+00
1.07737828e+00
1.07745746e+00
1.07433473e+00
1.07575111e+00
1.07433308e+00
1.07695310e+00
1.07133920e+00
1.07595184e+00
1.07306534e+00
1.07561233e+00
1.07459453e+00
1.07669320e+00
1.07450060e+00
1.07172244e+00
1.07403324e+00
1.07496538e+00
1.07076179e+00
1.07146148e+00
1.06876496e+00
1.07459420e+00
1.07307135e+00
1.06716550e+00
1.06495753e+00
1.06126896e+00
1.06235592e+00
1.06309071e+00
1.06370107e+00
1.06774348e+00
1.06576819e+00
1.06230119e+00
1.05459466e+00
1.05571261e+00
1.06029482e+00
1.07134476e+00
1.06418337e+00
1.05642807e+00
1.05135442e+00
1.05960812e+00
1.06719557e+00
1.06343491e+00
1.04804415e+00
1.04962012e+00
1.06143512e+00
1.06410410e+00
1.04545922e+00
1.04897981e+00
1.06161082e+00
1.06263535e+00
1.04962466e+00
1.04685893e+00
1.05381415e+00
1.06246113e+00
1.05299339e+00
1.04536906e+00
1.05653643e+00
1.05922756e+00
1.05079894e+00
1.04784228e+00
1.05552245e+00
1.05506944e+00
1.05056840e+00
1.05207912e+00
1.05225999e+00
1.04732106e+00
1.05232273e+00
1.05387356e+00
1.04946491e+00
1.05031802e+00
1.05542012e+00
1.05115824e+00
1.04732298e+00
1.04800021e+00
1.04844898e+00
1.05081738e+00
1.05097467e+00
1.04880348e+00
1.05500011e+00
1.05487046e+00
1.04201662e+00
1.04443956e+00
1.04962070e+00
1.04637107e+00
1.04768364e+00
1.04653635e+00
1.05162808e+00
1.04999427e+00
1.04503081e+00
1.04653842e+00
1.05005207e+00
1.04309765e+00
1.04202150e+00
1.04539200e+00
1.04289955e+00
1.04342263e+00
1.04138676e+00
1.03856228e+00
1.03829350e+00
1.03974507e+00
1.08420001e+00
1.09012410e+00
1.09727829e+00
1.08497160e+00
1.08148440e+00
1.09096628e+00
1.08676664e+00
1.08194790e+00
1.08418607e+00
1.08309432e+00
1.07689410e+00
1.07533200e+00
1.07942799e+00
1.08724968e+00
1.07697144e+00
1.07544646e+00
1.07636581e+00
1.07950747e+00
1.07944024e+00
1.07755588e+00
1.07555325e+00
1.07152042e+00
1.07685993e+00
1.07963285e+00
1.07708744e+00
1.08083624e+00
1.07678144e+00
1.07746497e+00
1.07853438e+00
1.07599576e+00
1.07641959e+00
1.07244237e+00
1.07574118e+00
1.07443330e+00
1.07393236e+00
1.08046472e+00
1.07852868e+00
1.07579681e+00
1.07372422e+00
1.07164694e+00
1.07237972e+00
1.07221297e+00
1.07377871e+00
1.07218065e+00
1.07611088e+00
1.07350350e+00
1.07304258e+00
1.07169772e+00
1.07004963e+00
1.06886336e+00
1.06976741e+00
1.06632719e+00
1.06825248e+00
1.06258388e+00
1.05906689e+00
1.06022428e+00
1.06658782e+00
1.07246185e+00
1.06616526e+00
1.05994518e+00
1.05240658e+00
1.05580262e+00
1.06501779e+00
1.07327449e+00
1.06705448e+00
1.05360186e+00
1.05280596e+00
1.06423150e+00
1.06740891e+00
1.06034088e+00
1.05250591e+00
1.05298629e+00
1.06032496e+00
1.06238091e+00
1.04923092e+00
1.04767930e+00
1.06362120e+00
1.06137720e+00
1.04863156e+00
1.04558145e+00
1.05793575e+00
1.06066775e+00
1.04765871e+00
1.04410669e+00
1.05947200e+00
1.06049275e+00
1.05017483e+00
1.04756922e+00
1.05616588e+00
1.05641918e+00
1.04815089e+00
1.05243360e+00
1.05265771e+00
1.04900833e+00
1.05112070e+00
1.05412741e+00
1.04587730e+00
1.05133387e+00
1.05607126e+00
1.04940446e+00
1.04649672e+00
1.05162749e+00
1.04698290e+00
1.05005842e+00
1.05125817e+00
1.04777507e+00
1.05459828e+00
1.05255952e+00
1.04483571e+00
1.04617375e+00
1.04926709e+00
1.04370488e+00
1.04474940e+00
1.05014917e+00
1.05080832e+00
1.05025831e+00
1.04522792e+00
1.04926778e+00
1.04951398e+00
1.04262044e+00
1.04451458e+00
1.04620378e+00
1.04005591e+00
1.04056880e+00
1.04199921e+00
1.04043056e+00
1.03733006e+00
1.03824380e+00
1.08241239e+00
1.08972690e+00
1.08647446e+00
1.08477400e+00
1.08943833e+00
1.08507687e+00
1.08346637e+00
1.08700376e+00
1.08003711e+00
1.07434713e+00
1.07850414e+00
1.08403768e+00
1.07967412e+00
1.07747613e+00
1.07830534e+00
1.08252228e+00
1.07788467e+00
1.07816630e+00
1.07807543e+00
1.07615679e+00
1.07556147e+00
1.07369222e+00
1.07609129e+00
1.07845042e+00
1.07758219e+00
1.07855536e+00
1.07861725e+00
1.07849269e+00
1.07670001e+00
1.07480773e+00
1.07795771e+00
1.07164782e+00
1.07386097e+00
1.07478796e+00
1.07539561e+00
1.07944618e+00
1.07661910e+00
1.07410322e+00
1.07583856e+00
1.07542926e+00
1.07531459e+00
1.06911363e+00
1.06802440e+00
1.07165321e+00
1.08076697e+00
1.07530280e+00
1.07199135e+00
1.07100493e+00
1.07189064e+00
1.07182929e+00
1.07237463e+00
1.06302904e+00
1.06046973e+00
1.05893481e+00
1.06421018e+00
1.06554920e+00
1.06465229e+00
1.07051662e+00
1.06994786e+00
1.06130194e+00
1.05507582e+00
1.05346455e+00
1.07006210e+00
1.07472118e+00
1.06982804e+00
1.05709940e+00
1.04830929e+00
1.06163465e+00
1.07376673e+00
1.05869929e+00
1.05022030e+00
1.05143033e+00
1.06243821e+00
1.06467384e+00
1.05245005e+00
1.04518230e+00
1.05935560e+00
1.06202618e+00
1.05019435e+00
1.04552063e+00
1.05726211e+00
1.05989914e+00
1.04374652e+00
1.04442342e+00
1.06071039e+00
1.06112687e+00
1.04671046e+00
1.04802658e+00
1.05856919e+00
1.05615415e+00
1.04464507e+00
1.05260517e+00
1.05583668e+00
1.04841503e+00
1.04871149e+00
1.05267021e+00
1.04711959e+00
1.05124576e+00
1.05706699e+00
1.04702682e+00
1.04671657e+00
1.05282697e+00
1.04753959e+00
1.04762200e+00
1.05182987e+00
1.04835326e+00
1.05393426e+00
1.05218867e+00
1.04280209e+00
1.05009389e+00
1.04922563e+00
1.04395611e+00
1.04186182e+00
1.04894988e+00
1.04908096e+00
1.05022123e+00
1.04585375e+00
1.04990934e+00
1.05004783e+00
1.04031281e+00
1.04437023e+00
1.04672548e+00
1.04044552e+00
1.03890840e+00
1.04113736e+00
1.04040216e+00
1.03904341e+00
1.03888181e+00
1.08961195e+00
1.08824926e+00
1.08315437e+00
1.09099902e+00
1.09170058e+00
1.08247848e+00
1.08209205e+00
1.08477968e+00
1.07751698e+00
1.07722218e+00
1.07886656e+00
1.08243889e+00
1.07733395e+00
1.07502908e+00
1.08105197e+00
1.07900337e+00
1.07786318e+00
1.07884217e+00
1.08169690e+00
1.07331368e+00
1.07443762e+00
1.07882855e+00
1.07890611e+00
1.08083813e+00
1.07754973e+00
1.07287592e+00
1.07574704e+00
1.08018620e+00
1.07756417e+00
1.07247893e+00
1.07759370e+00
1.07571075e+00
1.07790339e+00
1.07479673e+00
1.07387328e+00
1.07638753e+00
1.07373995e+00
1.07416570e+00
1.07506302e+00
1.07523797e+00
1.07278484e+00
1.07278099e+00
1.07495808e+00
1.07227935e+00
1.07229098e+00
1.07391314e+00
1.07464504e+00
1.07612687e+00
1.07257277e+00
1.07062891e+00
1.06724382e+00
1.06405638e+00
1.06434495e+00
1.06020221e+00
1.06021932e+00
1.06178580e+00
1.06821909e+00
1.07546528e+00
1.07078939e+00
1.06037624e+00
1.05274083e+00
1.05200757e+00
1.07067368e+00
1.07661488e+00
1.06586432e+00
1.05652620e+00
1.04794447e+00
1.05705652e+00
1.07125828e+00
1.05992382e+00
1.04883191e+00
1.04848458e+00
1.05975626e+00
1.06273991e+00
1.05057139e+00
1.04860322e+00
1.05912983e+00
1.06127005e+00
1.05014723e+00
1.04717000e+00
1.05398521e+00
1.05680315e+00
1.04764249e+00
1.04714618e+00
1.05797463e+00
1.05730145e+00
1.04805791e+00
1.04961357e+00
1.05866008e+00
1.05255685e+00
1.04601021e+00
1.05294819e+00
1.05773937e+00
1.04706528e+00
1.05110763e+00
1.05056632e+00
1.04691249e+00
1.05195530e+00
1.05451280e+00
1.04538015e+00
1.04930549e+00
1.05481137e+00
1.04284401e+00
1.04710350e+00
1.05095731e+00
1.04884873e+00
1.05178025e+00
1.05313961e+00
1.04486326e+00
1.05153238e+00
1.04789404e+00
1.03917193e+00
1.04461791e+00
1.04962866e+00
1.04895171e+00
1.04976324e+00
1.04822845e+00
1.05047608e+00
1.04874799e+00
1.04131468e+00
1.04493637e+00
1.04433663e+00
1.03909110e+00
1.04153567e+00
1.04326602e+00
1.04129588e+00
1.04065775e+00
1.04096818e+00
1.09001956e+00
1.08710474e+00
1.08890362e+00
1.08769147e+00
1.08547386e+00
1.08712781e+00
1.08609911e+00
1.07813963e+00
1.07869418e+00
1.08700389e+00
1.07964557e+00
1.07899827e+00
1.08236373e+00
1.07999758e+00
1.07992923e+00
1.08100074e+00
1.08189955e+00
1.07600258e+00
1.07385632e+00
1.07396661e+00
1.07874065e+00
1.08026668e+00
1.07994501e+00
1.07607044e+00
1.07703340e+00
1.07773727e+00
1.07643353e+00
1.07520291e+00
1.07598703e+00
1.07555643e+00
1.07876102e+00
1.07670050e+00
1.08010913e+00
1.07730250e+00
1.07716383e+00
1.07480879e+00
1.06900683e+00
1.07184318e+00
1.07406401e+00
1.07536070e+00
1.07611180e+00
1.07659552e+00
1.07659643e+00
1.07107288e+00
1.06974011e+00
1.07386686e+00
1.07379101e+00
1.07186853e+00
1.07192794e+00
1.07366830e+00
1.06751570e+00
1.06347643e+00
1.06243942e+00
1.05659048e+00
1.05930260e+00
1.06234495e+00
1.06988318e+00
1.07637035e+00
1.06660824e+00
1.06148683e+00
1.05119472e+00
1.04984608e+00
1.06552893e+00
1.07838188e+00
1.06525736e+00
1.04907059e+00
1.04513812e+00
1.05802380e+00
1.06826032e+00
1.05770026e+00
1.04565902e+00
1.04538805e+00
1.05684277e+00
1.06603985e+00
1.05083531e+00
1.04841469e+00
1.06075329e+00
1.06110587e+00
1.04930950e+00
1.04741935e+00
1.05686226e+00
1.05839048e+00
1.04899025e+00
1.04736529e+00
1.05670708e+00
1.05374768e+00
1.04745216e+00
1.05275266e+00
1.05936326e+00
1.05136679e+00
1.04324068e+00
1.05495285e+00
1.05802256e+00
1.04505619e+00
1.04869456e+00
1.05263773e+00
1.04628340e+00
1.05280040e+00
1.05423234e+00
1.04527633e+00
1.05104714e+00
1.05583562e+00
1.04019829e+00
1.04466506e+00
1.05379595e+00
1.04838718e+00
1.05261543e+00
1.05086835e+00
1.04572031e+00
1.04940777e+00
1.04980172e+00
1.03844626e+00
1.04698224e+00
1.04984742e+00
1.04493171e+00
1.04806269e+00
1.04942916e+00
1.05198514e+00
1.04559254e+00
1.04059596e+00
1.04648615e+00
1.04641132e+00
1.03852402e+00
1.04187153e+00
1.04485238e+00
1.04070606e+00
1.03816177e+00
1.03951715e+00
1.08194792e+00
1.08434787e+00
1.09218254e+00
1.08770502e+00
1.08232817e+00
1.08206884e+00
1.08525900e+00
1.08211601e+00
1.08401319e+00
1.08314540e+00
1.07800509e+00
1.08217594e+00
1.08441573e+00
1.08284272e+00
1.07966872e+00
1.08182200e+00
1.08020052e+00
1.07359098e+00
1.07143736e+00
1.08245771e+00
1.07751313e+00
1.07872702e+00
1.07834279e+00
1.07647580e+00
1.07892133e+00
1.08018534e+00
1.07725454e+00
1.07368226e+00
1.07466285e+00
1.07614465e+00
1.07696555e+00
1.07497922e+00
1.07872092e+00
1.07693843e+00
1.07469118e+00
1.07219921e+00
1.07347053e+00
1.07688396e+00
1.07295055e+00
1.07328957e+00
1.07592665e+00
1.07438583e+00
1.07581957e+00
1.07384946e+00
1.07303000e+00
1.07094771e+00
1.07284576e+00
1.07099348e+00
1.06904547e+00
1.06876369e+00
1.06706601e+00
1.06628048e+00
1.06361156e+00
1.05358333e+00
1.05696442e+00
1.06088415e+00
1.06713719e+00
1.07743437e+00
1.06711186e+00
1.05989562e+00
1.04841024e+00
1.04806973e+00
1.06574563e+00
1.07771638e+00
1.06700165e+00
1.04885801e+00
1.04455159e+00
1.05983432e+00
1.06601472e+00
1.05739145e+00
1.04932773e+00
1.04936455e+00
1.05277277e+00
1.06422195e+00
1.05351680e+00
1.04650934e+00
1.05715642e+00
1.06001530e+00
1.05083460e+00
1.04858827e+00
1.05546033e+00
1.05917155e+00
1.04921748e+00
1.04792879e+00
1.05582273e+00
1.05330007e+00
1.04777730e+00
1.05592498e+00
1.05775455e+00
1.04977743e+00
1.04511684e+00
1.05558676e+00
1.05306333e+00
1.04468349e+00
1.05291664e+00
1.05440784e+00
1.04562170e+00
1.04942310e+00
1.05240446e+00
1.04284753e+00
1.05355875e+00
1.05668289e+00
1.04241127e+00
1.04555915e+00
1.05359785e+00
1.04416678e+00
1.05025986e+00
1.05131970e+00
1.04664274e+00
1.04962439e+00
1.04766218e+00
1.04012840e+00
1.04815017e+00
1.04973660e+00
1.04286379e+00
1.04669201e+00
1.04841758e+00
1.05131105e+00
1.04781259e+00
1.04142364e+00
1.04784893e+00
1.04603502e+00
1.03863734e+00
1.04203504e+00
1.04280336e+00
1.04014375e+00
1.03928874e+00
1.04086939e+00
1.08722067e+00
1.08689911e+00
1.08396659e+00
1.08592009e+00
1.08697400e+00
1.08142158e+00
1.07935511e+00
1.08251308e+00
1.08606145e+00
1.07874707e+00
1.08339362e+00
1.08656050e+00
1.08014161e+00
1.08142190e+00
1.08010772e+00
1.07917260e+00
1.07473080e+00
1.07499916e+00
1.08143921e+00
1.08317259e+00
1.07527360e+00
1.08035628e+00
1.07771116e+00
1.08054386e+00
1.07964106e+00
1.07792170e+00
1.07437814e+00
1.07603833e+00
1.07643253e+00
1.07850402e+00
1.07629844e+00
1.07485723e+00
1.07409208e+00
1.07571078e+00
1.07624882e+00
1.07544819e+00
1.07325873e+00
1.07698052e+00
1.07331656e+00
1.07443594e+00
1.07192629e+00
1.06995099e+00
1.07470719e+00
1.07639420e+00
1.07626356e+00
1.06961786e+00
1.06876080e+00
1.07142986e+00
1.07098995e+00
1.07128276e+00
1.06602700e+00
1.06504347e+00
1.06166723e+00
1.05595562e+00
1.05912102e+00
1.06123419e+00
1.06308849e+00
1.07947398e+00
1.07050977e+00
1.05833662e+00
1.04842780e+00
1.04723014e+00
1.06906793e+00
1.07788206e+00
1.06519910e+00
1.05431791e+00
1.04440813e+00
1.06074372e+00
1.06858526e+00
1.05672599e+00
1.04630545e+00
1.05018282e+00
1.05671881e+00
1.06272406e+00
1.05189206e+00
1.04625978e+00
1.05732171e+00
1.05964849e+00
1.05081173e+00
1.04691446e+00
1.05418938e+00
1.05879684e+00
1.04921724e+00
1.04826428e+00
1.05837642e+00
1.05388876e+00
1.04690466e+00
1.05268997e+00
1.05758264e+00
1.04862070e+00
1.04706841e+00
1.05666671e+00
1.05300908e+00
1.04255424e+00
1.05530737e+00
1.05625345e+00
1.04414007e+00
1.04894259e+00
1.05223444e+00
1.04424214e+00
1.05249530e+00
1.05470994e+00
1.04031417e+00
1.04672306e+00
1.05431102e+00
1.04485558e+00
1.04848443e+00
1.05334043e+00
1.04538699e+00
1.05064082e+00
1.04593982e+00
1.03954635e+00
1.05020632e+00
1.04822715e+00
1.04318860e+00
1.04985703e+00
1.05116728e+00
1.04788027e+00
1.04709836e+00
1.04223897e+00
1.04748249e+00
1.04485373e+00
1.03941825e+00
1.04428691e+00
1.04226629e+00
1.03794984e+00
1.03690374e+00
1.04139517e+00
1.09114854e+00
1.09148027e+00
1.08242837e+00
1.08193610e+00
1.08316202e+00
1.08467840e+00
1.08387329e+00
1.08424959e+00
1.08184169e+00
1.07761646e+00
1.08249087e+00
1.08307735e+00
1.08178945e+00
1.08207799e+00
1.07544380e+00
1.07576857e+00
1.07902955e+00
1.08300023e+00
1.08162162e+00
1.07359494e+00
1.07927153e+00
1.08166465e+00
1.07651575e+00
1.07404617e+00
1.07519176e+00
1.07621843e+00
1.07516604e+00
1.07769296e+00
1.07861749e+00
1.07952362e+00
1.07692070e+00
1.07865893e+00
1.07419114e+00
1.07190215e+00
1.07228690e+00
1.07719959e+00
1.07599458e+00
1.08097046e+00
1.07554991e+00
1.07340067e+00
1.07119333e+00
1.07439448e+00
1.07482366e+00
1.07134493e+00
1.06980244e+00
1.07287482e+00
1.07474823e+00
1.07356492e+00
1.06996238e+00
1.07118258e+00
1.06416258e+00
1.06584061e+00
1.06249126e+00
1.05487083e+00
1.05645455e+00
1.06004062e+00
1.06807538e+00
1.07887745e+00
1.06947743e+00
1.05828381e+00
1.05151643e+00
1.04875888e+00
1.06889985e+00
1.07971951e+00
1.06408427e+00
1.05329487e+00
1.04725087e+00
1.05701269e+00
1.06685568e+00
1.05866052e+00
1.04952039e+00
1.04624245e+00
1.05919878e+00
1.06308757e+00
1.05170463e+00
1.04635077e+00
1.05637310e+00
1.05667884e+00
1.05118152e+00
1.04918736e+00
1.05443442e+00
1.05704226e+00
1.05087873e+00
1.04884962e+00
1.05664155e+00
1.05323798e+00
1.04933581e+00
1.05356909e+00
1.05368146e+00
1.04973662e+00
1.05058919e+00
1.05430105e+00
1.04985253e+00
1.04581821e+00
1.05428303e+00
1.05442492e+00
1.04245074e+00
1.05121022e+00
1.05443550e+00
1.04476247e+00
1.05238451e+00
1.05349347e+00
1.04133568e+00
1.04969609e+00
1.05048995e+00
1.04142592e+00
1.04809364e+00
1.05411740e+00
1.04635020e+00
1.04854326e+00
1.04413739e+00
1.04056891e+00
1.05152841e+00
1.04702477e+00
1.03931934e+00
1.05009956e+00
1.05215015e+00
1.04727494e+00
1.04509535e+00
1.04576948e+00
1.04835522e+00
1.04226350e+00
1.03818096e+00
1.04429250e+00
1.04297751e+00
1.03841145e+00
1.03721587e+00
1.03950404e+00
1.09031915e+00
1.08358971e+00
1.08363993e+00
1.08877380e+00
1.08265806e+00
1.08257816e+00
1.08367750e+00
1.07865653e+00
1.08145857e+00
1.08704948e+00
1.08421189e+00
1.08003320e+00
1.08122566e+00
1.08215696e+00
1.07605195e+00
1.07891180e+00
1.08071260e+00
1.07841933e+00
1.07731993e+00
1.07903653e+00
1.08102391e+00
1.07485487e+00
1.07700524e+00
1.07829260e+00
1.07438976e+00
1.07552114e+00
1.07622126e+00
1.07622790e+00
1.08087644e+00
1.08055801e+00
1.07381218e+00
1.07359234e+00
1.07462402e+00
1.07630571e+00
1.07548362e+00
1.07641406e+00
1.07333648e+00
1.07332136e+00
1.07304590e+00
1.07686560e+00
1.07641463e+00
1.07324181e+00
1.07170102e+00
1.07202593e+00
1.07478795e+00
1.07444448e+00
1.07263306e+00
1.07009812e+00
1.07150029e+00
1.07441086e+00
1.06523165e+00
1.06144130e+00
1.05951507e+00
1.05420269e+00
1.05822908e+00
1.05700775e+00
1.06603649e+00
1.07751503e+00
1.07329721e+00
1.06081593e+00
1.05019349e+00
1.04826471e+00
1.06666137e+00
1.07958871e+00
1.06518667e+00
1.04736782e+00
1.04790614e+00
1.05972896e+00
1.06271600e+00
1.05338498e+00
1.05028666e+00
1.04639462e+00
1.05667503e+00
1.06657271e+00
1.05078221e+00
1.04577573e+00
1.05641824e+00
1.05958743e+00
1.05053983e+00
1.04927844e+00
1.05359861e+00
1.05776475e+00
1.04698824e+00
1.04765122e+00
1.05545019e+00
1.05322040e+00
1.04821954e+00
1.05670954e+00
1.05348261e+00
1.04710975e+00
1.05052985e+00
1.05600449e+00
1.04973637e+00
1.04464830e+00
1.05510152e+00
1.05176368e+00
1.04203134e+00
1.05012103e+00
1.05477960e+00
1.04548669e+00
1.05145282e+00
1.05553875e+00
1.04227549e+00
1.05179629e+00
1.05098187e+00
1.03692688e+00
1.04936572e+00
1.05179996e+00
1.04482070e+00
1.05238053e+00
1.04650821e+00
1.04139583e+00
1.04933892e+00
1.04518015e+00
1.04159755e+00
1.05281354e+00
1.04980202e+00
1.04639376e+00
1.04789485e+00
1.04681040e+00
1.04741080e+00
1.04289221e+00
1.03925308e+00
1.04401991e+00
1.04166116e+00
1.03687254e+00
1.03760819e+00
1.04078895e+00
1.08879750e+00
1.08191246e+00
1.08416511e+00
1.08471059e+00
1.08088768e+00
1.08463557e+00
1.08405810e+00
1.08069198e+00
1.08297474e+00
1.08581561e+00
1.08508649e+00
1.08471986e+00
1.07923979e+00
1.07992028e+00
1.07814851e+00
1.08132610e+00
1.08130351e+00
1.07903888e+00
1.07840366e+00
1.07881008e+00
1.08018784e+00
1.07842449e+00
1.07923366e+00
1.07928550e+00
1.06841499e+00
1.07933244e+00
1.08314358e+00
1.07925162e+00
1.07272179e+00
1.07380991e+00
1.07607628e+00
1.07779184e+00
1.07634797e+00
1.07390195e+00
1.07232733e+00
1.07324900e+00
1.07647557e+00
1.07551792e+00
1.07144055e+00
1.07571887e+00
1.07726877e+00
1.07157762e+00
1.07400438e+00
1.07251200e+00
1.07684306e+00
1.06965613e+00
1.07301945e+00
1.07266838e+00
1.07189907e+00
1.07080152e+00
1.06793459e+00
1.06301069e+00
1.06038761e+00
1.05090279e+00
1.05601991e+00
1.05629765e+00
1.06649319e+00
1.07935302e+00
1.07271581e+00
1.05672142e+00
1.04682172e+00
1.05258064e+00
1.07002520e+00
1.07240014e+00
1.06469042e+00
1.04976698e+00
1.04504428e+00
1.05952347e+00
1.06114698e+00
1.05293324e+00
1.05062232e+00
1.04866066e+00
1.05265642e+00
1.06542881e+00
1.05290356e+00
1.04863531e+00
1.05721219e+00
1.05801364e+00
1.05108328e+00
1.04824132e+00
1.05476131e+00
1.05873387e+00
1.04839213e+00
1.04682264e+00
1.05839977e+00
1.05296402e+00
1.04885198e+00
1.05421261e+00
1.05329850e+00
1.04764349e+00
1.05041721e+00
1.05358571e+00
1.05264264e+00
1.04664197e+00
1.05515666e+00
1.05300049e+00
1.04156407e+00
1.05101643e+00
1.05323947e+00
1.04447292e+00
1.05043885e+00
1.05464590e+00
1.04532697e+00
1.05069516e+00
1.04918987e+00
1.03628350e+00
1.04876289e+00
1.05336442e+00
1.04286556e+00
1.05052028e+00
1.04838790e+00
1.04203704e+00
1.04968767e+00
1.04115295e+00
1.04101183e+00
1.05441494e+00
1.04794270e+00
1.04237331e+00
1.05057900e+00
1.04947141e+00
1.04379330e+00
1.03983555e+00
1.03976769e+00
1.04364358e+00
1.04125209e+00
1.03887180e+00
1.03855221e+00
1.04092313e+00
1.07955145e+00
1.08387817e+00
1.08129348e+00
1.07978148e+00
1.08470493e+00
1.08429208e+00
1.07730961e+00
1.08258851e+00
1.08976519e+00
1.08621746e+00
1.08163297e+00
1.08229363e+00
1.07740692e+00
1.08153247e+00
1.08409671e+00
1.07951792e+00
1.07567847e+00
1.08217887e+00
1.08206006e+00
1.07792717e+00
1.08127183e+00
1.07595484e+00
1.07362767e+00
1.07956902e+00
1.08016536e+00
1.08101719e+00
1.07312847e+00
1.07405029e+00
1.07425601e+00
1.07662528e+00
1.07620977e+00
1.07226679e+00
1.07499162e+00
1.07787447e+00
1.07970204e+00
1.07740260e+00
1.07391106e+00
1.07438581e+00
1.07420650e+00
1.07440309e+00
1.07361326e+00
1.07226992e+00
1.07911902e+00
1.07450735e+00
1.07568140e+00
1.07074154e+00
1.07347982e+00
1.07123265e+00
1.07122710e+00
1.06831448e+00
1.06689182e+00
1.06227058e+00
1.05983622e+00
1.05206179e+00
1.05604829e+00
1.05843517e+00
1.06607776e+00
1.07588485e+00
1.07332773e+00
1.05652942e+00
1.04538786e+00
1.04705284e+00
1.07183826e+00
1.07084230e+00
1.06351829e+00