# vtk DataFile Version 2.0
LBM Flow Field - Timestep 1000
ASCII
DATASET STRUCTURED_POINTS
DIMENSIONS 128 128 1
ORIGIN 0.0 0.0 0.0
SPACING 1.0 1.0 1.0
POINT_DATA 16384
SCALARS density double 1
LOOKUP_TABLE default
1.32165079e+00
1.31122681e+00
1.29880783e+00
1.28642322e+00
1.27418508e+00
1.26200710e+00
1.25005681e+00
1.23818706e+00
1.22662438e+00
1.21515619e+00
1.20407096e+00
1.19308739e+00
1.18255743e+00
1.17212963e+00
1.16221903e+00
1.15240510e+00
1.14316322e+00
1.13400755e+00
1.12546847e+00
1.11700154e+00
1.10918429e+00
1.10142293e+00
1.09433204e+00
1.08728013e+00
1.08090684e+00
1.07455632e+00
1.06888006e+00
1.06321224e+00
1.05820244e+00
1.05318950e+00
1.04880753e+00
1.04441417e+00
1.04061536e+00
1.03680047e+00
1.03353611e+00
1.03025444e+00
1.02747360e+00
1.02467737e+00
1.02232862e+00
1.01996892e+00
1.01800176e+00
1.01602990e+00
1.01439589e+00
1.01276449e+00
1.01141818e+00
1.01008208e+00
1.00898165e+00
1.00789858e+00
1.00700619e+00
1.00613735e+00
1.00541928e+00
1.00472960e+00
1.00415629e+00
1.00361458e+00
1.00316041e+00
1.00273943e+00
1.00238249e+00
1.00205877e+00
1.00178052e+00
1.00153417e+00
1.00131907e+00
1.00113351e+00
1.00096869e+00
1.00083029e+00
1.00070516e+00
1.00060291e+00
1.00050883e+00
1.00043395e+00
1.00036395e+00
1.00030957e+00
1.00025804e+00
1.00021886e+00
1.00018136e+00
1.00015331e+00
1.00012635e+00
1.00010641e+00
1.00008726e+00
1.00007317e+00
1.00005974e+00
1.00004983e+00
1.00004054e+00
1.00003362e+00
1.00002728e+00
1.00002247e+00
1.00001819e+00
1.00001487e+00
1.00001202e+00
1.00000975e+00
1.00000787e+00
1.00000633e+00
1.00000511e+00
1.00000407e+00
1.00000328e+00
1.00000259e+00
1.00000209e+00
1.00000164e+00
1.00000132e+00
1.00000102e+00
1.00000082e+00
1.00000064e+00
1.00000051e+00
1.00000039e+00
1.00000031e+00
1.00000024e+00
1.00000019e+00
1.00000014e+00
1.00000011e+00
1.00000009e+00
1.00000007e+00
1.00000005e+00
1.00000004e+00
1.00000003e+00
1.00000002e+00
1.00000002e+00
1.00000001e+00
1.00000001e+00
1.00000001e+00
1.00000001e+00
1.00000000e+00
1.00000000e+00
1.00000000e+00
1.00000000e+00
1.00000000e+00
1.00000000e+00
1.00000000e+00
1.00000000e+00
1.00000000e+00
1.00000000e+00
-9.26864776e+160
3.32231983e+160
7.02493097e+160
9.22995231e+160
-2.16368165e+161
-5.41637902e+161
-1.28134741e+162
2.92045459e+161
-3.30437638e+160
-1.36028724e+162
-7.58791742e+161
1.69970018e+162
2.31615250e+161
-5.93779993e+162
-1.94437919e+163
-2.01937123e+163
-3.35406068e+163
-3.25260338e+161
-1.80993848e+162
-1.37146652e+163
-2.02788729e+163
-4.02653399e+163
-4.84808104e+163
1.72454879e+163
3.63922474e+163
2.08080531e+163
-2.80351882e+163
-1.50905936e+164
8.17927324e+163
-3.24327846e+164
5.49573384e+165
2.86137660e+165
-4.72335455e+165
-2.27468900e+165
-4.76661599e+165
-8.69719440e+164
-1.97623614e+164
2.04138128e+166
1.18750662e+167
2.85553728e+166
-2.32708406e+167
-1.37296013e+167
-5.73510732e+167
-2.59261498e+167
7.24550871e+165
-4.84902584e+166
3.64097706e+167
-1.28891126e+166
1.70954173e+167
-1.00548438e+167
-2.09917247e+166
-1.49324476e+166
1.40781759e+166
1.01440704e+166
-6.50142182e+166
1.59643561e+167
-7.76012301e+166
1.10761413e+165
6.55668708e+164
2.42032837e+164
1.41541802e+164
-1.59292218e+164
-6.26352914e+163
-9.89828396e+162
-3.18491392e+162
-8.62132519e+162
3.89483029e+162
-5.23662516e+161
-1.58118131e+162
-5.99704806e+161
-2.15789845e+162
1.65815866e+161
-4.27671073e+161
6.65573966e+161
1.73283098e+161
5.39612645e+160
1.00017764e+161
-1.16078740e+161
-3.05548364e+160
-2.11107433e+161
2.16498882e+160
-5.70718864e+159
5.52001116e+159
1.56732606e+160
1.36431642e+160
-2.28301928e+159
-2.01754979e+159
-4.42259034e+158
-6.24721074e+158
8.60210251e+157
2.25404627e+158
-4.19601395e+157
1.34872453e+158
-1.07555435e+158
1.45701314e+158
6.57795282e+156
-4.49348853e+156
2.30661347e+156
-6.81179444e+156
5.07939306e+155
-2.54546059e+156
9.78300604e+155
1.94428506e+155
-2.13792167e+156
6.63971091e+156
-2.05354606e+156
-7.24586065e+155
3.23328845e+154
1.88342516e+154
1.77270434e+153
-2.27933741e+153
-7.81832665e+153
3.98888000e+152
-2.96076398e+153
-1.17411371e+153
-1.83087202e+151
-1.85809438e+152
-8.00988505e+150
-2.81822685e+150
-1.78254149e+151
4.16556771e+151
-1.97240665e+151
-1.44811359e+149
-4.88119071e+147
-3.93676905e+148
3.22187099e+148
2.24609528e+148
4.32601009e+148
-1.41112098e+162
-1.35407272e+162
-5.39766260e+161
-3.07623882e+160
-4.50572509e+161
-6.78797796e+160
2.55459377e+162
5.35133527e+161
-1.56961269e+162
8.72481911e+160
3.35753424e+162
-5.23287846e+162
7.45369813e+162
-1.05999790e+163
6.80782091e+162
2.34946390e+163
3.93272090e+163
3.56627438e+163
-4.40916339e+163
1.53289724e+163
6.27517855e+163
1.07333360e+164
-5.11653596e+163
-2.71276021e+163
2.55137688e+163
-2.31213874e+164
6.83209619e+163
2.29078313e+164
-1.69562468e+164
-1.21248881e+165
-6.84704997e+164
-1.71230628e+166
4.16268114e+165
5.27847506e+165
6.51644987e+165
1.43851140e+165
-1.60753192e+165
-1.74562729e+169
3.35474495e+169
-1.55573280e+169
1.34098462e+168
3.64162510e+167
6.23470489e+167
-3.08702183e+167
-2.64947162e+165
-1.66585604e+167
-1.29172568e+167
1.56970764e+167
9.55052267e+166
6.27108068e+165
-1.17368302e+167
-7.16434657e+165
5.35749987e+166
2.67408381e+166
4.99829242e+166
7.57004440e+166
-8.30926743e+165
-3.74411178e+165
7.32224600e+165
-2.45505501e+166
-3.96077933e+166
2.88208478e+164
1.11019521e+164
5.77764568e+162
3.81733589e+162
-1.67808751e+162
-4.90138107e+161
3.59646482e+161
-2.94240252e+161
3.11272899e+161
1.27618746e+162
5.57614887e+162
-4.52389529e+162
-2.16098159e+162
-1.27352205e+161
-4.98636112e+160
5.83168008e+161
-4.20160209e+161
2.57963182e+161
1.45258775e+161
5.78047510e+160
-2.97506054e+160
-7.00522650e+160
-3.31776979e+161
-2.18065199e+161
2.97621494e+158
5.26422164e+159
-5.30459302e+159
-3.71880277e+159
-1.86980718e+159
-6.37891712e+158
-1.70399376e+158
1.32502265e+158
-6.89455968e+158
-3.35105505e+158
-2.71865181e+158
-2.65045440e+158
2.38119646e+157
5.06124144e+156
-1.07833871e+157
1.59848937e+157
3.37790646e+155
1.52376919e+156
2.56847257e+156
3.68147738e+156
1.22465664e+157
3.41356870e+156
5.68853276e+155
-1.66832578e+155
7.41699623e+153
2.59081662e+154
2.22259554e+152
8.51829721e+152
-2.25041568e+152
1.19956225e+153
-7.22223447e+152
-3.42707244e+152
1.82519058e+151
-4.00495847e+150
-9.23417021e+149
8.81127567e+150
-2.55805734e+150
8.23559353e+149
-1.04707281e+149
-1.42104225e+149
3.57967645e+149
-2.69291458e+149
-5.52480504e+148
9.18921025e+161
2.57032547e+162
5.91374109e+161
1.04919029e+162
-1.16165180e+162
-4.43160475e+160
-2.58576798e+161
-1.04995336e+162
-3.87636028e+161
6.49505689e+162
-6.60934405e+161
-7.08710597e+162
3.46122593e+162
-1.98289316e+163
3.34306636e+163
1.41166746e+163
-4.31064477e+163
9.08666197e+163
-3.52793454e+163
1.18479387e+163
-2.05509927e+163
-3.43367421e+163
1.57778556e+164
5.77776904e+163
2.73294878e+163
1.41846562e+164
2.94409325e+163
7.08486041e+163
-3.25746803e+164
1.62190925e+165
2.72521008e+164
7.28154270e+165
3.72416130e+165
-1.94777470e+165
5.33033471e+165
-4.96287987e+165
-1.22164361e+167
-6.54286868e+169
1.31943872e+170
-6.65647022e+169
-8.23580715e+167
-8.95071437e+167
-1.15080230e+168
4.07519624e+167
-7.57887758e+167
7.19576352e+166
-4.96570011e+167
1.82387205e+168
-1.72200196e+168
2.25278053e+168
1.70040537e+168
-1.24257610e+166
-4.95803413e+166
-4.45933646e+166
-1.06048490e+167
-8.62181226e+165
-1.15381505e+167
-9.06339102e+166
-1.30314390e+166
1.27575286e+167
-6.62543561e+165
-1.93024309e+164
-6.17345428e+163
-2.26209031e+164
3.51373828e+164
-1.46457222e+164
-2.14827740e+164
-4.98421425e+163
3.35618097e+162
-5.51803627e+162
-2.09699562e+162
1.60255167e+162
9.10501728e+162
-9.42815849e+161
2.43010478e+162
-1.96008905e+162
-1.37010658e+162
-1.01701027e+162
-4.01442052e+161
-2.35729214e+161
-3.35789358e+161
-4.00640540e+161
1.90981082e+161
-1.69850663e+161
-1.34624716e+162
4.32542930e+160
-6.14624298e+160
2.22819912e+160
1.40617813e+160
8.15920551e+159
1.97349761e+159
-7.05860251e+159
-2.16497764e+159
-8.56639856e+158
7.37521649e+158
1.78083273e+159
7.54399335e+158
-2.16127616e+158
-1.15168041e+157
-1.56551080e+157
-6.77156040e+156
5.52537912e+156
-2.21212564e+155
2.13290589e+156
-1.00772021e+157
-2.64298381e+157
-6.74866412e+156
-1.17281712e+153
-1.64273146e+155
-3.06427706e+154
2.59972180e+154
1.54380866e+155
2.25422654e+154
-1.20008282e+153
-9.60195378e+152
-9.66397896e+152
1.04918653e+153
2.46552940e+151
-3.67915492e+150
-6.50335181e+150
-8.25393269e+149
-2.62375054e+149
1.97794243e+149
1.85042555e+149
-8.61054133e+149
1.08585156e+150
-3.36072383e+149
3.87296395e+147
3.59321025e+162
-1.92887725e+162
9.92404589e+161
3.26334077e+162
-6.41872793e+162
1.49918606e+162
1.86507694e+162
3.15296847e+162
1.81590477e+162
4.34015953e+161
-8.17001551e+163
4.23238254e+159
7.25652525e+162
3.12260900e+162
1.20171388e+163
-2.78982651e+163
-3.10358988e+163
1.25674198e+163
-3.09286139e+163
1.87077578e+163
2.56957052e+162
-3.13474805e+163
-1.28008816e+164
4.57371010e+164
4.05050679e+164
-1.72620188e+164
-2.36646329e+164
5.12185900e+164
3.46740978e+163
2.79508098e+164
5.46165757e+163
-4.66024908e+165
4.31436338e+165
-3.47704621e+165
4.86448148e+165
-3.87553355e+165
-4.10379229e+167
-1.52935285e+169
3.26782532e+169
-2.53939678e+169
-3.44496266e+168
4.86226007e+168
1.39338814e+167
4.40332465e+167
-1.25928839e+168
1.33022623e+168
9.59311760e+168
4.95808802e+168
-9.61124109e+168
1.29719750e+168
-8.67392836e+167
1.45968515e+168
1.43538037e+166
2.26227818e+166
-2.11342965e+165
-1.31337860e+167
1.95136444e+167
6.13254873e+166
-1.26748084e+167
-2.16348394e+166
1.11695499e+166
-2.88614675e+164
-1.03985497e+165
7.81897846e+164
2.61756484e+164
8.98976933e+164
-6.88475985e+164
-4.35134119e+163
-4.07522075e+163
2.22596417e+162
2.19317586e+162
3.12930059e+162
-1.66823279e+161
-1.38707927e+163
1.52973724e+162
3.54748591e+162
2.45325960e+162
1.77438460e+162
1.40735555e+162
4.79024795e+161
8.56839247e+161
1.64582520e+161
-2.31868148e+161
-5.85563706e+161
3.58314733e+162
1.70316981e+162
-6.59515462e+161
-2.21701544e+161
-1.65436282e+160
-9.63318655e+160
-1.38242563e+161
-1.81336584e+160
-9.96926366e+158
6.53489213e+159
2.11431479e+159
-1.18864132e+158
-1.14831716e+159
6.42366209e+158
-1.64366415e+158
-2.11181217e+158
-8.02017956e+157
-1.01808866e+157
-7.75962715e+156
2.11781941e+156
6.21841701e+156
1.76557244e+157
4.68755878e+156
3.96070958e+154
-4.21037629e+153
4.25518803e+153
-1.08957168e+155
-2.20204096e+155
1.52573648e+155
-1.67391112e+153
2.12354183e+153
7.65345976e+152
2.34650105e+152
1.19031324e+151
-4.87129239e+151
1.20496174e+151
-2.38233610e+149
6.10762491e+149
-1.20941552e+150
1.77445977e+150
-3.17940056e+149
5.84935055e+148
-1.16370602e+149
-9.01242942e+148
-1.19769367e+161
9.36519907e+161
1.28615727e+163
-1.33408163e+163
-6.29444760e+162
-6.00849041e+162
1.17346280e+163
1.29008972e+163
6.13326370e+162
-2.66737893e+162
-4.54781275e+163
2.29668483e+164
-5.08182044e+163
-2.14152892e+163
2.43548344e+163
-2.53118581e+162
-4.16339990e+162
-5.55299203e+162
4.31789941e+163
-1.66732466e+163
1.39770951e+163
-1.52692719e+164
6.74162328e+162
3.23033349e+164
-1.45962652e+165
-3.48612118e+164
1.14928684e+164
1.28635978e+165
3.73798036e+164
-4.29922780e+164
1.96042311e+164
6.63323702e+165
1.33851573e+165
-2.40047413e+165
6.62503304e+165
-8.71869272e+165
-5.65101035e+167
9.05733652e+167
1.18465273e+167
-1.10401870e+169
6.51933393e+169
3.49860612e+169
5.26113713e+167
4.66068122e+167
1.58718744e+168
-3.79906551e+168
-1.75783171e+169
-4.17285651e+168
-1.27049756e+168
2.34152055e+168
-2.74695016e+168
2.66289630e+168
2.11054328e+166
1.37399848e+167
2.43750044e+166
-1.91486782e+166
2.76086332e+166
1.21588961e+167
-1.05806532e+167
-2.32618090e+164
-1.24713570e+166
-4.44401401e+164
-1.26343883e+165
2.67160069e+165
4.41983607e+164
1.67857252e+165
-8.03296035e+164
1.18547085e+164
6.47290387e+163
-1.46797027e+163
-1.80280673e+163
-1.39257407e+162
3.06040080e+162
3.04213682e+163
-3.03023152e+163
-4.00777180e+162
2.23107424e+162
6.15276894e+161
-1.19972960e+162
-2.37270744e+162
3.03473433e+162
7.85193589e+161
4.91897215e+161
3.49562116e+161
-2.58367516e+162
-2.17449974e+162
-3.33226382e+161
-4.11531067e+162
1.26053927e+163
2.00876255e+161
1.35557134e+161
-5.32329053e+160
-6.40302841e+160
1.65892994e+160
1.31816827e+160
6.92343667e+159
7.56149709e+159
2.82450125e+159
1.16306957e+159
5.13424946e+158
9.56246155e+157
1.26445054e+157
-2.19510913e+157
3.64431226e+156
-2.26623505e+156
-4.48974891e+155
7.92899777e+155
2.80045562e+155
-3.83560004e+155
-6.10496741e+155
1.54312145e+155
-1.04992904e+155
2.76877655e+154
-2.07147135e+154
8.74430241e+153
1.96150019e+152
4.07674995e+152
-5.16260154e+150
-1.29836195e+151
1.86508870e+151
1.09420006e+150
-2.02362798e+150
-8.34336623e+150
5.18624953e+150
-9.71700305e+149
2.68426951e+150
-1.68944036e+150
6.91532481e+148
-3.12598331e+162
-3.50016185e+162
-2.97347449e+163
-2.50595729e+164
-1.64657321e+164
3.79850113e+164
-5.68862735e+163
-5.57607554e+163
5.44691335e+162
-6.94673309e+162
1.73624165e+163
-3.11329102e+162
-6.66273806e+163
-1.78653053e+163
-7.29678001e+162
-1.41784743e+163
-1.35379352e+163
1.18297609e+163
-2.19686949e+163
-1.96979764e+163
-8.78428201e+163
2.01123775e+164
-3.25142939e+163
-1.01299844e+164
-5.06288471e+164
9.98122860e+164
-2.10067259e+164
-2.02967028e+165
-2.43659008e+165
3.90730409e+165
7.01500625e+165
6.78347569e+165
1.21610114e+166
6.01859834e+164
1.38710834e+166
2.97356796e+166
-6.72175585e+167
1.11251824e+168
2.82136739e+168
-8.31386806e+168
-1.32616907e+170
-1.62273614e+169
6.82924981e+167
-6.51359799e+167
2.18888670e+168
-2.20976186e+168
5.26299192e+168
3.89360782e+168
2.29035465e+168
-3.33541230e+166
-5.07312085e+168
1.45544473e+167
-4.94097629e+166
1.00894028e+167
-1.03647732e+167
-1.47549223e+167
4.29566351e+166
1.44483871e+167
-2.31970590e+166
1.00783975e+164
3.68764858e+165
3.54253289e+165
-7.30290053e+164
-5.25212612e+165
1.25396898e+165
5.64581557e+164
-1.12509533e+165
-8.00170625e+163
-3.69663802e+163
-2.42731980e+163
-3.34672504e+163
4.61968969e+163
2.63856998e+163
3.96433094e+163
4.25083455e+163
-1.61518106e+163
-4.95749153e+163
4.37984892e+162
-3.25137912e+162
-5.95388502e+162
-3.52551344e+162
-1.72311002e+162
1.68299940e+162
-5.53010251e+161
2.33403489e+162
3.15375190e+162
2.05259855e+163
-5.22885147e+163
1.54975840e+163
-9.46820543e+162
-2.42702899e+162
-6.19071607e+161
-5.41889955e+161
-1.90028229e+160
7.25659672e+160
6.03704729e+160
2.40084021e+160
9.71666687e+159
2.24274084e+159
6.08426333e+158
1.10887757e+158
3.51901325e+156
1.23299365e+157
1.56402964e+157
1.00893340e+156
-5.77756407e+156
-1.74982419e+156
-4.33553584e+155
1.71605701e+156
-6.37481244e+154
-1.19208783e+155
8.86856015e+153
-7.12455796e+153
-9.20701983e+153
8.67577316e+153
2.48471641e+153
-1.32316815e+153
-7.97354654e+150
-2.05299928e+151
1.24949570e+151
2.11282987e+150
7.31390374e+149
2.65682718e+150
-1.23304850e+150
-6.14663091e+150
1.16532720e+151
-5.94293453e+150
-5.81024549e+148
8.32552829e+163
2.57836233e+164
-8.16235235e+163
-4.55964092e+164
1.27683888e+165
4.92838194e+162
5.90278715e+164
-6.70970325e+164
1.58893309e+162
-2.07493871e+163
1.57435094e+161
2.20390926e+162
-1.89954247e+162
-3.63155235e+162
3.54963639e+162
4.39861946e+163
-4.46281179e+162
8.65325122e+162
-2.40640749e+163
1.10886558e+163
-5.53043244e+163
2.88769183e+164
1.84355041e+165
2.28003604e+165
-6.28302127e+164
-1.73362036e+164
-2.15528712e+165
8.29922871e+164
5.71812397e+165
1.57710985e+164
-4.57671713e+165
-1.23438460e+166
-2.14955412e+166
-1.84856650e+166
2.97423435e+166
4.95235739e+166
-9.09179563e+167
7.20717592e+167
4.60094986e+167
3.66117524e+169
4.07955043e+169
-5.23996305e+168
1.72073687e+168
1.24258267e+167
1.46055097e+168
2.13928268e+168
-4.52922649e+167
-6.74376135e+167
-2.97546117e+167
-5.87073604e+167
2.56276074e+168
1.33714909e+168
-1.71623746e+167
8.09825128e+166
-2.15412299e+167
-6.66787795e+166
1.35775845e+167
-1.47030224e+166
-1.24303056e+166
1.08506396e+165
7.45839686e+164
-4.21638102e+165
1.82998888e+165
1.27161751e+164
3.51220771e+164
9.69359325e+163
2.54016946e+164
1.24194512e+164
5.95119490e+162
9.10888753e+163
3.08484693e+163
-1.93366689e+164
1.55211433e+163
-1.92594639e+163
-2.26701450e+163
1.60201876e+164
-1.27088850e+163
2.14140994e+162
-2.54034802e+163
7.57117237e+162
2.34037037e+162
1.34744252e+163
-1.12791500e+163
-8.35420841e+162
-1.04098372e+163
-4.74452250e+162
1.79242783e+163
5.69068221e+162
7.75692482e+162
1.00834566e+163
-5.06474023e+162
-1.62240205e+162
-3.12858000e+161
-6.43798463e+161
-6.79124030e+161
-1.29981620e+160
-7.66344303e+160
1.79649991e+160
6.20703324e+159
4.98667338e+159
1.08915437e+159
3.32315805e+158
-9.79172209e+157
-7.10452995e+156
7.73514290e+156
5.59927731e+157
2.13877120e+157
6.17302676e+155
-4.07806713e+155
5.64377442e+155
1.58460379e+154
-2.33404349e+154
3.29745817e+153
-2.20461167e+153
3.51024898e+153
1.05240742e+154
1.24229560e+154
-8.49048731e+152
-2.57155839e+151
-2.13466607e+151
4.89713855e+150
5.23156026e+150
-1.04713788e+150
-2.08424940e+149
-3.46792140e+150
3.26775339e+150
-1.97125504e+149
-8.28817386e+149
9.14016118e+163
-2.41965932e+164
-9.23648787e+163
-1.80776347e+165
2.37291685e+165
-1.50173673e+165
1.20286762e+165
-6.11389605e+164
8.37253525e+162
4.01860067e+162
-2.84230869e+162
-2.05749759e+162
-3.80644001e+162
1.74673087e+161
1.93471042e+163
1.46279141e+163
4.08973362e+163
9.11772340e+163
6.78041597e+162
-1.33990418e+164
-1.05861757e+164
-2.96092122e+164
-1.09243488e+165
-7.04842731e+165
-7.25735975e+164
2.77422899e+164
9.12831994e+165
6.22067727e+165
1.69428338e+166
-5.34054102e+165
-1.60575140e+166
-3.38987746e+166
-9.39032957e+165
-9.19191503e+165
-3.90926618e+166
-3.61538672e+166
3.96700620e+166
-7.18371162e+167
4.90818622e+167
1.27024152e+168
-1.12721073e+168
-2.02275830e+168
-1.42812833e+167
-8.68407533e+167
-5.15109553e+167
3.05027506e+168
2.37225765e+168
-1.31737443e+168
-5.63867199e+167
-6.20081083e+167
2.91728207e+168
-1.99200579e+167
-3.62634683e+167
5.82868654e+167
2.75522955e+167
-1.76111231e+166
-1.32027777e+167
-1.66664482e+166
8.64410347e+165
2.04552518e+165
5.89880042e+164
4.98864582e+165
1.54128322e+165
1.22326860e+164
6.28542707e+164
-6.95448718e+164
3.14235276e+164
-2.09002063e+164
6.20162661e+164
-2.50947482e+164
-1.60642704e+165
1.68999396e+164
-2.56842293e+164
1.50517870e+162
-1.08888360e+164
-5.32312902e+163
-8.82458535e+164
1.43777300e+165
-1.06123521e+163
2.52273320e+163
-3.54952505e+163
-1.32006894e+164
2.94827920e+164
3.29973851e+163
1.54211479e+163
1.59335004e+163
-3.45966866e+164
-2.98974265e+164
-5.49657240e+164
-1.54287664e+163
1.74962365e+163
-2.00920487e+163
-1.94454639e+162
-2.42430823e+162
-3.49232024e+162
-3.86878135e+161
-2.81499713e+161
3.86796741e+160
-7.36460546e+161
8.24599533e+161
-1.79524521e+161
-2.76243270e+159
5.46715354e+158
1.79416529e+158
-7.43051570e+156
-1.46134386e+158
-3.58706782e+157
9.70852308e+155
-1.90126859e+156
-2.84704364e+155
1.00377775e+155
3.32591159e+154
7.18308786e+153
-3.68743190e+153
1.72167140e+152
-8.84264818e+153
-3.66782668e+154
-4.20437092e+153
-2.52487580e+152
-1.20419537e+152
-2.57146879e+151
-1.16174216e+151
-6.00983661e+150
-3.07188913e+150
-9.91974950e+149
3.38048323e+149
2.31578122e+149
-1.50104330e+150
-2.85128355e+164
2.52312139e+163
2.02641983e+164
-8.42115940e+164
6.96698031e+164
-3.50462199e+163
5.89998601e+164
-8.07023982e+164
-7.32803608e+163
-1.38700332e+164
-1.69156694e+163
-2.03834159e+162
1.21579576e+163
-5.24897023e+163
4.37012239e+162
4.17290691e+163
-1.48681291e+163
-1.37578981e+164
4.01775940e+161
1.32198993e+164
1.33541535e+164
2.40109210e+164
1.37329021e+166
6.26458576e+165
-2.31235388e+165
-7.02624237e+165
-9.58317168e+164
-6.53611855e+165
5.08369025e+165
-4.99530908e+166
7.75909487e+165
6.97007293e+166
2.99630777e+166
6.82365860e+163
7.53753001e+167
9.95226642e+167
1.51532297e+167
-2.41659882e+167
-1.46478494e+168
2.04739145e+168
-1.87656784e+168
-7.37253723e+166
4.13846039e+168
-1.92628567e+168
-2.14697844e+168
-7.05966571e+168
3.88550545e+168
4.02347262e+168
5.00934752e+167
-3.64508960e+168
-5.28420490e+168
9.91158653e+166
1.61868651e+168
-1.23063416e+168
1.34565381e+167
-2.41425265e+167
5.48043701e+167
-8.58184948e+166
-2.09400422e+166
-6.21609937e+165
-1.45043951e+165
-7.00747382e+165
-7.84764063e+165
-2.28369492e+165
2.52236615e+165
4.32376308e+165
2.49776447e+165
-1.38306987e+166
-2.50414637e+165
5.14499059e+165
-1.25623002e+165
2.69766452e+164
-7.69693391e+163
-2.07728066e+163
4.30334974e+163
2.33178102e+165
-5.65943123e+165
2.27400158e+165
-2.47838506e+163
8.11200034e+163
2.73276586e+164
-1.48650003e+165
2.05875948e+164
-7.33337523e+164
-3.11638262e+164
-3.40711264e+163
2.40086944e+164
6.39315623e+164
3.87441240e+164
-1.19043638e+164
2.46953994e+163
-3.01151613e+163
2.13722995e+163
-1.75604271e+162
5.64500983e+162
-1.61320793e+162
-4.03970337e+161
3.43387227e+161
-1.58223979e+162
4.32027642e+162
-1.61047246e+162
-6.95898086e+158
-3.61034791e+159
6.06782366e+158
1.40779235e+158
5.88928094e+157
8.62240170e+156
2.05931207e+156
-1.18301694e+156
-5.14739331e+155
9.41913873e+154
1.64660572e+155
1.26610237e+154
1.31435890e+154
3.86437576e+153
-8.17658344e+153
7.00372376e+153
7.02020976e+153
3.23235611e+152
-3.22488704e+152
1.77886238e+151
2.54763743e+151
3.34886621e+150
2.04538435e+151
3.78085060e+150
6.11912367e+149
9.64030055e+149
-3.68461987e+149
1.35287629e+164
1.70954114e+164
-3.82922223e+163
2.68049735e+164
7.74336769e+163
7.94400138e+163
-6.65468296e+163
-1.25624630e+163
2.25458434e+164
2.24578296e+164
-1.32653941e+164
5.52396385e+162
7.61897926e+162
-3.65587758e+162
1.12602295e+163
3.23828401e+163
-5.60216779e+163
-1.13132483e+164
-1.88177421e+164
-1.05462966e+165
-6.06034786e+165
-8.82170156e+164
1.62301031e+164
-3.66156076e+166
1.11473387e+166
3.51680613e+165
-4.24062445e+164
-1.68020019e+166
1.49410738e+167
1.09020909e+168
1.12065738e+168
9.78493407e+167
7.13969344e+167
2.09265498e+167
1.01043241e+168
-3.21586324e+168
1.64620791e+168
2.05956833e+168
4.70804497e+166
1.37703207e+168
-9.57532849e+167
-8.41451641e+168
2.42397179e+169
4.50871090e+168
5.12938448e+168
1.83868642e+168
-1.35938765e+169
7.56376406e+167
-2.88384604e+168
-1.62626260e+168
1.14229229e+169
-1.54292084e+168
1.73745358e+168
-3.75898269e+168
1.01437759e+168
-5.38054971e+167
1.10335745e+167
-3.59549794e+167
-4.81847382e+166
4.21327654e+166
4.72935739e+166
3.94824251e+166
7.12122415e+166
-4.41941444e+165
-3.59680984e+165
-5.97895475e+165
1.07348681e+166
2.40019520e+166
-2.11148181e+166
9.45811719e+164
-8.61115866e+164
-1.30519778e+164
-1.39167842e+164
-3.36795210e+164
2.41694880e+163
1.43974108e+165
-9.30394297e+164
-1.60008957e+163
9.86412047e+163
-1.06149898e+164
1.45507407e+164
5.39331430e+164
5.92279039e+164
5.54779331e+164
2.99269729e+164
-3.14969952e+164
2.39836448e+164
-2.15956569e+164
-3.96268066e+163
3.61479278e+163
-7.32763913e+163
-1.85824813e+163
3.72650705e+162
7.76863069e+163
5.92615890e+163
-6.65530216e+162
7.21492897e+162
1.75573311e+163
4.98099624e+162
1.04077601e+162
-6.28256795e+161
1.50651321e+161
-6.24438014e+159
-1.24026258e+158
2.41200156e+158
6.48339084e+156
-2.34419151e+156
-2.40983079e+156
-4.07627133e+155
-8.37320393e+154
-2.53643082e+155
2.32216945e+155
-6.44823645e+154
2.74390170e+154
-6.53050763e+153
1.18956455e+154
9.25079340e+153
2.13431231e+153
2.02282627e+153
-2.69286431e+152
1.17377874e+151
1.06001514e+151
-1.46668273e+151
-2.67020832e+151
-3.14903793e+150
-2.45046111e+150
-5.37977203e+149
-2.68380957e+150
-2.90801287e+164
2.36014078e+163
4.28585762e+163
1.36143873e+163
-2.34018000e+164
-1.51866450e+164
1.37559996e+163
8.03684786e+163
-1.98771320e+164
7.71620448e+163
-3.03224672e+163
1.18892352e+163
-4.88421640e+162
4.63115716e+162
-4.57470268e+163
-1.82562977e+164
-5.01368227e+164
-3.83022160e+164
1.59110966e+164
-5.41905046e+165
8.53687279e+165
7.99634736e+165
-1.49927345e+166
2.83938255e+166
2.70822409e+166
2.25539831e+166
-2.72786798e+166
1.47191104e+167
7.51856112e+167
-6.11599199e+167
-1.87666687e+168
-1.46400431e+168
1.00834759e+168
-5.19662319e+168
1.60160363e+168
1.32009075e+168
-6.52933524e+168
-1.71824533e+167
-7.70242818e+167
7.93545734e+168
-6.03256981e+168
-1.78378760e+169
-6.08884027e+168
-5.29384741e+167
2.89264200e+168
2.58668156e+168
6.15084426e+168
-2.44748707e+166
2.40294306e+168
1.07264966e+168
-1.18175248e+168
-3.55925103e+168
4.70286557e+167
-2.09089179e+168
2.43710553e+168
6.66987403e+167
3.91895524e+167
-1.39930151e+167
-3.70054543e+167
2.77587165e+167
-4.21154016e+166
-1.17170930e+167
-5.54296866e+166
-3.03783084e+166
4.28634234e+166
1.19825671e+166
-3.52024837e+166
2.89079958e+165
-6.84324159e+165
2.20404428e+165
-3.54018842e+165
1.96126372e+165
2.08314046e+165
8.04202650e+164
1.64079373e+163
9.41640591e+163
7.88941394e+163
-6.12064008e+163
2.08870151e+163
-2.22104156e+164
1.27965395e+165
8.31593110e+164
2.87883270e+165
-2.94840978e+164
8.98317613e+164
-5.64065637e+164
1.25781048e+164
1.03861376e+164
-7.82635952e+162
4.23900254e+164
1.56467316e+164
-1.00374984e+163
3.80848958e+162
5.88219780e+163
-2.86767261e+164
1.68605253e+163
-1.60556242e+163
-1.78433088e+163
6.53681794e+162
6.89424222e+162
1.36837737e+162
2.57115780e+161
4.73406732e+159
-1.49438203e+159
-7.49430201e+158
8.20052662e+157
1.83383547e+157
-1.08817226e+157
-2.09049973e+156
6.37119756e+156
1.17601012e+156
-2.14375878e+156
-9.71657501e+155
-9.98203719e+155
-6.98844643e+155
-8.82928414e+154
-1.77177228e+154
4.05324362e+153
3.28864978e+153
-4.14282991e+152
-3.84285426e+151
-2.86247758e+151
1.57417056e+151
-4.00401204e+150
4.43130190e+150
-4.35624909e+150
5.18490785e+150
4.00381020e+150
1.04740711e+164
-2.41102429e+164
-2.58797580e+164
-3.21515603e+164
1.28945262e+164
1.12780787e+164
-1.57976961e+164
1.94310341e+164
2.16305607e+163
-6.82749785e+163
-2.93465523e+163
-4.91191870e+163
-9.38242226e+161
2.85492397e+162
-2.57660123e+162
-4.03790601e+164
5.10155350e+164
1.23596183e+165
6.45736889e+164
4.86405665e+164
3.23488949e+165
3.08269506e+165
-1.31462569e+166
2.21327097e+166
-1.34503510e+166
2.83325616e+166
-8.86117397e+166
5.75331108e+167
-1.20478003e+168
2.24716441e+168
-2.51623261e+167
5.31456056e+167
2.55536914e+168
-1.88261184e+168
-1.68827302e+168
2.61976408e+168
1.93997498e+168
-3.13573765e+167
-2.46420431e+167
-6.28048723e+168
-1.27909691e+169
2.42177692e+168
1.76484340e+168
-5.20115432e+168
-1.66802522e+169
5.43768461e+168
6.43770261e+168
2.00728658e+168
-1.35239008e+168
1.16484578e+168
2.97418489e+168
2.42816022e+167
1.11503812e+167
-4.09410242e+168
8.52698441e+168
-3.43441656e+168
-3.73734991e+168
6.85570350e+167
2.83760137e+168
3.69641770e+167
3.87584910e+167
9.46990221e+166
-6.56348854e+167
-9.09053895e+167
7.00467808e+166
3.01004069e+166
4.32539715e+166
8.64152385e+165
-5.75549018e+165
3.04460083e+165
2.82543653e+164
-2.07448011e+165
-1.56986121e+165
-1.35377131e+165
-1.45083175e+164
-5.17643670e+163
-7.88359508e+164
3.11425376e+164
-3.11745050e+164
-5.15274449e+163
-1.27075441e+165
-1.79210134e+165
-8.04173189e+165
6.41184842e+165
1.38391970e+165
1.36800511e+164
-4.56924359e+164
-1.05798144e+164
-2.53960175e+163
-1.44637346e+163
-6.25978909e+163
-1.12094795e+164
-5.07427972e+163
6.83481435e+159
1.11786874e+163
9.26260095e+163
-5.39585547e+162
4.32287196e+162
-2.26629046e+163
-1.02998891e+163
-2.24747446e+162
7.19568559e+161
4.62365983e+159
-3.45484929e+159
5.50345833e+158
-1.26067826e+158
6.29980679e+157
6.14809055e+156
1.89334419e+156
1.47470111e+156
-1.91870292e+157
4.38950221e+156
1.51698686e+156
1.12020628e+156
3.92696044e+155
-6.39703227e+155
-6.58210575e+154
1.28108605e+154
-8.47897883e+153
8.41599027e+151
1.33336096e+152
-1.64077439e+152
3.60340094e+151
-3.05256534e+151
2.15100821e+151
-1.80164443e+151
2.26935399e+151
4.98812770e+150
7.50297096e+163
2.70694334e+164
8.29890503e+163
2.75049894e+164
6.08991621e+163
-7.22063408e+163
2.79438313e+163
-1.04622223e+164
-5.22547892e+162
2.32307391e+163
2.01193881e+164
-2.16396066e+163
5.14577297e+162
2.21783928e+163
4.47234856e+160
-9.06796455e+164
9.21912126e+164
-6.57727980e+164
-5.80680883e+164
3.31978473e+165
-1.32020511e+165
7.70041760e+165
9.87384163e+165
-3.95140476e+166
-1.22356066e+167
-7.90754559e+166
1.23007949e+165
-1.30470747e+167
-1.16711044e+168
1.80029439e+168
-3.74810624e+168
-1.03065394e+168
-3.30444180e+168
5.90493258e+168
-3.90798690e+168
-3.66066661e+168
-1.69357115e+168
-1.31858716e+168
1.34750649e+169
2.44896139e+169
4.86212651e+168
-4.28901081e+168
2.48487491e+168
2.35438357e+169
-1.05272910e+169
1.65555198e+169
-1.89603470e+169
2.98011629e+169
1.05485377e+169
-1.10525361e+167
-7.38111637e+168
-1.61017750e+168
6.87457583e+167
-1.22702983e+168
2.61613007e+168
2.72594105e+168
3.75983931e+166
8.95226476e+167
-5.30906111e+167
-2.12230626e+168
1.12356892e+167
5.81365512e+167
3.32355230e+167
2.56795346e+168
2.62990243e+167
-7.38086533e+164
9.89321927e+165
7.81793714e+166
-1.52963153e+167
3.77543383e+165
-7.31785336e+165
2.30430789e+165
1.99732035e+165
3.28544312e+165
-3.16576729e+165
-7.82279056e+164
-4.91133091e+164
2.41904824e+165
-2.47960787e+165
6.94479437e+164
-9.78173303e+164
5.53308030e+165
-4.44276349e+165
-2.76680463e+165
1.79681069e+165
7.18220451e+164
-1.38314224e+165
-8.92731414e+162
-1.04212974e+165
-2.60273244e+162
1.33081137e+164
-7.46523602e+163
-1.94876724e+163
2.58174455e+163
7.87051086e+162
-1.57094674e+162
-5.27828439e+162
4.15202030e+163
9.75166173e+162
5.00419570e+162
-3.84903494e+161
1.64168188e+162
-1.17932757e+160
8.95278514e+159
4.41210429e+158
-5.85187325e+157
-5.04477477e+157
4.60115743e+157
-1.13011851e+157
1.35780413e+156
4.45190743e+156
5.38950720e+156
-6.37563687e+155
-5.08045139e+155
1.17629376e+156
1.91098794e+155
-1.81520002e+155
-9.63425411e+153
-2.67674856e+153
-5.35956793e+152
5.58605636e+151
-2.05658360e+152
9.67597458e+151
-9.34242885e+150
4.49450697e+151
1.15764184e+151
-8.69420952e+151
4.23519539e+151
-2.04338049e+163
-1.03981119e+162
-6.81223254e+163
-8.55143940e+163
5.97469078e+163
-1.69023816e+163
2.63912292e+163
-7.22357418e+163
1.26914536e+164
-7.84031913e+163
-1.02564502e+162
5.21336227e+162
-4.58394311e+163
-3.80184329e+163
-2.38471709e+163
-6.00337387e+163
5.20331839e+164
-4.02443931e+163
-1.54045129e+164
-1.29655476e+163
-3.76472192e+165
-9.24970166e+164
-3.17229174e+165
5.82708853e+166