# vtk DataFile Version 2.0
LBM Flow Field - Timestep 1160
ASCII
DATASET STRUCTURED_POINTS
DIMENSIONS 128 128 1
ORIGIN 0.0 0.0 0.0
SPACING 1.0 1.0 1.0
POINT_DATA 16384
SCALARS density double 1
LOOKUP_TABLE default
1.32224984e+00
1.31257199e+00
1.30103244e+00
1.28951986e+00
1.27812543e+00
1.26677858e+00
1.25561556e+00
1.24451687e+00
1.23366650e+00
1.22289263e+00
1.21242925e+00
1.20204961e+00
1.19203910e+00
1.18211460e+00
1.17261308e+00
1.16319523e+00
1.15424821e+00
1.14537845e+00
1.13702026e+00
1.12872971e+00
1.12098335e+00
1.11329278e+00
1.10617019e+00
1.09909028e+00
1.09259284e+00
1.08612475e+00
1.08024416e+00
1.07438028e+00
1.06909960e+00
1.06382447e+00
1.05911940e+00
1.05441078e+00
1.05025095e+00
1.04608094e+00
1.04243135e+00
1.03876757e+00
1.03558993e+00
1.03239671e+00
1.02965074e+00
1.02689018e+00
1.02453482e+00
1.02216790e+00
1.02016234e+00
1.01814981e+00
1.01645439e+00
1.01475763e+00
1.01333455e+00
1.01191624e+00
1.01073010e+00
1.00955483e+00
1.00857298e+00
1.00760766e+00
1.00680046e+00
1.00601460e+00
1.00535547e+00
1.00472143e+00
1.00418686e+00
1.00367990e+00
1.00324929e+00
1.00284759e+00
1.00250310e+00
1.00218765e+00
1.00191399e+00
1.00166847e+00
1.00145265e+00
1.00126322e+00
1.00109428e+00
1.00094936e+00
1.00081815e+00
1.00070819e+00
1.00060711e+00
1.00052434e+00
1.00044713e+00
1.00038528e+00
1.00032684e+00
1.00028094e+00
1.00023711e+00
1.00020328e+00
1.00017074e+00
1.00014594e+00
1.00012202e+00
1.00010395e+00
1.00008655e+00
1.00007345e+00
1.00006093e+00
1.00005148e+00
1.00004258e+00
1.00003580e+00
1.00002953e+00
1.00002469e+00
1.00002032e+00
1.00001689e+00
1.00001388e+00
1.00001146e+00
1.00000941e+00
1.00000771e+00
1.00000633e+00
1.00000515e+00
1.00000422e+00
1.00000341e+00
1.00000279e+00
1.00000224e+00
1.00000183e+00
1.00000146e+00
1.00000119e+00
1.00000095e+00
1.00000077e+00
1.00000061e+00
1.00000049e+00
1.00000039e+00
1.00000031e+00
1.00000024e+00
1.00000020e+00
1.00000015e+00
1.00000012e+00
1.00000010e+00
1.00000008e+00
1.00000006e+00
1.00000005e+00
1.00000004e+00
1.00000003e+00
1.00000002e+00
1.00000002e+00
1.00000001e+00
1.00000001e+00
1.00000001e+00
1.00000001e+00
1.00000001e+00
-5.88532576e+273
-3.39515059e+274
1.43899999e+274
-3.08062130e+274
4.69088166e+275
4.69201448e+276
3.83454056e+274
-2.95764919e+275
1.37941790e+276
9.93014752e+275
1.28862528e+275
2.95863839e+274
2.87520580e+275
1.29069618e+275
-3.51806613e+276
-5.05586450e+276
-3.63878796e+276
1.53921684e+277
1.57794638e+277
-4.35540820e+279
3.92479948e+277
-2.21836479e+278
1.68472250e+278
3.41723689e+279
-4.18470963e+279
-1.48502451e+279
5.41147660e+280
-3.58396451e+280
5.76009395e+280
6.05981610e+280
-5.13108873e+281
1.55376715e+282
-3.87505987e+281
-8.19166989e+281
1.07819187e+282
-1.20091681e+282
-1.44334321e+282
-1.63352715e+282
-8.52534611e+281
1.83817868e+282
-2.86280217e+282
-1.32561076e+282
-2.23321257e+282
1.98901691e+283
-1.59059304e+283
-5.81667992e+282
4.52512091e+282
-1.60921940e+283
3.15360899e+283
-1.20878491e+283
1.24843026e+282
2.44088276e+282
1.57573995e+282
8.78539796e+282
-2.07915679e+283
1.18643626e+283
-7.70324954e+280
4.30128801e+280
6.45437696e+279
7.36946407e+277
-3.78005449e+278
-1.77396739e+278
-5.26508747e+277
-2.77408340e+277
-2.22627559e+276
-5.00739455e+276
2.11073903e+277
2.65535614e+275
6.07000869e+275
-8.43093589e+274
5.89535666e+275
2.07986640e+275
6.86016832e+274
4.19237490e+273
-2.46822160e+272
-1.50951636e+272
3.15750364e+273
-6.37813001e+272
-8.94805735e+272
2.47944480e+273
-3.27803421e+272
1.39591296e+272
-1.75781893e+273
1.84098539e+274
7.36581712e+274
-1.04354543e+273
-1.53366793e+274
2.50080236e+274
-1.67531494e+274
2.86199999e+273
1.31664951e+274
1.78824671e+274
1.21923400e+274
2.03231733e+274
6.46124296e+273
1.61292140e+273
-1.38175259e+273
-1.30393191e+273
-4.96552624e+272
1.20118219e+272
1.94846314e+271
-3.10253539e+271
-5.18596214e+270
4.83222492e+270
7.47260919e+269
-1.63335035e+269
-1.03114300e+269
-1.39894495e+267
4.83040212e+268
1.97413083e+268
-2.01544660e+268
-4.11662215e+268
3.90302668e+268
4.54020025e+268
-5.31454613e+268
-4.64210308e+268
-1.07896187e+268
-8.53097849e+267
-2.61105400e+267
-1.90873445e+266
2.38804670e+266
5.46407609e+266
-1.06515017e+266
3.50972174e+265
-3.39152000e+265
-3.13836913e+265
3.98123452e+264
-1.14988991e+264
-1.82718686e+274
3.50085214e+274
7.95236334e+274
-6.61705020e+274
-1.25997313e+276
-1.63009679e+276
3.71791468e+275
5.74762660e+275
1.51505332e+275
-1.95202530e+276
-5.12087472e+275
1.12174517e+276
-1.99703251e+276
2.76419307e+276
1.90767396e+275
3.67492497e+277
4.48504590e+277
1.04505204e+278
1.09185530e+279
1.10277861e+279
-4.30891562e+278
9.33775994e+277
3.24778425e+278
6.40665603e+278
-1.69868701e+280
3.52044742e+280
-1.39697132e+280
-1.87605027e+281
-3.78972646e+280
-6.16212031e+281
-2.93124706e+282
6.71994056e+282
-5.02562077e+282
2.80255064e+282
1.43163985e+282
-1.57544625e+282
9.25313575e+281
2.59531611e+282
-8.50258385e+281
-3.64028264e+281
-5.46571391e+282
-8.78298482e+282
-4.70148200e+281
5.57561838e+282
-1.38955052e+283
6.34023470e+282
1.56300287e+282
-1.34493387e+283
6.75620280e+282
-5.44375378e+282
8.41967048e+281
-1.95721571e+282
-1.42104696e+282
4.97887951e+283
-1.06790862e+284
5.41414820e+283
1.02505263e+281
7.96794109e+279
-2.21592045e+280
1.27429295e+278
-3.74538532e+278
-7.22539694e+278
-2.46163895e+278
-9.25781304e+277
2.33239989e+277
2.99051239e+277
-4.15204225e+276
-8.75840062e+274
2.79403192e+276
-4.31505520e+275
-6.59729737e+275
-4.59439514e+275
-1.81164478e+275
-1.66471847e+274
3.53734668e+274
-4.52424457e+273
1.21867214e+273
7.03677498e+272
9.57245550e+272
-1.65749744e+272
-2.99248868e+273
-9.76186264e+272
-5.43583993e+272
-3.18356710e+274
-1.68447429e+275
-4.56137000e+274
5.04804088e+274
8.70872268e+273
7.91997533e+272
-3.35595154e+273
-3.10688268e+274
-3.67997451e+274
-2.16553675e+274
-1.69533988e+274
6.14970740e+273
2.40785735e+273
-3.00110750e+272
1.07975589e+273
1.06498880e+272
-2.21559729e+272
4.80411192e+271
-2.32132275e+271
-6.05076118e+270
8.73571912e+269
1.52835375e+269
1.21421703e+269
-2.35436561e+269
2.25509175e+268
4.45000851e+268
1.32068218e+269
-9.28550949e+268
-3.92841484e+268
2.29721110e+268
-4.86130811e+268
-2.53805407e+268
4.87704423e+268
-4.81009494e+267
8.70143977e+267
-5.49858787e+265
-1.54975920e+267
-1.58441400e+266
-1.97700673e+267
-9.74192174e+265
7.76889372e+266
2.15113887e+267
2.03103851e+266
2.67546891e+265
-4.66342005e+264
1.66188438e+274
1.11598759e+274
-3.44164691e+273
1.47762630e+275
-5.91775076e+274
3.41552692e+275
-5.69279993e+275
-2.21931666e+275
2.27886941e+275
2.05063032e+276
2.82438021e+276
-1.88597064e+276
-5.42276165e+276
1.69225838e+276
3.49575791e+277
-8.91807079e+276
-9.36370853e+276
-3.97388448e+277
1.91134525e+278
2.29804482e+278
3.34306045e+277
-6.18596912e+278
1.21802187e+279
3.63253225e+279
-1.53717887e+279
-7.91021621e+279
1.98786321e+280
9.65689584e+280
6.60962018e+280
1.15506793e+281
-2.02899815e+282
5.64844243e+282
-7.47939453e+282
1.15701706e+283
-9.62768040e+282
-2.26669756e+282
-4.79327574e+281
7.01826599e+282
2.75194476e+282
-6.95021120e+282
1.46552026e+283
3.64224789e+282
5.39419772e+282
1.08352174e+283
-1.49991663e+283
8.62388857e+282
8.38570326e+282
-9.52355109e+282
1.15617309e+283
-1.01750892e+283
-1.52695653e+282
1.58253546e+283
9.62863651e+282
5.40847953e+282
-2.45109573e+283
1.52836385e+283
-5.03117166e+280
-3.38447267e+280
8.29431565e+279
5.33605369e+278
-1.93742856e+279
-1.28354094e+279
3.43291514e+278
-4.49878064e+278
-4.57007755e+277
-3.19591693e+277
-5.50943301e+276
-3.67537774e+276
1.43820413e+276
-5.02877984e+275
1.82581112e+275
4.93689062e+275
-5.16999795e+275
-3.13806346e+275
3.59829333e+275
-1.04327379e+273
2.90002696e+273
1.22897091e+273
4.80742436e+273
-5.14773966e+273
2.33957128e+272
1.34491565e+273
-1.43493476e+274
5.45101056e+274
3.11165654e+274
1.05057721e+275
-1.77006051e+274
-1.59369675e+274
-2.37102932e+273
5.52774366e+274
1.15120604e+275
5.24593210e+275
1.46386503e+275
9.73748309e+273
-1.64285297e+274
1.55293228e+274
-8.13598677e+272
-5.19218859e+272
-5.29122597e+272
8.79601892e+271
6.94069232e+271
-6.70569191e+271
7.15400602e+269
1.17472111e+271
1.76757152e+270
5.44981053e+269
-4.38286459e+269
1.73838484e+269
-1.04196331e+269
1.88351785e+269
-1.94259841e+269
-3.47423108e+268
2.72714222e+268
6.32197613e+267
5.97680520e+268
-5.32017894e+268
-2.77647012e+268
1.82077220e+268
4.73072452e+267
-6.62822321e+267
1.10667059e+266
6.13639675e+266
5.37980525e+266
-9.94770584e+266
-4.37626442e+267
-9.29523561e+266
-1.79747587e+264
-9.28330804e+264
3.99003715e+273
1.05101240e+274
-3.58035328e+274
4.23138851e+275
-3.56497497e+274
-1.59909755e+275
-4.24450483e+275
6.13970363e+275
5.00599539e+275
-2.19164768e+275
2.06044156e+276
-4.27839395e+276
-8.08956189e+276
5.42654228e+275
8.79840883e+277
-6.72975574e+277
2.10981653e+278
-9.32309151e+278
4.56911565e+278
1.66868899e+278
-4.47428591e+277
-6.08806903e+278
-1.99743483e+278
-5.79793821e+277
-9.60883485e+279
-3.92856914e+280
6.40398849e+280
-5.15184726e+280
1.47977292e+281
-2.30904733e+281
-1.04707793e+282
5.24997303e+281
-7.05079418e+281
6.38533068e+281
-6.13091911e+281
3.76852365e+282
5.35621833e+282
2.66592296e+282
-9.40987961e+282
-4.25003475e+282
8.26209426e+281
-1.21688137e+282
-1.26237074e+283
2.93798232e+282
9.19690700e+282
-1.17371417e+283
1.01889846e+283
6.33908746e+282
-3.00030189e+281
7.48780727e+282
3.36959748e+282
-1.94478286e+283
2.52327846e+282
1.05527648e+282
6.91197212e+281
1.17268067e+281
-7.66800202e+280
1.27751739e+280
-7.00943233e+279
-5.10549512e+278
9.23708817e+279
-3.72305207e+279
8.53391272e+278
-4.97365072e+278
8.10639942e+278
1.95278329e+278
-9.05850163e+276
-1.63712776e+277
-2.76913044e+276
-2.74255224e+276
-2.39333609e+276
-5.72112905e+275
4.67055328e+275
-3.58661309e+275
2.73970908e+275
-1.56789318e+274
1.51293190e+273
2.81603367e+273
1.74687636e+273
-4.55018215e+273
1.22452984e+273
1.19325863e+273
-3.47941562e+274
6.66854679e+274
-1.15847232e+274
-2.14412228e+274
-3.98369383e+273
2.33772786e+274
-1.86990225e+274
-1.24848953e+274
-2.56038579e+275
-1.03776992e+276
-2.90706674e+275
1.20470636e+274
-5.76943704e+273
-4.65569028e+273
-2.72772278e+272
3.30757682e+271
1.51290955e+272
1.13194153e+272
5.76003298e+271
-1.90668702e+271
1.36166232e+271
-5.93848517e+270
2.51616963e+269
2.90458312e+269
-2.39580056e+269
3.20711660e+268
-7.61096804e+268
1.44149865e+269
3.42562810e+268
2.84775052e+268
-4.28647744e+268
4.80809775e+268
-3.84094026e+267
-2.03943540e+268
-2.23639331e+267
-1.45484613e+267
9.59186505e+267
-5.26364728e+267
-3.42099355e+266
-7.03839813e+266
7.58451575e+265
4.48672367e+265
2.03197870e+267
7.64055894e+266
4.50667795e+265
-2.65873616e+265
-6.88713569e+274
-4.27612218e+274
3.58715935e+275
-4.37270554e+275
-2.83503324e+275
1.53319242e+276
-3.93332154e+275
3.69279372e+275
-1.48638320e+276
1.43446337e+276
1.81523565e+276
-6.68283403e+276
-8.06049919e+276
-6.42917902e+277
-1.03196343e+278
-1.36765451e+278
4.15768031e+278
-2.55201880e+277
-3.51702344e+278
-7.85690177e+278
-1.33736576e+278
9.10531144e+277
-1.29938522e+279
2.85412259e+279
1.47240225e+280
-4.78130772e+280
2.45283527e+280
2.59052904e+281
4.65372779e+281
-4.82042580e+281
1.83453009e+281
5.37212968e+281
1.88646980e+282
-2.95385305e+282
9.87768415e+281
-2.88103550e+282
2.08884413e+282
-4.60612151e+283
-1.86837040e+282
9.22352182e+281
1.81233992e+283
1.28821350e+282
-2.57734105e+282
2.41104311e+283
-1.63599398e+283
1.36295732e+283
-2.03345002e+283
7.68767736e+282
1.29433083e+283
-2.73381408e+283
1.94760586e+283
-2.43824260e+282
-3.24483641e+282
-9.36948313e+281
1.13875020e+280
2.02111576e+280
-1.67896030e+279
-1.45954703e+280
-1.90321590e+279
-2.11790607e+279
1.16054783e+279
8.01701024e+278
-4.50745223e+278
-8.27325448e+278
-1.72489239e+279
1.32747418e+279
1.51646425e+277
-6.76031723e+276
2.99311650e+276
6.29347785e+276
1.41002597e+276
3.59616935e+275
1.61220371e+275
-3.82866140e+275
4.61558329e+275
3.35166043e+274
2.35069433e+273
2.13730683e+273
5.66450866e+273
-5.22135973e+273
3.00759125e+273
3.00130173e+273
-1.29675388e+274
3.36978951e+273
4.25789056e+272
-5.58992443e+272
-5.64822507e+273
-1.78004811e+274
-1.13217084e+274
-2.27990217e+273
1.45690130e+275
5.11589822e+275
1.33690945e+275
-1.37987020e+274
5.95246385e+273
6.12106418e+273
1.20737092e+273
-7.50709997e+271
-1.89356795e+272
-8.09443197e+270
1.53470120e+272
-8.91216508e+271
-1.70706341e+271
-2.48315636e+270
5.61286039e+269
7.46495501e+268
-1.78156036e+269
2.30225066e+268
2.21705521e+268
-4.65827499e+268
-1.30767049e+269
4.81725009e+268
-8.31233012e+268
8.38672604e+268
-3.61830094e+268
9.72098760e+268
6.66475982e+268
-1.54148834e+268
1.01867447e+268
-7.19216453e+267
9.68594895e+266
2.58145980e+266
4.86676901e+266
2.31741565e+266
7.21767918e+265
-1.25113601e+266
-4.44533914e+264
1.25798746e+265
2.12777762e+275
-5.59542962e+275
-1.22603304e+275
-4.33380914e+275
-1.10429270e+276
1.35608822e+276
-2.16576659e+276
2.40984224e+276
-8.74803551e+275
-1.13772837e+276
-1.12978147e+276
-3.21464644e+276
-9.19887727e+276
-3.82215470e+277
3.48236098e+278
6.71019117e+277
1.05328046e+278
1.66202264e+278
2.13920949e+278
4.50376720e+278
3.00263330e+278
-1.11942547e+278
-8.24321031e+278
-3.53563078e+278
7.89196578e+279
-2.44776836e+280
4.44529727e+280
5.25907854e+280
-8.33113262e+281
-6.86868434e+280
1.54254695e+281
-2.53029743e+282
7.12859258e+282
-1.39144331e+283
1.14293069e+283
1.02833142e+283
3.50604582e+281
6.96523688e+283
1.33050177e+283
-1.85691501e+283
-5.56264815e+283
-5.77126543e+283
2.27735246e+282
-2.98166367e+283
-3.80706097e+283
8.25532933e+283
-3.23884106e+282
3.86760781e+282
3.21635386e+283
-4.44526216e+283
-2.92873869e+282
1.30206458e+282
-4.15775211e+282
-1.37214092e+281
1.20889293e+281
-4.04595984e+280
-3.42126868e+280
1.35734713e+280
6.71529755e+279
4.10841009e+279
-3.05497460e+278
3.50291445e+278
7.93349254e+277
1.32506438e+279
-1.23843275e+279
5.31628740e+278
5.02081787e+277
-3.38681531e+277
1.41429679e+277
-4.41640084e+276
-4.63988987e+275
2.66675168e+275
-2.84695335e+275
-1.22287312e+275
-7.01704151e+273
-7.69176204e+274
-1.68101252e+274
-1.26272469e+274
1.58975139e+274
-2.78349698e+273
-9.17503913e+272
-5.88656145e+273
-5.07413602e+273
-6.99465028e+273
1.28650301e+273
4.72421990e+273
-1.50200646e+273
-4.15039240e+272
-5.12329851e+273
2.97531702e+273
6.53414815e+273
3.20201442e+273
-5.13705665e+273
5.66753776e+273
-8.90688860e+272
-4.38210338e+273
-5.15138988e+272
2.84104021e+272
1.18548884e+272
-3.30214772e+272
6.28666636e+271
-1.76724231e+271
-3.66621512e+271
-4.98711516e+270
6.54586864e+269
2.63598400e+269
-2.57047092e+269
-1.34192794e+268
5.42828049e+268
4.56970655e+268
2.84088979e+268
-5.63495120e+268
-1.56602244e+269
1.07617598e+269
-3.88944575e+268
5.43685437e+268
-2.31128691e+269
-2.03311825e+268
3.21786208e+268
-8.23269203e+267
-3.29879345e+265
7.39465641e+267
3.34303157e+267
2.96993885e+267
1.17155165e+267
1.25091399e+266
-1.25042699e+264
-1.83141568e+264
1.93002914e+275
1.38856216e+275
7.96026633e+275
5.11346805e+275
1.89499066e+276
-2.14254843e+275
-3.19129735e+276
-4.52034853e+276
-8.15173337e+275
-4.02232088e+275
-6.14790672e+275
-6.48814024e+276
-2.29598423e+277
-9.90197589e+277
1.33207095e+277
-2.18749143e+279
-1.12679170e+279
2.59115394e+278
-5.29911397e+278
-8.48874689e+278
5.19390424e+278
6.61899721e+278
4.88052141e+278
1.24504253e+279
1.67403955e+280
-5.17632488e+280
-4.99597468e+281
-1.56961964e+281
3.67810482e+280
1.95981119e+282
9.32007321e+282
-1.52220952e+283
-1.88990690e+283
8.10607230e+283
-3.75266648e+282
-1.36576204e+283
-7.47655586e+283
8.35409113e+283
-4.59969004e+283
2.07231250e+283
1.09594254e+284
1.38937872e+284
1.47177288e+283
2.40655886e+283
-2.32697391e+283
-1.47485881e+284
-3.89397624e+283
-4.01152790e+282
1.27542519e+283
2.39956312e+282
7.97763136e+282
4.75811424e+282
-3.32787126e+282
-1.20054055e+282
7.06567834e+280
-3.39372908e+280
8.39170794e+279
1.38062364e+280
-3.15992364e+278
-3.76993258e+279
-6.31983056e+278
1.13818344e+279
-1.52257791e+279
-7.60607573e+278
-2.20881605e+278
3.95307694e+278
5.46479584e+277
-4.24397006e+277
-6.00150545e+276
-2.21790609e+276
2.05077865e+275
2.18646967e+276
-1.08577720e+276
1.59410420e+275
8.55969318e+274
2.70318895e+273
-5.86855757e+274
-4.76894905e+273
-8.50776495e+274
7.18122432e+274
-1.81580585e+274
1.18397051e+274
3.03148863e+273
2.88927808e+273
-4.46175023e+273
2.20445819e+274
-1.69165406e+274
-6.36062818e+272
-7.91422512e+273
-1.61472405e+273
-2.53454129e+273
1.23743405e+274
2.10186209e+273
-1.00593127e+274
-2.03953912e+273
1.43561581e+272
-5.30436272e+272
1.63761435e+272
-1.31231471e+272
-6.09974473e+271
3.74363218e+271
-1.62976487e+270
9.25633737e+271
2.18566924e+271
9.04951859e+268
2.05367313e+269
-2.53859716e+269
-4.94739130e+268
1.85904538e+269
2.84934986e+269
-1.31263161e+268
-1.42906522e+269
4.02677303e+269
1.94873433e+269
7.42646778e+268
-1.55200206e+269
1.07116602e+269
-2.18218366e+269
4.87278209e+268
-7.14818661e+268
3.48248263e+268
3.07859744e+268
-1.31346486e+268
-3.27022717e+267
-3.22249598e+267
2.49494723e+266
1.86838461e+265
-2.60382349e+265
7.32784454e+274
1.24080290e+274
-1.96096353e+275
-9.86624503e+275
-4.72788673e+275
2.30109297e+275
2.81148953e+276
2.84309381e+276
6.08266306e+276
8.75897250e+276
-1.72720375e+277
-2.02827385e+277
-5.08669452e+277
7.62761356e+277
9.51897651e+277
-7.36248432e+278
6.11862880e+279
5.84136608e+278
4.40279966e+278
9.60235381e+278
-2.66347412e+278
-1.24976467e+279
7.33632550e+277
-3.83349597e+280
1.49905813e+281
-2.52198828e+280
-1.61553245e+281
1.45332008e+282
-7.27525424e+280
1.40121349e+283
-1.84940686e+283
5.29790429e+283
-2.11568101e+284
8.78329468e+283
2.30933332e+283
-1.31030117e+283
-7.95659127e+281
1.74908490e+283
4.63359863e+282
3.23306740e+282
-7.15542350e+283
-7.18282716e+283
9.42118562e+282
2.15599848e+283
1.31048441e+284
6.78935615e+284
2.89167077e+284
-9.70258097e+282
-3.48395322e+282
-5.33391304e+282
3.10536999e+282
8.87895336e+282
-6.29738771e+282
6.66642496e+280
1.75071211e+280
1.67623344e+280
8.84343956e+279
2.42974787e+279
8.91319625e+279
5.57979527e+279
9.91542448e+278
2.87359456e+278
1.26834334e+279
2.24201704e+278
1.97797502e+278
1.39717338e+279
3.83260168e+278
-1.57214082e+278
-2.12982612e+278
-1.54387995e+277
7.85871724e+275
-2.57382520e+276
7.95551021e+275
-1.98474477e+275
-2.21972428e+275
1.68221761e+275
-5.65657323e+274
2.22902754e+275
-3.64310203e+275
1.92797499e+275
-6.05531382e+274
1.53063695e+274
-2.36981474e+274
4.82693849e+273
-6.86331764e+273
4.85767479e+273
7.58284573e+272
2.93135739e+273
2.22278905e+274
-6.65752462e+273
-9.72242490e+273
-9.42697111e+273
-1.45623138e+273
9.08053255e+272
2.00022990e+273
5.27413093e+272
-6.59425043e+272
6.13486287e+272
-2.20536397e+271
8.03605320e+272
-9.08041311e+271
-5.53734902e+270
-5.01254904e+271
-1.45014714e+271
3.09061967e+269
6.04255270e+269
-2.08856807e+268
8.70035377e+268
8.92197863e+268
-2.15437495e+270
-5.63256840e+269
-8.94328407e+269
5.57720540e+269
-1.13085076e+269
1.39822910e+270
1.62824926e+269
4.67655243e+269
-1.45181222e+269
-5.01681269e+269
-2.48672443e+269
-2.33302260e+269
1.98315683e+269
2.06175136e+268
6.28030900e+267
5.87692200e+267
2.22478954e+267
2.06484299e+266
-2.39605251e+265
-2.38013576e+275
2.29725368e+275
1.15398695e+275
-5.21517365e+275
1.37806264e+276
2.06077567e+276
-5.76567696e+276
1.57746229e+276
1.48463216e+277
-1.32628950e+278
-1.44709098e+277
4.88274306e+277
5.65380007e+277
-5.18871373e+277
-1.27904855e+278
5.11371740e+278
-7.97361018e+278
-2.35844107e+279
-2.54596339e+278
1.01494944e+278
9.22245907e+277
1.31244904e+279
1.06276047e+280
-2.15290630e+280
-8.60842582e+279
2.88453052e+280
1.81853789e+281
-3.09671309e+281
6.44278722e+280
5.19818720e+282
-1.07316872e+283
8.65731764e+283
-1.73653531e+283
-2.89770765e+283
-2.33890622e+283
-9.10365807e+283
5.21061442e+282
-4.23524963e+282
5.07832831e+282
-2.18611726e+283
5.36736817e+283
-4.07664607e+284
-3.52051877e+284
-6.23771763e+283
-3.15612153e+284
-1.21737657e+285
-3.37084743e+284
2.01739445e+283
-1.08331639e+283
-6.49272746e+282
-1.13834698e+282
4.99808718e+282
-3.48224702e+282
-8.25242828e+279
2.15330106e+280
6.45029766e+279
7.25055700e+278
-1.25902478e+280
-3.33714206e+280
-2.45552001e+279
2.82915051e+279
8.38267556e+277
-1.39363047e+278
-4.11343355e+278
-9.04003982e+278
-2.62191236e+279
-7.33145274e+278
2.55905394e+278
2.14943747e+278
-8.98568497e+277
5.48583479e+276
3.80813740e+276
2.21596295e+276
2.69767819e+276
7.11893625e+275
8.34079212e+274
-1.27305054e+275
9.36814584e+274
-1.50572705e+275
-1.57835023e+272
3.35904018e+274
1.40804579e+275
1.51492699e+275
3.55034193e+274
4.39436391e+274
4.12071740e+273
-1.00695995e+274
-2.67673356e+273
4.88542407e+272
1.26599729e+274
6.31260926e+273
2.15045094e+273
5.13232580e+273
-1.85162978e+272
-1.05634634e+273
-2.98219492e+272
5.27508026e+271
7.78730654e+271
-9.74920726e+271
-1.41921958e+272
-2.92454198e+272
-9.91138226e+270
-6.07503750e+270
-8.14072479e+269
2.14634979e+269
-1.12311302e+270
8.90830937e+269
-6.59639892e+268
-6.88924863e+269
1.86886887e+270
-2.31269147e+270
-5.23636868e+269
9.29519645e+269
-9.37124981e+269
-6.66555175e+269
-4.52872958e+269
-3.62299307e+269
3.06867082e+269
5.20750599e+269
8.82788920e+268
1.40886009e+269
-2.10644832e+269
1.95754389e+269
3.26789157e+268
-1.29570008e+267
4.66125378e+267
1.96275302e+267
1.70402321e+266
1.74320037e+275
7.95395746e+274
-6.47621756e+275
2.24832005e+276
5.82261449e+275
-5.36301479e+276
4.37588975e+276
1.71306874e+277
2.30328337e+277
-1.24005013e+278
2.70417327e+278
-1.25674211e+278
1.03379728e+278
2.63955373e+278
-2.89390127e+278
-4.09198366e+278
1.39848912e+278
3.50568857e+278
1.50203568e+279
-3.31113279e+278
6.46151794e+278
1.71514213e+279
-9.85589763e+279
-5.66739197e+280
-7.66823005e+279
1.07616774e+280
-1.03992431e+280
-4.81977634e+280
-3.58492292e+281
-3.86723365e+281
-5.77010360e+282
-5.95543687e+281
-5.40146479e+283
2.04996632e+283
9.31613819e+283
7.69104912e+283
-9.88767469e+282
7.83181569e+282
8.56056324e+282
-2.01930013e+283
1.52574961e+284
1.04275636e+285
4.58076208e+283
1.29564702e+284
1.85096987e+284
6.54976191e+284
6.21853562e+283
3.61994381e+283
-1.35198149e+283
9.02215279e+282
-5.50836265e+281
3.76115266e+282
-4.80713286e+282
-1.82753374e+280
2.64909234e+280
8.17044588e+278
-6.12493312e+279
-1.31058055e+280
3.22038159e+280
1.05945921e+279
3.26273931e+279
-2.50497273e+278
6.49647436e+278
5.38612420e+277
5.01007476e+278
1.60401014e+279
-2.08281590e+278
-1.02153690e+278
7.68565554e+277
7.92066622e+277
2.94228010e+276
3.19254858e+276
9.84546440e+275
7.32835050e+275
5.72981893e+275
9.88502133e+275
-1.30408194e+275
3.52508841e+275
-2.29299978e+275
-1.01992709e+276
-8.59554386e+274
-7.52768540e+274
1.36684928e+274
-5.26260259e+274
-3.46261785e+274
1.80063810e+274
9.62680905e+273
-1.23568027e+272
1.01503435e+273
-3.94379638e+273
-2.85807643e+273
8.46670101e+273
6.40768464e+272
2.81998784e+273
1.65963219e+273
3.83109329e+272
3.34732776e+272
3.65786349e+272
-6.68744749e+271
2.06292795e+271
2.63848674e+271
2.41408526e+270
-1.78811371e+271
4.85841431e+270
3.53173118e+269
-3.44587215e+269
1.89257299e+270
-3.32132532e+270
1.50652183e+269
8.55954673e+269
-2.06247402e+271
2.84264102e+270
2.37505277e+270
1.75158134e+269
-1.17082604e+270
-1.28062677e+270
-1.41453450e+270
8.15817484e+269
-5.05822316e+269
-6.97328408e+269
1.35570874e+270
-4.17186238e+269
2.55797295e+269
4.46732904e+269
-3.55914693e+267
5.31477656e+266
6.51912002e+267
1.22790878e+267
8.08050804e+275
-5.89189749e+275
-1.04522723e+277
-8.84266086e+276
-3.88307334e+277
-3.69270921e+277
-1.19227474e+277
5.89166325e+276
5.75486172e+277
6.47516497e+277
-1.55406083e+278
4.81142076e+278
2.75803926e+279
1.49238983e+280
4.20435933e+279
1.30470872e+279
-2.86023503e+279
-9.05858357e+278
-1.60039672e+279
2.19439898e+279
7.01139325e+279
-1.19574932e+280
5.72508749e+279
2.20425271e+280
1.19604974e+280
-3.23214976e+281
-3.29078431e+282
-1.33281895e+282
-9.12162156e+280
2.32803528e+282
6.92851798e+282
1.31431116e+282
1.97232756e+283
-2.34546800e+281
-6.23589130e+282
-2.09690647e+284
1.09996970e+283
-2.18108797e+282
2.33965870e+283
2.25834123e+283
-2.86775644e+284
-4.48379222e+284
2.78337192e+284
-7.29182534e+283
-1.07295740e+284
2.48792310e+283
1.23664969e+282
8.75560436e+281
-8.80776356e+281
6.87112739e+281
-3.96677359e+282
2.39972759e+282
-1.99376704e+282
4.42457607e+280
-7.91382318e+280
1.82378407e+280
-1.30919726e+279
3.95606189e+280
-2.36555020e+280
-9.52742964e+279
-3.38197896e+279
-9.96877534e+278
-9.91963377e+277
4.53471105e+278
1.99752689e+278
1.75158793e+278
4.52452417e+278
3.46111300e+278
5.16374851e+277
-6.94582778e+277
-9.63908318e+277
-1.18954254e+277
9.14022586e+277
5.14895900e+277
5.72713600e+276
-5.28405682e+276
-1.41442848e+276
6.36327440e+275
-6.37593748e+275
1.64324955e+276
1.10582308e+276
7.90455785e+274
1.36988963e+273
6.61175682e+274
-4.81637627e+274
-6.46695684e+273
-8.62249104e+274
-5.39485292e+274
-7.68936662e+273
1.49373028e+274
-2.30916576e+274
1.69186100e+274
-6.15753459e+273
-5.28335791e+273
-4.35503364e+273
-1.01936155e+273
-9.58833218e+272
-7.16993593e+272
-1.13889252e+272
3.45699669e+270
-1.64959963e+271
2.71616878e+271
4.65723636e+270
2.24464373e+270
2.29478013e+270
-3.63297538e+269
-1.28641981e+270
-1.36527079e+270
1.65012612e+270
-1.78691903e+270
-1.32385403e+270
6.25318313e+271
-2.85848502e+270
5.48148796e+270
6.40040295e+270
9.89063321e+270
6.73842466e+270
1.67686962e+271
6.30841854e+270
9.49766038e+270
4.11174428e+270
7.29452056e+270
1.11997151e+270
8.47354120e+269
3.50673502e+269
-6.45600311e+267
7.93767044e+267
5.30452673e+267
-1.18960345e+276
-9.73056758e+276
2.65599316e+276
7.53614416e+276
5.59289975e+277
-8.64757078e+276
-1.10794873e+278
8.21241676e+277
-4.70714759e+277
-4.43175194e+277
4.57225448e+277
2.93787801e+278
8.90079823e+279
-1.90287995e+280
-1.30920540e+280
5.24480326e+278
-5.19829455e+280
1.23665443e+281
-3.17743567e+282
8.44237222e+282
-5.08216966e+282
-4.17381031e+280
1.57029888e+280
4.95124011e+279
8.13114778e+279
1.54240103e+282
6.96982592e+282
1.55053853e+282
-1.86056263e+281
5.90853360e+280
-4.21573686e+282
-3.61369466e+282
-6.78995449e+282
-6.35371421e+283
1.45966664e+284
1.36569267e+283
1.57394078e+284
-4.05803615e+283
-3.39644118e+283
-1.09519976e+284
-8.94477524e+282
3.73708546e+280
3.24750519e+283
6.33792133e+283
1.27219878e+283
-9.13352661e+282
6.82142860e+283
-3.39783440e+283
-9.21525176e+282
2.68970678e+282
-1.15974931e+282
6.48809908e+281
-1.34747724e+282
1.24967857e+280
-7.40271218e+279
-1.13104863e+281
-1.06957889e+281
1.18579180e+280
9.27687549e+279
1.93903737e+279
3.13125360e+279
-1.13831567e+280
-5.13993271e+279
-2.01976945e+279
-1.86483415e+278
-1.18995433e+279
-1.88442244e+278
-1.64833902e+278
2.93970236e+278
2.20099063e+278
2.43541775e+277
-3.15787758e+277
-2.42341363e+278
-4.96620037e+277
-1.58200741e+277
6.10777452e+277
3.32295006e+276
-8.67443819e+275
1.67837957e+276
4.04384838e+275
-2.88597683e+276
6.57352186e+275
-7.90069570e+275
4.11365803e+275
-5.23423082e+274
6.34389982e+274
1.03428592e+275
1.66563833e+274
-1.17190886e+274
-3.12980352e+274
-1.56137989e+274
-7.73803464e+274
2.86933884e+274
1.96931098e+274
6.43059419e+272
4.28578357e+272
1.01407973e+272
2.40361608e+273
2.80776375e+272
6.48917460e+271
6.58591165e+270
-1.28408352e+271
-8.67369428e+270
7.97638473e+270
-1.26376677e+271
-8.92743356e+270
-1.25668703e+272
-5.43798945e+271
2.93206746e+270
-7.76318791e+270
5.97456579e+270
1.41200721e+270
-4.55278567e+271
-5.79087415e+270
-1.62594059e+271
-1.73986075e+271
1.90219343e+270
-4.40868898e+270
3.22496515e+271
5.43966682e+270
-2.02867077e+271
-7.94168513e+270
-8.88593344e+269
2.92654239e+270
9.14670054e+268
2.21053190e+269
-5.62734413e+267
1.20767413e+268
-1.44581473e+276
5.80759308e+276
3.13217449e+277
6.28933800e+277
1.20117344e+278
5.71104356e+277
8.81465719e+277
-6.48675891e+277
1.26951180e+278
5.64379000e+277
8.10061371e+277
-1.64744615e+278
-1.31597486e+279
-6.44854466e+279
1.35861103e+280
-1.28188754e+279
8.78465254e+280
-8.64079255e+281
-1.68985286e+283
3.41920231e+283
-1.69889830e+283
-9.64788087e+279
-1.95770694e+279
-5.08260928e+279
-2.91736402e+280
-1.44483913e+282
-3.34022690e+282
-2.80527881e+281
-3.37192060e+280
-4.17142014e+281
1.53743750e+282
3.87841898e+282
-2.04850091e+282
-1.58362597e+283
3.76265367e+283
-2.17753866e+283
1.33324583e+284
-4.04502818e+284
1.56031016e+284
3.95705120e+283
5.20094957e+282
3.50589893e+283
-1.37466502e+284
9.38783238e+281
-6.08981100e+283
-6.05245080e+281
-1.32163858e+282
2.00601115e+283
8.69144548e+282
-1.38166056e+282
-1.47158245e+282
-3.04917787e+281
-4.12213239e+281
1.06142870e+281
6.84416743e+280
6.82501314e+281
1.87048344e+281
2.06929686e+281
5.57026067e+280
2.43969801e+280
2.86897853e+280
3.59065696e+280
1.53622817e+280
1.59147596e+279
4.67518739e+279
1.02585697e+278
1.38548698e+279
-1.31826001e+279
-1.12041190e+278
1.94681213e+278
8.14993671e+276
1.54029409e+278
4.11545911e+278
1.70332956e+278
-1.58314778e+278
5.81361649e+277
-1.63998182e+277
1.27835569e+277
-3.47827572e+276
7.08030006e+276
-3.05525535e+276
5.18607459e+275
-1.63804203e+276
1.97035986e+275
3.76502747e+274
6.39559176e+274
-4.76674027e+273
-5.75612934e+274
9.55396670e+274
-3.95071772e+274
1.56901747e+274
-7.56937646e+274
2.96191321e+275
-9.59108008e+274
1.08196270e+273
-4.16240553e+273
7.41237341e+272
5.71148259e+273
-2.27176977e+274
1.57368377e+274
1.31330647e+271
2.08259303e+271
1.42259713e+271
1.91775898e+271
-3.00216967e+271
6.87746867e+271
2.55267947e+272
4.70898866e+271
-6.27188375e+270
-1.13167930e+271
2.14927543e+271
1.19879538e+271
-7.79074588e+270
-2.47688260e+273
-4.43723274e+273
-1.31725932e+272
3.73182592e+271
-4.41088348e+271
-7.41828762e+271
7.15381270e+270
-4.54510450e+271
-3.20717550e+271
-6.23516134e+270
-2.35223703e+270
-6.02536728e+269
6.49216869e+269
-5.77562540e+268
2.24056299e+268
9.27534012e+276
1.52147372e+277
-1.90297038e+278
-1.71121229e+279
-8.50456178e+278
-5.59336635e+278
1.08616353e+278
-1.31517151e+278
1.00656621e+278
1.07282559e+278
-4.38953300e+278
1.24734551e+279
2.92971408e+279
1.91231866e+279
-6.57516142e+279
-8.54263009e+279
2.79863562e+281
1.23857952e+281
-5.15712938e+282
8.44690310e+282
-3.44419748e+282
1.19953217e+280
2.97552923e+278
1.70085812e+280
5.19787150e+280
4.34142285e+280