# vtk DataFile Version 2.0
LBM Flow Field - Timestep 210
ASCII
DATASET STRUCTURED_POINTS
DIMENSIONS 128 128 1
ORIGIN 0.0 0.0 0.0
SPACING 1.0 1.0 1.0
POINT_DATA 16384
SCALARS density double 1
LOOKUP_TABLE default
1.31160419e+00
1.28909307e+00
1.26217472e+00
1.23658152e+00
1.21109323e+00
1.18785083e+00
1.16468883e+00
1.14449167e+00
1.12429390e+00
1.10749988e+00
1.09060993e+00
1.07724222e+00
1.06371521e+00
1.05351982e+00
1.04316341e+00
1.03570110e+00
1.02814030e+00
1.02288715e+00
1.01763971e+00
1.01407381e+00
1.01062364e+00
1.00828415e+00
1.00614267e+00
1.00465787e+00
1.00340677e+00
1.00249681e+00
1.00180969e+00
1.00127412e+00
1.00091857e+00
1.00061858e+00
1.00044392e+00
1.00028588e+00
1.00020326e+00
1.00012597e+00
1.00008767e+00
1.00005301e+00
1.00003541e+00
1.00002130e+00
1.00001334e+00
1.00000814e+00
1.00000469e+00
1.00000293e+00
1.00000154e+00
1.00000098e+00
1.00000048e+00
1.00000030e+00
1.00000014e+00
1.00000008e+00
1.00000004e+00
1.00000002e+00
1.00000001e+00
1.00000000e+00
1.00000000e+00
1.00000000e+00
1.00000000e+00
1.00000000e+00
1.00000000e+00
1.00000000e+00
1.00000000e+00
1.00000000e+00
1.00000000e+00
1.00000000e+00
1.00000000e+00
1.00000000e+00
1.00000000e+00
1.00000000e+00
1.00000000e+00
1.00000000e+00
1.00000000e+00
1.00000000e+00
1.00000000e+00
1.00000000e+00
1.00000000e+00
1.00000000e+00
1.00000000e+00
1.00000000e+00
1.00000000e+00
1.00000000e+00
1.00000000e+00
1.00000000e+00
1.00000000e+00
1.00000000e+00
1.00000000e+00
1.00000000e+00
1.00000000e+00
1.00000000e+00
1.00000000e+00
1.00000000e+00
1.00000000e+00
1.00000000e+00
1.00000000e+00
1.00000000e+00
1.00000000e+00
1.00000000e+00
1.00000000e+00
1.00000000e+00
1.00000000e+00
1.00000000e+00
1.00000000e+00
1.00000000e+00
1.00000000e+00
1.00000000e+00
1.00000000e+00
1.00000000e+00
1.00000000e+00
1.00000000e+00
1.00000000e+00
1.00000000e+00
1.00000000e+00
1.00000000e+00
1.00000000e+00
1.00000000e+00
1.00000000e+00
1.00000000e+00
1.00000000e+00
1.00000000e+00
1.00000000e+00
1.00000000e+00
1.00000000e+00
1.00000000e+00
1.00000000e+00
1.00000000e+00
1.00000000e+00
1.00000000e+00
1.00000000e+00
1.00000000e+00
1.00000000e+00
1.00000000e+00
1.16370045e+00
1.15187507e+00
1.14428482e+00
1.14123817e+00
1.13706164e+00
1.12158795e+00
1.11387876e+00
1.10741508e+00
1.10974153e+00
1.11426906e+00
1.12185302e+00
1.12645585e+00
1.12421889e+00
1.12435404e+00
1.11618754e+00
1.11263958e+00
1.10941573e+00
1.10943806e+00
1.11251346e+00
1.11771959e+00
1.12371750e+00
1.12049963e+00
1.11527956e+00
1.11249755e+00
1.10946717e+00
1.10302092e+00
1.10067597e+00
1.10329400e+00
1.10604396e+00
1.10986055e+00
1.11064461e+00
1.11030408e+00
1.10581625e+00
1.10549176e+00
1.10319383e+00
1.10196550e+00
1.09411665e+00
1.09637973e+00
1.09894985e+00
1.10319954e+00
1.09882354e+00
1.09993620e+00
1.10310688e+00
1.10437550e+00
1.09226166e+00
1.08940518e+00
1.09559129e+00
1.08738210e+00
1.08194675e+00
1.08611475e+00
1.08481122e+00
1.08825657e+00
1.08913836e+00
1.08931201e+00
1.08746980e+00
1.08675274e+00
1.09257805e+00
1.09152361e+00
1.08687615e+00
1.08814512e+00
1.08533745e+00
1.08001078e+00
1.08325930e+00
1.08152695e+00
1.08184707e+00
1.07929013e+00
1.07584021e+00
1.07549819e+00
1.07624513e+00
1.07780517e+00
1.07808503e+00
1.07722653e+00
1.07677872e+00
1.07098574e+00
1.07010499e+00
1.07789595e+00
1.07611359e+00
1.07309756e+00
1.07388712e+00
1.07217152e+00
1.07232383e+00
1.07523462e+00
1.06821031e+00
1.06902243e+00
1.07095750e+00
1.06688126e+00
1.06912869e+00
1.07438927e+00
1.07460573e+00
1.07290950e+00
1.07357683e+00
1.07312435e+00
1.06807863e+00
1.06754615e+00
1.07030490e+00
1.06772308e+00
1.06813374e+00
1.07135090e+00
1.07297812e+00
1.06792745e+00
1.06481324e+00
1.06702820e+00
1.07104165e+00
1.06974231e+00
1.06616657e+00
1.07132818e+00
1.07903326e+00
1.07477373e+00
1.06600850e+00
1.06662478e+00
1.06897987e+00
1.06611447e+00
1.05838235e+00
1.05022408e+00
1.05216720e+00
1.05472897e+00
1.05427945e+00
1.04552911e+00
1.03654910e+00
1.03790048e+00
1.04314795e+00
1.04816649e+00
1.04358971e+00
1.03130279e+00
1.01664043e+00
1.00840030e+00
1.00295842e+00
9.99824722e-01
1.15674171e+00
1.15308670e+00
1.14406496e+00
1.13616824e+00
1.11912645e+00
1.11406766e+00
1.11408963e+00
1.11332897e+00
1.11895305e+00
1.12161026e+00
1.12573980e+00
1.12269017e+00
1.11731301e+00
1.10926472e+00
1.10585742e+00
1.11185951e+00
1.11645580e+00
1.11843398e+00
1.12369011e+00
1.12270017e+00
1.12168351e+00
1.11209001e+00
1.10495840e+00
1.10412514e+00
1.10501269e+00
1.10786631e+00
1.10877529e+00
1.10834344e+00
1.10874684e+00
1.10854528e+00
1.11174786e+00
1.10580044e+00
1.10200144e+00
1.10252691e+00
1.09947328e+00
1.09920771e+00
1.09820193e+00
1.10359468e+00
1.10268893e+00
1.10461584e+00
1.09468441e+00
1.09058862e+00
1.09430082e+00
1.09121938e+00
1.08699185e+00
1.09193844e+00
1.09537830e+00
1.08797409e+00
1.08899594e+00
1.09797154e+00
1.09722698e+00
1.09343607e+00
1.09233318e+00
1.09329969e+00
1.09004054e+00
1.08491954e+00
1.08557986e+00
1.08314859e+00
1.08203780e+00
1.08546648e+00
1.08205429e+00
1.07841186e+00
1.08225649e+00
1.08076402e+00
1.08177330e+00
1.08024791e+00
1.07664126e+00
1.08121180e+00
1.07813727e+00
1.07356072e+00
1.07645390e+00
1.07622920e+00
1.07545323e+00
1.07392476e+00
1.07280169e+00
1.07536696e+00
1.07156069e+00
1.06925326e+00
1.06929307e+00
1.07348162e+00
1.07529692e+00
1.07241748e+00
1.06918608e+00
1.07384082e+00
1.07245189e+00
1.06591238e+00
1.06636071e+00
1.07081876e+00
1.07256018e+00
1.07132887e+00
1.07229429e+00
1.07234709e+00
1.06948496e+00
1.06858772e+00
1.07232782e+00
1.06790078e+00
1.06299149e+00
1.06925878e+00
1.07654902e+00
1.06968984e+00
1.06039838e+00
1.06759026e+00
1.07429472e+00
1.07040934e+00
1.06074691e+00
1.06215547e+00
1.07985792e+00
1.08092541e+00
1.06630484e+00
1.05939245e+00
1.07235013e+00
1.07780331e+00
1.06273159e+00
1.04396054e+00
1.04167906e+00
1.05768028e+00
1.06497995e+00
1.05812680e+00
1.03840707e+00
1.02878159e+00
1.03253161e+00
1.04362813e+00
1.05139452e+00
1.04208362e+00
1.02768711e+00
1.01225555e+00
1.00636838e+00
1.00135177e+00
1.14396505e+00
1.14543656e+00
1.14262286e+00
1.12263573e+00
1.11206408e+00
1.11759649e+00
1.11733996e+00
1.11777036e+00
1.13039493e+00
1.13129576e+00
1.12188468e+00
1.11333776e+00
1.10706062e+00
1.11152483e+00
1.11172016e+00
1.11660086e+00
1.12091587e+00
1.12006630e+00
1.12609168e+00
1.11942800e+00
1.11369315e+00
1.10881577e+00
1.10036860e+00
1.10424809e+00
1.10738385e+00
1.10643945e+00
1.10854834e+00
1.11211798e+00
1.11406794e+00
1.10929310e+00
1.10644649e+00
1.09652278e+00
1.10032717e+00
1.10656229e+00
1.10246990e+00
1.10066935e+00
1.10039927e+00
1.10164796e+00
1.10039048e+00
1.09823700e+00
1.09172321e+00
1.08782132e+00
1.09501043e+00
1.08914706e+00
1.08230239e+00
1.09133238e+00
1.10031942e+00
1.09572405e+00
1.09357813e+00
1.09714777e+00
1.09960011e+00
1.09480260e+00
1.09332747e+00
1.09221408e+00
1.08470868e+00
1.08017042e+00
1.08611768e+00
1.08304036e+00
1.08025439e+00
1.08092581e+00
1.07661784e+00
1.07688898e+00
1.08155518e+00
1.07937405e+00
1.08255491e+00
1.08350419e+00
1.07446361e+00
1.07806404e+00
1.08177655e+00
1.07582588e+00
1.07708955e+00
1.08086602e+00
1.07529457e+00
1.07163269e+00
1.07453285e+00
1.07185505e+00
1.07383319e+00
1.07728539e+00
1.06492441e+00
1.06531182e+00
1.07715680e+00
1.07393270e+00
1.07046204e+00
1.07502073e+00
1.07446744e+00
1.06782266e+00
1.06633236e+00
1.06801523e+00
1.06759942e+00
1.06838673e+00
1.07409117e+00
1.07209966e+00
1.06698589e+00
1.06994799e+00
1.07662507e+00
1.06770317e+00
1.05664787e+00
1.06723576e+00
1.07910526e+00
1.07123208e+00
1.05657110e+00
1.06589852e+00
1.08142375e+00
1.06941610e+00
1.05313133e+00
1.05970895e+00
1.08140671e+00
1.08318227e+00
1.06238007e+00
1.05471179e+00
1.07151718e+00
1.08784166e+00
1.07126836e+00
1.04123733e+00
1.03248851e+00
1.05517475e+00
1.07504100e+00
1.06492547e+00
1.03936188e+00
1.02387044e+00
1.02825048e+00
1.04299564e+00
1.05886865e+00
1.05283132e+00
1.03271929e+00
1.01581446e+00
1.00638148e+00
1.00363837e+00
1.14465801e+00
1.13953105e+00
1.12477501e+00
1.11993208e+00
1.12271217e+00
1.11879880e+00
1.12363327e+00
1.13436739e+00
1.13797927e+00
1.12320649e+00
1.11645560e+00
1.11194463e+00
1.10860427e+00
1.11082720e+00
1.11564581e+00
1.12319783e+00
1.11819511e+00
1.12555410e+00
1.12521777e+00
1.11192367e+00
1.10502418e+00
1.10480163e+00
1.10723129e+00
1.10865775e+00
1.10731450e+00
1.10685489e+00
1.10980001e+00
1.11311567e+00
1.10861476e+00
1.10379080e+00
1.10530031e+00
1.10229660e+00
1.10264787e+00
1.10242940e+00
1.09958211e+00
1.09987488e+00
1.09683182e+00
1.09915501e+00
1.09965643e+00
1.09566829e+00
1.09702100e+00
1.09552894e+00
1.09470426e+00
1.09200917e+00
1.09032776e+00
1.09710918e+00
1.10089163e+00
1.09175514e+00
1.08993599e+00
1.09016917e+00
1.09085589e+00
1.08129657e+00
1.08130695e+00
1.09168540e+00
1.08941647e+00
1.07947387e+00
1.08377238e+00
1.08068361e+00
1.07958018e+00
1.08250617e+00
1.08294074e+00
1.08088540e+00
1.07837079e+00
1.07421789e+00
1.07655074e+00
1.08391679e+00
1.07624985e+00
1.07599594e+00
1.08429638e+00
1.07917559e+00
1.07278152e+00
1.07921109e+00
1.07789304e+00
1.07596088e+00
1.08254093e+00
1.07505338e+00
1.07036877e+00
1.07746017e+00
1.07181147e+00
1.06493808e+00
1.07478434e+00
1.07493270e+00
1.07035944e+00
1.06878355e+00
1.07334293e+00
1.07213506e+00
1.07138874e+00
1.07157518e+00
1.06285014e+00
1.06055518e+00
1.07326899e+00
1.07561524e+00
1.06262958e+00
1.06778975e+00
1.08127211e+00
1.07171118e+00
1.05310042e+00
1.06244532e+00
1.08193661e+00
1.07192681e+00
1.05364079e+00
1.06417635e+00
1.08505833e+00
1.07456104e+00
1.04556455e+00
1.05160986e+00
1.08470363e+00
1.09081879e+00
1.05717810e+00
1.04497253e+00
1.06963574e+00
1.09391640e+00
1.08088418e+00
1.04386584e+00
1.02948265e+00
1.04981745e+00
1.07962215e+00
1.07391014e+00
1.03977263e+00
1.01671634e+00
1.02288031e+00
1.04446426e+00
1.06177120e+00
1.06445933e+00
1.04116416e+00
1.01960805e+00
1.00809951e+00
1.00329591e+00
1.14326907e+00
1.12795169e+00
1.11894001e+00
1.12327295e+00
1.12296226e+00
1.12969107e+00
1.13375199e+00
1.13356297e+00
1.12636964e+00
1.12196865e+00
1.11554998e+00
1.11013472e+00
1.11008566e+00
1.11876209e+00
1.12438233e+00
1.11918222e+00
1.12253312e+00
1.12494355e+00
1.11138563e+00
1.10759751e+00
1.11131865e+00
1.10786963e+00
1.10417229e+00
1.10927620e+00
1.10738934e+00
1.10836309e+00
1.10598479e+00
1.11193609e+00
1.10666567e+00
1.10514071e+00
1.10812020e+00
1.09871789e+00
1.10359510e+00
1.10029348e+00
1.09643200e+00
1.09861951e+00
1.09827386e+00
1.09649558e+00
1.09487473e+00
1.09342213e+00
1.10099492e+00
1.10081731e+00
1.09999510e+00
1.10012982e+00
1.09614331e+00
1.09708226e+00
1.09405222e+00
1.08367671e+00
1.08682591e+00
1.08642583e+00
1.08647362e+00
1.08073334e+00
1.07871485e+00
1.08812900e+00
1.08445311e+00
1.07666073e+00
1.08820095e+00
1.08874135e+00
1.08520894e+00
1.08325391e+00
1.08090470e+00
1.07995173e+00
1.08182154e+00
1.07795472e+00
1.07575937e+00
1.08115897e+00
1.07759689e+00
1.07553024e+00
1.08251770e+00
1.07895020e+00
1.07503122e+00
1.07750004e+00
1.07854069e+00
1.07472591e+00
1.07640521e+00
1.07682858e+00
1.07301756e+00
1.07685429e+00
1.07876674e+00
1.07065877e+00
1.07108557e+00
1.07163767e+00
1.06653864e+00
1.07047774e+00
1.07282108e+00
1.06709228e+00
1.06671726e+00
1.07540654e+00
1.06607505e+00
1.06015416e+00
1.07282938e+00
1.07495411e+00
1.05981067e+00
1.06446188e+00
1.08120777e+00
1.07362822e+00
1.05557009e+00
1.06150807e+00
1.08162751e+00
1.07249951e+00
1.04807860e+00
1.06131958e+00
1.08910525e+00
1.07944598e+00
1.04563291e+00
1.04486524e+00
1.07844431e+00
1.09239049e+00
1.06131411e+00
1.04114712e+00
1.06781614e+00
1.09694407e+00
1.08204378e+00
1.03985184e+00
1.02809831e+00
1.05392107e+00
1.08585920e+00
1.08154930e+00
1.04324976e+00
1.01321008e+00
1.01314363e+00
1.04024110e+00
1.06463426e+00
1.06965235e+00
1.05139339e+00
1.02590431e+00
1.01111418e+00
1.00264961e+00
1.12319408e+00
1.11750194e+00
1.12626397e+00
1.12415828e+00
1.13085989e+00
1.13616478e+00
1.13353951e+00
1.12738494e+00
1.12125007e+00
1.11828980e+00
1.11017042e+00
1.11621295e+00
1.12029264e+00
1.12782241e+00
1.11827597e+00
1.11682433e+00
1.12259032e+00
1.11506897e+00
1.11001785e+00
1.10393622e+00
1.10646365e+00
1.10943455e+00
1.11490752e+00
1.11623505e+00
1.10219978e+00
1.10482037e+00
1.10647298e+00
1.10749472e+00
1.10122340e+00
1.10439756e+00
1.10829799e+00
1.10137105e+00
1.10326161e+00
1.10205837e+00
1.09353743e+00
1.09924147e+00
1.09943974e+00
1.09536975e+00
1.09170141e+00
1.09582619e+00
1.10247862e+00
1.09926229e+00
1.09632113e+00
1.09741232e+00
1.09330385e+00
1.09290115e+00
1.09334234e+00
1.08875119e+00
1.09104366e+00
1.08568483e+00
1.08524272e+00
1.08695168e+00
1.08387154e+00
1.08793279e+00
1.08717419e+00
1.08092019e+00
1.08944918e+00
1.08415799e+00
1.07863451e+00
1.08488197e+00
1.08514217e+00
1.08266645e+00
1.08738785e+00
1.08335296e+00
1.07929034e+00
1.08360209e+00
1.07756089e+00
1.07448894e+00
1.07588045e+00
1.07642948e+00
1.07824603e+00
1.07360164e+00
1.06902852e+00
1.07409735e+00
1.07444183e+00
1.07358895e+00
1.07155111e+00
1.07733946e+00
1.07763306e+00
1.06761278e+00
1.07184589e+00
1.07403866e+00
1.06567911e+00
1.06882015e+00
1.06879179e+00
1.06185670e+00
1.07146868e+00
1.07771428e+00
1.06510162e+00
1.05782787e+00
1.07273531e+00
1.07544712e+00
1.05886042e+00
1.06263192e+00
1.08144844e+00
1.07471745e+00
1.05068079e+00
1.06193485e+00
1.08542576e+00
1.07451685e+00
1.04652482e+00
1.05421179e+00
1.08826290e+00
1.08248736e+00
1.04770353e+00
1.04292080e+00
1.07619470e+00
1.08927761e+00
1.06081315e+00
1.03833846e+00
1.06306445e+00
1.09955367e+00
1.08848847e+00
1.04361903e+00
1.02324853e+00
1.04988156e+00
1.08901284e+00
1.08733845e+00
1.04772937e+00
1.01518352e+00
1.01208314e+00
1.03495938e+00
1.06806504e+00
1.07859522e+00
1.05745044e+00
1.02972626e+00
1.01050020e+00
1.00137869e+00
1.11458022e+00
1.12031267e+00
1.12711399e+00
1.13160849e+00
1.13478552e+00
1.13538821e+00
1.12820682e+00
1.12173738e+00
1.11995022e+00
1.11729022e+00
1.11663401e+00
1.12086380e+00
1.12629041e+00
1.12322520e+00
1.12155116e+00
1.11979595e+00
1.10628499e+00
1.10794768e+00
1.10727933e+00
1.11216326e+00
1.11609120e+00
1.11171178e+00
1.10742270e+00
1.10664007e+00
1.10929159e+00
1.10931709e+00
1.10477821e+00
1.10239357e+00
1.10429807e+00
1.10532035e+00
1.10632059e+00
1.09971620e+00
1.09700126e+00
1.09832375e+00
1.09729597e+00
1.10073446e+00
1.10084230e+00
1.09715773e+00
1.09168117e+00
1.09756634e+00
1.09553482e+00
1.09069752e+00
1.09026908e+00
1.09460665e+00
1.09212942e+00
1.09053167e+00
1.08550226e+00
1.08988067e+00
1.09635915e+00
1.09236444e+00
1.08903997e+00
1.09144342e+00
1.08731021e+00
1.08920348e+00
1.08655936e+00
1.08043839e+00
1.08387055e+00
1.08029892e+00
1.07897765e+00
1.08493261e+00
1.08310584e+00
1.07987433e+00
1.08579041e+00
1.08091809e+00
1.07834017e+00
1.08128861e+00
1.07726383e+00
1.07645387e+00
1.07872340e+00
1.06686582e+00
1.07122987e+00
1.07609714e+00
1.06735709e+00
1.07005585e+00
1.07869460e+00
1.07120676e+00
1.06740774e+00
1.07306030e+00
1.07362863e+00
1.07061937e+00
1.07879740e+00
1.07001365e+00
1.05766730e+00
1.06958837e+00
1.07229567e+00
1.06085876e+00
1.06539887e+00
1.07803898e+00
1.06874447e+00
1.05930961e+00
1.06910190e+00
1.07683637e+00
1.05668466e+00
1.05487890e+00
1.08147323e+00
1.08061133e+00
1.05402436e+00
1.05557771e+00
1.08464941e+00
1.07841597e+00
1.04922378e+00
1.05059564e+00
1.08308272e+00
1.08171113e+00
1.04920793e+00
1.04404481e+00
1.07536413e+00
1.08666729e+00
1.05692069e+00
1.03913880e+00
1.06159101e+00
1.09950503e+00
1.08916260e+00
1.04318870e+00
1.02452432e+00
1.04899746e+00
1.09050901e+00
1.09152696e+00
1.04897701e+00
1.01217878e+00
1.01063121e+00
1.03374318e+00
1.06789181e+00
1.08859832e+00
1.06815504e+00
1.03579165e+00
1.01316915e+00
1.00351421e+00
1.12449973e+00
1.12834059e+00
1.12903722e+00
1.13436673e+00
1.13506867e+00
1.12940093e+00
1.11946768e+00
1.12121454e+00
1.11740311e+00
1.11532877e+00
1.12102413e+00
1.13027775e+00
1.12344441e+00
1.11951209e+00
1.11998429e+00
1.11471449e+00
1.11286439e+00
1.10685648e+00
1.10877134e+00
1.11088440e+00
1.10971601e+00
1.10778658e+00
1.10754273e+00
1.10685294e+00
1.10741528e+00
1.11062465e+00
1.10881399e+00
1.10545419e+00
1.10198291e+00
1.10118121e+00
1.10047968e+00
1.09886192e+00
1.09912106e+00
1.09747429e+00
1.10022843e+00
1.09974997e+00
1.09735065e+00
1.10025784e+00
1.09443524e+00
1.09587099e+00
1.08964727e+00
1.09002185e+00
1.09100913e+00
1.08855916e+00
1.08989005e+00
1.09546778e+00
1.08551218e+00
1.09306222e+00
1.09596776e+00
1.08636432e+00
1.08527264e+00
1.09051232e+00
1.08728518e+00
1.08400795e+00
1.08055097e+00
1.08315636e+00
1.08637776e+00
1.07955872e+00
1.07911148e+00
1.08151959e+00
1.07903448e+00
1.07530448e+00
1.08157501e+00
1.07699146e+00
1.07561345e+00
1.07924589e+00
1.07380668e+00
1.07209906e+00
1.08108240e+00
1.06861302e+00
1.06969509e+00
1.08447100e+00
1.07450824e+00
1.06896915e+00
1.07614934e+00
1.07144207e+00
1.06737682e+00
1.07459103e+00
1.06919968e+00
1.06799039e+00
1.07528870e+00
1.07259843e+00
1.06209560e+00
1.07247465e+00
1.07400627e+00
1.06159159e+00
1.05954189e+00
1.07296415e+00
1.07216026e+00
1.05953133e+00
1.06883288e+00
1.07810522e+00
1.05836230e+00
1.04795013e+00
1.07871704e+00
1.08187888e+00
1.05759345e+00
1.05586262e+00
1.07784159e+00
1.07797427e+00
1.05345066e+00
1.05360671e+00
1.07981343e+00
1.07927468e+00
1.04921264e+00
1.04297169e+00
1.07242374e+00
1.08762128e+00
1.05634792e+00
1.03525393e+00
1.05993744e+00
1.09724017e+00
1.09102628e+00
1.04683767e+00
1.02611818e+00
1.04965681e+00
1.09072437e+00
1.09338282e+00
1.05151420e+00
1.01395835e+00
1.00747370e+00
1.03132826e+00
1.06685778e+00
1.08909983e+00
1.07739552e+00
1.04312849e+00
1.01786964e+00
1.00665671e+00
1.12499101e+00
1.13064837e+00
1.13574495e+00
1.12903046e+00
1.13099491e+00
1.12206504e+00
1.12223598e+00
1.11556365e+00
1.11832112e+00
1.12326747e+00
1.12250263e+00
1.12473120e+00
1.11950742e+00
1.12717126e+00
1.11483691e+00
1.10580340e+00
1.11297837e+00
1.11543892e+00
1.11532972e+00
1.10874522e+00
1.10789854e+00
1.10300437e+00
1.10090387e+00
1.10588283e+00
1.11030051e+00
1.11162788e+00
1.10491882e+00
1.10826543e+00
1.10382790e+00
1.10237565e+00
1.09321960e+00
1.09233068e+00
1.10118551e+00
1.10115954e+00
1.09912432e+00
1.09900911e+00
1.09139191e+00
1.10027463e+00
1.09570187e+00
1.09590640e+00
1.08911491e+00
1.09512742e+00
1.09748861e+00
1.09525847e+00
1.09310238e+00
1.09949970e+00
1.08151899e+00
1.09206177e+00
1.09510358e+00
1.08079047e+00
1.07997940e+00
1.09001303e+00
1.08140747e+00
1.08065473e+00
1.07876325e+00
1.08655171e+00
1.08945203e+00
1.08066055e+00
1.07875643e+00
1.08681564e+00
1.08116079e+00
1.07517102e+00
1.07737062e+00
1.07467809e+00
1.07451044e+00
1.07731370e+00
1.07366307e+00
1.07694277e+00
1.08255971e+00
1.07567300e+00
1.07335916e+00
1.08052140e+00
1.07579374e+00
1.07168272e+00
1.07572074e+00
1.07332270e+00
1.07164878e+00
1.07200564e+00
1.06526222e+00
1.06145848e+00
1.07270912e+00
1.07408787e+00
1.06642406e+00
1.07161844e+00
1.07754489e+00
1.06046703e+00
1.06182653e+00
1.07682408e+00
1.06901155e+00
1.05043744e+00
1.06642287e+00
1.08367822e+00
1.06297964e+00
1.04631395e+00
1.06729648e+00
1.08218437e+00
1.06306054e+00
1.05687281e+00
1.07537410e+00
1.07486901e+00
1.05292816e+00
1.05348105e+00
1.07727544e+00
1.07774652e+00
1.05087726e+00
1.04534781e+00
1.07110372e+00
1.08316878e+00
1.05499982e+00
1.03250367e+00
1.05659921e+00
1.09845852e+00
1.09230774e+00
1.04807856e+00
1.02496770e+00
1.04832677e+00
1.09335605e+00
1.09969407e+00
1.05384641e+00
1.01475331e+00
1.00648241e+00
1.02596809e+00
1.06751709e+00
1.09468496e+00
1.08609817e+00
1.04913369e+00
1.01905589e+00
1.00411775e+00
1.12079181e+00
1.13081321e+00
1.13223590e+00
1.13382899e+00
1.12517577e+00
1.11826856e+00
1.11996655e+00
1.11842918e+00
1.12269987e+00
1.11902624e+00
1.12620288e+00
1.12497061e+00
1.11753232e+00
1.10909699e+00
1.11273335e+00
1.11945845e+00
1.12210196e+00
1.11467393e+00
1.10536955e+00
1.10756650e+00
1.10547513e+00
1.10007677e+00
1.10653169e+00
1.10888899e+00
1.10761918e+00
1.10480361e+00
1.10840693e+00
1.10638735e+00
1.09657867e+00
1.09879590e+00
1.10056047e+00
1.09736308e+00
1.10294096e+00
1.09656385e+00
1.09209209e+00
1.09719764e+00
1.09192164e+00
1.09689106e+00
1.09607942e+00
1.09876235e+00
1.09352648e+00
1.09904515e+00
1.09726520e+00
1.09637192e+00
1.08946822e+00
1.10029343e+00
1.08382610e+00
1.09059288e+00
1.09175754e+00
1.08217791e+00
1.08225648e+00
1.09555252e+00
1.08201152e+00
1.08558083e+00
1.08611321e+00
1.08758199e+00
1.08995334e+00
1.08510304e+00
1.08135595e+00
1.08901721e+00
1.08000355e+00
1.07567939e+00
1.08190250e+00
1.07777404e+00
1.07943617e+00
1.07953618e+00
1.07576749e+00
1.07950264e+00
1.08055048e+00
1.07488621e+00
1.07660726e+00
1.07404988e+00
1.07171482e+00
1.07269465e+00
1.07522507e+00
1.06660054e+00
1.06754686e+00
1.07212864e+00
1.06910338e+00
1.06295500e+00
1.07365533e+00
1.07319788e+00
1.06069588e+00
1.06976049e+00
1.08292447e+00
1.06369940e+00
1.05750486e+00
1.07698909e+00
1.07024971e+00
1.04926961e+00
1.06123337e+00
1.08220230e+00
1.06827908e+00
1.05171450e+00
1.06427617e+00
1.07547836e+00
1.06216531e+00
1.05758237e+00
1.07519310e+00
1.07601590e+00
1.05134639e+00
1.05101458e+00
1.07526676e+00
1.07856235e+00
1.05140591e+00
1.04324378e+00
1.06966004e+00
1.08508040e+00
1.05795449e+00
1.03267273e+00
1.04793811e+00
1.08979770e+00
1.09377183e+00
1.05331933e+00
1.02817891e+00
1.04610206e+00
1.08837861e+00
1.10141551e+00
1.06207161e+00
1.01731141e+00
1.00584626e+00
1.02310195e+00
1.06192965e+00
1.09822844e+00
1.09431222e+00
1.05720299e+00
1.02401767e+00
1.00547528e+00
1.13099146e+00
1.13254277e+00
1.12701514e+00
1.12480347e+00
1.11954483e+00
1.11776593e+00
1.11857710e+00
1.12167293e+00
1.12366568e+00
1.12668595e+00
1.12471574e+00
1.11876799e+00
1.11397595e+00
1.11107384e+00
1.11580581e+00
1.11984897e+00
1.11412553e+00
1.11395238e+00
1.11285386e+00
1.10456068e+00
1.10155659e+00
1.10324523e+00
1.11066276e+00
1.10840313e+00
1.10647639e+00
1.10458219e+00
1.09956902e+00
1.09934364e+00
1.10070579e+00
1.09533460e+00
1.10058853e+00
1.09750472e+00
1.10656503e+00
1.09903703e+00
1.09654251e+00
1.09662136e+00
1.09164496e+00
1.09187145e+00
1.09818690e+00
1.09734779e+00
1.09403511e+00
1.09689752e+00
1.09772423e+00
1.09154381e+00
1.08208265e+00
1.09395380e+00
1.08727495e+00
1.08847472e+00
1.08993957e+00
1.08685596e+00
1.08932356e+00
1.09690105e+00
1.08532999e+00
1.09418111e+00
1.09397213e+00
1.08522156e+00
1.08430770e+00
1.08563285e+00
1.08122608e+00
1.08745965e+00
1.08255997e+00
1.08200279e+00
1.08774542e+00
1.08081967e+00
1.07767456e+00
1.08383011e+00
1.07664027e+00
1.07476588e+00
1.07778526e+00
1.07272012e+00
1.07296616e+00
1.07420694e+00
1.06742638e+00
1.06806681e+00
1.07375377e+00
1.06686114e+00
1.06800110e+00
1.07893394e+00
1.07063544e+00
1.06106843e+00
1.07163110e+00
1.07433340e+00
1.06061483e+00
1.07105844e+00
1.08423186e+00
1.06194000e+00
1.05166518e+00
1.07554929e+00
1.07934128e+00
1.05484052e+00
1.05313920e+00
1.07289300e+00
1.07196410e+00
1.05611544e+00
1.06459857e+00
1.07597719e+00
1.05665459e+00
1.05430746e+00
1.07477296e+00
1.07723198e+00
1.05276969e+00
1.04875350e+00
1.07168857e+00
1.07668525e+00
1.05226613e+00
1.04394376e+00
1.06674428e+00
1.08428484e+00
1.05971522e+00
1.03346829e+00
1.04705143e+00
1.08470570e+00
1.09297333e+00
1.05718394e+00
1.02944839e+00
1.04310665e+00
1.08666437e+00
1.10163868e+00
1.06639623e+00
1.02297657e+00
1.00440947e+00
1.02138816e+00
1.05854687e+00
1.09727060e+00
1.09901072e+00
1.06309120e+00
1.02852054e+00
1.00942007e+00
1.13346859e+00
1.12985292e+00
1.12380883e+00
1.11517011e+00
1.11591556e+00
1.11728583e+00
1.12282560e+00
1.12718267e+00
1.12612459e+00
1.12545632e+00
1.11620368e+00
1.11455155e+00
1.10948347e+00
1.11726229e+00
1.12104483e+00
1.12227345e+00
1.11353382e+00
1.10976206e+00
1.10321247e+00
1.10115281e+00
1.10845094e+00
1.11314274e+00
1.11017380e+00
1.10585865e+00
1.10244014e+00
1.10225135e+00
1.09383015e+00
1.09480602e+00
1.09602145e+00
1.09963205e+00
1.10654371e+00
1.10360839e+00
1.10000942e+00
1.08873246e+00
1.09610666e+00
1.09954827e+00
1.09975021e+00
1.09698025e+00
1.09867286e+00
1.09426703e+00
1.09172513e+00
1.09158840e+00
1.09343673e+00
1.08675813e+00
1.08337236e+00
1.09507961e+00
1.08536236e+00
1.08382120e+00
1.08891119e+00
1.09107033e+00
1.09178678e+00
1.09205835e+00
1.08426203e+00
1.08999300e+00
1.08897424e+00
1.08577662e+00
1.08395868e+00
1.08395767e+00
1.08121701e+00
1.08401969e+00
1.08032758e+00
1.08176266e+00
1.08744650e+00
1.08068240e+00
1.07334979e+00
1.08484628e+00
1.07771543e+00
1.06763099e+00
1.07382832e+00
1.07389542e+00
1.07235672e+00
1.07577420e+00
1.06823419e+00
1.06980415e+00
1.07902012e+00
1.07016558e+00
1.06474630e+00
1.07908947e+00
1.07587935e+00
1.06556143e+00
1.07290309e+00
1.07410444e+00
1.05590821e+00
1.06303433e+00
1.08235950e+00
1.06802667e+00
1.05264430e+00
1.07000644e+00
1.07803834e+00
1.05916101e+00
1.05767835e+00
1.07344041e+00
1.06807495e+00
1.05548028e+00
1.06455894e+00
1.07415818e+00
1.05754562e+00
1.05099928e+00
1.07063380e+00
1.07736195e+00
1.05484882e+00
1.04520575e+00
1.06831878e+00
1.07812559e+00
1.05373613e+00
1.04273196e+00
1.06274685e+00
1.08145597e+00
1.06343763e+00
1.03573864e+00
1.04412785e+00
1.07912166e+00
1.09027604e+00
1.05906056e+00
1.03335384e+00
1.04457645e+00
1.08359547e+00
1.10215702e+00
1.06836550e+00
1.02651008e+00
1.00779574e+00
1.01840660e+00
1.05747965e+00
1.09890427e+00
1.10554793e+00
1.06893183e+00
1.02909947e+00
1.00762369e+00
1.13082161e+00
1.12468114e+00
1.11768902e+00
1.11396984e+00
1.11865343e+00
1.12211648e+00
1.12413612e+00
1.12554367e+00
1.12069670e+00
1.11725875e+00
1.11613206e+00
1.11084902e+00
1.11578701e+00
1.12848257e+00
1.11802807e+00
1.11225124e+00
1.10725117e+00
1.10117286e+00
1.10322310e+00
1.11001518e+00
1.11322599e+00
1.11073568e+00
1.11013856e+00
1.10789610e+00
1.10395140e+00
1.09904594e+00
1.09225224e+00
1.09475712e+00
1.09902049e+00
1.10305335e+00
1.09749389e+00
1.09700410e+00
1.09940431e+00
1.09569786e+00
1.10080633e+00
1.09759101e+00
1.09749877e+00
1.09354722e+00
1.09563069e+00
1.09560409e+00
1.09529138e+00
1.08385521e+00
1.08863601e+00
1.08639666e+00
1.08530921e+00
1.09499983e+00
1.08738925e+00
1.08468076e+00
1.08712754e+00
1.08549756e+00
1.08878396e+00
1.08510868e+00
1.07766683e+00
1.08696544e+00
1.08451214e+00
1.07980949e+00
1.08027548e+00
1.08195697e+00
1.08371739e+00
1.08470276e+00
1.07247943e+00
1.07475581e+00
1.08310641e+00
1.07885440e+00
1.07024569e+00
1.07728673e+00
1.07638035e+00
1.07234441e+00
1.07467967e+00
1.07322683e+00
1.07449363e+00
1.08183132e+00
1.07349302e+00
1.06970775e+00
1.07866446e+00
1.07281322e+00
1.06679504e+00
1.07751724e+00
1.07177868e+00
1.06216973e+00
1.07732766e+00
1.07849033e+00
1.05197467e+00
1.05509343e+00
1.07965844e+00
1.07371531e+00
1.05499927e+00
1.06479047e+00
1.07754501e+00
1.06204703e+00
1.06022483e+00
1.07509189e+00
1.06692664e+00
1.05219318e+00
1.06634995e+00
1.07397004e+00
1.05674101e+00
1.04763598e+00
1.06372927e+00
1.07652454e+00
1.06105700e+00
1.04686952e+00
1.06336913e+00
1.07365687e+00
1.05575878e+00
1.04267427e+00
1.06157869e+00
1.08130603e+00
1.06311076e+00
1.03462903e+00
1.04162306e+00
1.07511075e+00
1.08945364e+00
1.06196792e+00
1.03205684e+00
1.04146077e+00
1.08235593e+00
1.10340428e+00
1.07497425e+00
1.02854465e+00
1.00867758e+00
1.01608556e+00
1.05148483e+00
1.09958947e+00
1.11364603e+00
1.07847459e+00
1.03362020e+00
1.00779157e+00
1.12920738e+00
1.11942097e+00
1.11882308e+00
1.12117572e+00
1.11951916e+00
1.12073059e+00
1.12413165e+00
1.11998690e+00
1.11127572e+00
1.10800370e+00
1.11633691e+00
1.12283835e+00
1.12377316e+00
1.11997488e+00
1.11221221e+00
1.11001810e+00
1.10415181e+00
1.09900319e+00
1.10455083e+00
1.11190391e+00
1.11594712e+00
1.11074168e+00
1.11100698e+00
1.10417773e+00
1.09893153e+00
1.09435678e+00
1.09818755e+00
1.10368269e+00
1.09983770e+00
1.10144759e+00
1.10022464e+00
1.09126850e+00
1.09554423e+00
1.09079482e+00
1.09833767e+00
1.09913066e+00
1.10314827e+00
1.09399910e+00
1.09158383e+00
1.09020867e+00
1.09584921e+00
1.08200448e+00
1.09444341e+00
1.09052839e+00
1.08924061e+00
1.08952748e+00
1.08699641e+00
1.08531458e+00
1.09051907e+00
1.07885915e+00
1.08736328e+00
1.08288124e+00
1.07380252e+00
1.08109452e+00
1.08631769e+00
1.07404263e+00
1.07772504e+00
1.08043810e+00
1.07964094e+00
1.07845051e+00
1.07422598e+00
1.07718415e+00
1.08010205e+00
1.06975160e+00
1.07184303e+00
1.07823418e+00
1.07635840e+00
1.07670286e+00
1.08244415e+00
1.07328426e+00
1.07372931e+00
1.07940658e+00
1.07274401e+00
1.07147581e+00
1.08226993e+00
1.07081265e+00
1.06234034e+00
1.07601128e+00
1.07018838e+00
1.05466908e+00
1.07323339e+00
1.08579997e+00
1.05984382e+00
1.05363642e+00
1.07289892e+00
1.07030362e+00
1.05768930e+00
1.07030596e+00
1.07667504e+00
1.06011156e+00
1.05982153e+00
1.07491258e+00
1.06842676e+00
1.05268676e+00
1.06226334e+00
1.07362920e+00
1.05915920e+00
1.04555845e+00
1.06115003e+00
1.07245099e+00
1.05732842e+00
1.04710939e+00
1.06480261e+00
1.07383689e+00
1.05748078e+00
1.04189588e+00
1.05699306e+00
1.08023770e+00
1.06838716e+00
1.03851249e+00
1.03695708e+00
1.06852972e+00
1.08855869e+00
1.06619796e+00
1.03501661e+00
1.03682360e+00
1.07566449e+00
1.10331106e+00
1.08140859e+00
1.03491888e+00
1.00862312e+00
1.01542214e+00
1.04714548e+00
1.09721217e+00
1.11793506e+00
1.08604595e+00
1.03816626e+00
1.01112675e+00
1.12468680e+00
1.11798710e+00
1.11634540e+00
1.12518552e+00
1.12119835e+00
1.12569716e+00
1.11591997e+00
1.10901065e+00
1.11037686e+00
1.11605805e+00
1.11636615e+00
1.11997048e+00
1.12166960e+00
1.11946003e+00
1.11308110e+00
1.10526177e+00
1.09592287e+00
1.10327649e+00
1.11115728e+00
1.10993807e+00
1.11041074e+00
1.10825317e+00
1.10357070e+00
1.09924089e+00
1.10040493e+00
1.10492136e+00
1.10347925e+00
1.10400493e+00
1.10301501e+00
1.09987392e+00
1.09350126e+00
1.08730505e+00
1.09716925e+00
1.09628515e+00
1.09565896e+00
1.09213257e+00
1.09394490e+00
1.09203952e+00
1.09510325e+00
1.09230905e+00
1.09921057e+00
1.08389361e+00
1.09877786e+00
1.09058055e+00
1.08989646e+00
1.08595140e+00
1.08672323e+00
1.08514516e+00
1.09427538e+00
1.07931839e+00
1.09040493e+00
1.08534951e+00
1.07890771e+00
1.08059111e+00
1.08677565e+00
1.07113883e+00
1.07962778e+00
1.08329787e+00
1.08008327e+00
1.07573425e+00
1.07533178e+00
1.07381630e+00
1.07918397e+00
1.07178557e+00
1.07872964e+00