# vtk DataFile Version 2.0
LBM Flow Field - Timestep 710
ASCII
DATASET STRUCTURED_POINTS
DIMENSIONS 128 128 1
ORIGIN 0.0 0.0 0.0
SPACING 1.0 1.0 1.0
POINT_DATA 16384
SCALARS density double 1
LOOKUP_TABLE default
1.32007048e+00
1.30774470e+00
1.29295346e+00
1.27843539e+00
1.26386184e+00
1.24976731e+00
1.23559105e+00
1.22207741e+00
1.20846345e+00
1.19566700e+00
1.18276025e+00
1.17079227e+00
1.15871315e+00
1.14765726e+00
1.13649870e+00
1.12640992e+00
1.11623579e+00
1.10714099e+00
1.09798605e+00
1.08988574e+00
1.08175688e+00
1.07462821e+00
1.06750687e+00
1.06130726e+00
1.05515287e+00
1.04982419e+00
1.04457814e+00
1.04005103e+00
1.03564105e+00
1.03183909e+00
1.02818372e+00
1.02502722e+00
1.02204003e+00
1.01944929e+00
1.01704280e+00
1.01494075e+00
1.01302968e+00
1.01134386e+00
1.00984779e+00
1.00851171e+00
1.00735702e+00
1.00631093e+00
1.00543208e+00
1.00462329e+00
1.00396341e+00
1.00334625e+00
1.00285721e+00
1.00239272e+00
1.00203476e+00
1.00169018e+00
1.00143119e+00
1.00117945e+00
1.00099407e+00
1.00081306e+00
1.00068167e+00
1.00055368e+00
1.00046141e+00
1.00037247e+00
1.00030823e+00
1.00024751e+00
1.00020317e+00
1.00016246e+00
1.00013213e+00
1.00010532e+00
1.00008477e+00
1.00006742e+00
1.00005366e+00
1.00004261e+00
1.00003351e+00
1.00002657e+00
1.00002065e+00
1.00001635e+00
1.00001255e+00
1.00000992e+00
1.00000754e+00
1.00000593e+00
1.00000447e+00
1.00000350e+00
1.00000261e+00
1.00000203e+00
1.00000151e+00
1.00000116e+00
1.00000086e+00
1.00000065e+00
1.00000048e+00
1.00000036e+00
1.00000027e+00
1.00000020e+00
1.00000015e+00
1.00000011e+00
1.00000008e+00
1.00000006e+00
1.00000004e+00
1.00000003e+00
1.00000002e+00
1.00000002e+00
1.00000001e+00
1.00000001e+00
1.00000001e+00
1.00000000e+00
1.00000000e+00
1.00000000e+00
1.00000000e+00
1.00000000e+00
1.00000000e+00
1.00000000e+00
1.00000000e+00
1.00000000e+00
1.00000000e+00
1.00000000e+00
1.00000000e+00
1.00000000e+00
1.00000000e+00
1.00000000e+00
1.00000000e+00
1.00000000e+00
1.00000000e+00
1.00000000e+00
1.00000000e+00
1.00000000e+00
1.00000000e+00
1.00000000e+00
1.00000000e+00
1.00000000e+00
1.00000000e+00
1.00000000e+00
1.00000000e+00
1.00000000e+00
1.11919755e+00
1.09628794e+00
1.07844548e+00
1.06503547e+00
1.06102658e+00
1.05643019e+00
1.04971003e+00
1.03748590e+00
1.04978602e+00
1.04025172e+00
1.02566155e+00
1.03924744e+00
1.02571311e+00
1.02903036e+00
1.03286795e+00
1.02749181e+00
1.02200308e+00
1.02924876e+00
1.01960532e+00
1.00632868e+00
1.03357822e+00
1.02100866e+00
1.03981534e+00
9.98063509e-01
1.03609172e+00
1.03008587e+00
1.02245105e+00
1.01946959e+00
1.03563424e+00
1.02927359e+00
1.02619907e+00
1.01923670e+00
1.02242992e+00
1.03219618e+00
1.03465653e+00
1.02681523e+00
1.02285218e+00
1.02882508e+00
1.03599072e+00
1.03448669e+00
1.03190620e+00
1.03012031e+00
1.02869302e+00
1.03160764e+00
1.03038851e+00
1.03174769e+00
1.03730219e+00
1.04268653e+00
1.03801122e+00
1.02961033e+00
1.02944262e+00
1.03368891e+00
1.03612427e+00
1.03007443e+00
1.02634204e+00
1.03040733e+00
1.03260119e+00
1.02847619e+00
1.03032551e+00
1.03026903e+00
1.02802018e+00
1.02816578e+00
1.02574232e+00
1.03227352e+00
1.02552531e+00
1.02822759e+00
1.02700197e+00
1.02386569e+00
1.03127191e+00
1.02842379e+00
1.02404887e+00
1.02703166e+00
1.02905580e+00
1.02373870e+00
1.02555222e+00
1.02641512e+00
1.02538566e+00
1.02615057e+00
1.02582538e+00
1.02541408e+00
1.02531545e+00
1.02630569e+00
1.02512379e+00
1.02438327e+00
1.02470431e+00
1.02682729e+00
1.02646549e+00
1.02419871e+00
1.02406365e+00
1.02399376e+00
1.02350078e+00
1.02198955e+00
1.02495646e+00
1.02288203e+00
1.02266151e+00
1.02418289e+00
1.02496415e+00
1.02479216e+00
1.02473914e+00
1.02289368e+00
1.02365939e+00
1.02421243e+00
1.02481073e+00
1.02256909e+00
1.02119869e+00
1.02230331e+00
1.02410380e+00
1.02245993e+00
1.02372867e+00
1.02343984e+00
1.02250256e+00
1.02231954e+00
1.02151384e+00
1.02145913e+00
1.02142080e+00
1.02128764e+00
1.02276718e+00
1.02149703e+00
1.02038395e+00
1.02106995e+00
1.01992803e+00
1.02069093e+00
1.02182063e+00
1.02163453e+00
1.01939217e+00
1.01891547e+00
1.02124466e+00
1.02068376e+00
1.09860491e+00
1.08309460e+00
1.07819589e+00
1.06177302e+00
1.05333466e+00
1.05161685e+00
1.05653063e+00
1.04388277e+00
1.04379464e+00
1.02806375e+00
1.04339863e+00
1.03955553e+00
1.02823736e+00
1.02909935e+00
1.02497450e+00
1.02099566e+00
1.02453512e+00
1.02469023e+00
1.01640383e+00
1.03628039e+00
1.02425712e+00
1.01993286e+00
1.04167534e+00
1.02049320e+00
1.02495722e+00
1.01743383e+00
1.03661001e+00
1.02358811e+00
1.02999881e+00
1.02371299e+00
1.02308677e+00
1.02658311e+00
1.03070024e+00
1.02497733e+00
1.02679452e+00
1.03006961e+00
1.03022286e+00
1.02999926e+00
1.03469415e+00
1.03400747e+00
1.02866407e+00
1.03245672e+00
1.03319944e+00
1.02606546e+00
1.02264463e+00
1.03409174e+00
1.03805264e+00
1.03331205e+00
1.03292974e+00
1.03193327e+00
1.03610575e+00
1.03315554e+00
1.02740301e+00
1.02874552e+00
1.03393433e+00
1.03051656e+00
1.02868521e+00
1.02662547e+00
1.02737844e+00
1.03301921e+00
1.02524997e+00
1.02887833e+00
1.02494672e+00
1.03103519e+00
1.03030035e+00
1.02257349e+00
1.03080309e+00
1.02611713e+00
1.02739588e+00
1.02829579e+00
1.02754976e+00
1.02588828e+00
1.02889564e+00
1.02712014e+00
1.02631285e+00
1.02714887e+00
1.02808377e+00
1.02398316e+00
1.02710188e+00
1.02817205e+00
1.02576834e+00
1.02608541e+00
1.02264462e+00
1.02632754e+00
1.02483782e+00
1.02436801e+00
1.02468713e+00
1.02463375e+00
1.02478914e+00
1.02525622e+00
1.02511718e+00
1.02213611e+00
1.02500272e+00
1.02433111e+00
1.02400062e+00
1.02368672e+00
1.02455155e+00
1.02575855e+00
1.02440892e+00
1.02337569e+00
1.02392395e+00
1.02227171e+00
1.02425231e+00
1.02434191e+00
1.02283151e+00
1.02210770e+00
1.02320007e+00
1.02357560e+00
1.02337097e+00
1.02289546e+00
1.02297810e+00
1.02260146e+00
1.02024898e+00
1.02158132e+00
1.02298192e+00
1.02132133e+00
1.02145736e+00
1.02126080e+00
1.02070623e+00
1.02205606e+00
1.02093486e+00
1.01945840e+00
1.02043109e+00
1.02146650e+00
1.02214746e+00
1.01808363e+00
1.01807056e+00
1.02029793e+00
1.07914109e+00
1.07511436e+00
1.07712581e+00
1.06564508e+00
1.06151103e+00
1.05706134e+00
1.04378220e+00
1.03875300e+00
1.04478974e+00
1.03912543e+00
1.03383361e+00
1.02660033e+00
1.03877339e+00
1.03172297e+00
1.02372196e+00
1.03135900e+00
1.02548365e+00
1.02064191e+00
1.03047198e+00
1.02687387e+00
1.02238137e+00
1.03189233e+00
1.02086525e+00
1.02883353e+00
1.03749441e+00
1.02145315e+00
1.02455138e+00
1.03029174e+00
1.02416184e+00
1.02198548e+00
1.03066030e+00
1.02710358e+00
1.02256210e+00
1.02378607e+00
1.02680998e+00
1.02712474e+00
1.03385761e+00
1.03337350e+00
1.02846395e+00
1.03210091e+00
1.03497179e+00
1.03163699e+00
1.02682742e+00
1.02711894e+00
1.02690320e+00
1.03260668e+00
1.03243438e+00
1.03152573e+00
1.03586082e+00
1.03626904e+00
1.03159696e+00
1.02729267e+00
1.03242438e+00
1.03394471e+00
1.03158737e+00
1.02712232e+00
1.02799948e+00
1.03265243e+00
1.02778788e+00
1.02545382e+00
1.02673169e+00
1.03305257e+00
1.03016992e+00
1.02429676e+00
1.02868192e+00
1.02855568e+00
1.02917542e+00
1.02983896e+00
1.02373842e+00
1.02384461e+00
1.03158339e+00
1.02583341e+00
1.02481091e+00
1.02747475e+00
1.02736206e+00
1.02562372e+00
1.02804359e+00
1.02440818e+00
1.02383124e+00
1.02591939e+00
1.02555530e+00
1.02655199e+00
1.02379306e+00
1.02528417e+00
1.02539094e+00
1.02361464e+00
1.02578726e+00
1.02448885e+00
1.02340969e+00
1.02385617e+00
1.02487095e+00
1.02541027e+00
1.02372886e+00
1.02183855e+00
1.02528751e+00
1.02322833e+00
1.02380571e+00
1.02562204e+00
1.02269187e+00
1.02203325e+00
1.02313361e+00
1.02428911e+00
1.02360826e+00
1.02187234e+00
1.02231997e+00
1.02362069e+00
1.02214789e+00
1.02192531e+00
1.02145756e+00
1.02220449e+00
1.02396615e+00
1.02248451e+00
1.01951217e+00
1.02032066e+00
1.02376634e+00
1.02205149e+00
1.02209038e+00
1.02082264e+00
1.01972450e+00
1.02024273e+00
1.01994355e+00
1.02165432e+00
1.02081358e+00
1.01979608e+00
1.02029364e+00
1.02171434e+00
1.02027169e+00
1.01942922e+00
1.06749802e+00
1.06715486e+00
1.06463153e+00
1.05875477e+00
1.06724729e+00
1.04974464e+00
1.04058055e+00
1.05370715e+00
1.04108349e+00
1.03795821e+00
1.04027269e+00
1.02959632e+00
1.03185300e+00
1.03603812e+00
1.02725293e+00
1.02613994e+00
1.03613916e+00
1.02794468e+00
1.02400340e+00
1.02730456e+00
1.02877905e+00
1.02253932e+00
1.02696373e+00
1.02955404e+00
1.01603881e+00
1.03574601e+00
1.02993872e+00
1.01994472e+00
1.02850788e+00
1.03202833e+00
1.02082698e+00
1.01916969e+00
1.02458866e+00
1.02235197e+00
1.02523174e+00
1.02606330e+00
1.02784901e+00
1.02958449e+00
1.03403706e+00
1.03531528e+00
1.02815188e+00
1.03030727e+00
1.02956177e+00
1.02800532e+00
1.02994739e+00
1.02977955e+00
1.02957526e+00
1.03691531e+00
1.03710784e+00
1.03037340e+00
1.02749889e+00
1.03148208e+00
1.03527109e+00
1.02887684e+00
1.02802640e+00
1.03284422e+00
1.02741334e+00
1.02759104e+00
1.02972634e+00
1.02825699e+00
1.03053474e+00
1.02786716e+00
1.02784194e+00
1.02648362e+00
1.02941949e+00
1.03352753e+00
1.02208332e+00
1.02630096e+00
1.03051019e+00
1.02590934e+00
1.02606507e+00
1.02576094e+00
1.02512030e+00
1.02590186e+00
1.02775714e+00
1.02547016e+00
1.02343673e+00
1.02586723e+00
1.02461625e+00
1.02511642e+00
1.02462979e+00
1.02652542e+00
1.02613961e+00
1.02442568e+00
1.02562764e+00
1.02448569e+00
1.02537654e+00
1.02312459e+00
1.02476427e+00
1.02516393e+00
1.02196273e+00
1.02389505e+00
1.02513298e+00
1.02346491e+00
1.02428870e+00
1.02211892e+00
1.02263754e+00
1.02397447e+00
1.02388718e+00
1.02374061e+00
1.02232967e+00
1.02354164e+00
1.02342009e+00
1.02234626e+00
1.02403992e+00
1.02358302e+00
1.02083992e+00
1.02094008e+00
1.02319912e+00
1.02379304e+00
1.02299000e+00
1.02105573e+00
1.02064854e+00
1.02152331e+00
1.02269074e+00
1.02034082e+00
1.02027464e+00
1.02107216e+00
1.02261485e+00
1.02189529e+00
1.01770495e+00
1.01921933e+00
1.02126925e+00
1.02195533e+00
1.01950678e+00
1.01793187e+00
1.01971545e+00
1.02042996e+00
1.06867087e+00
1.05425502e+00
1.06463320e+00
1.06231616e+00
1.04943110e+00
1.06024320e+00
1.06235963e+00
1.03750278e+00
1.03910402e+00
1.04240315e+00
1.02874759e+00
1.04449788e+00
1.03165325e+00
1.02294963e+00
1.03772778e+00
1.03257682e+00
1.01748340e+00
1.03106120e+00
1.03394104e+00
1.01977977e+00
1.03507317e+00
1.02940744e+00
1.02727442e+00
1.02977253e+00
1.02521630e+00
1.02562876e+00
1.02576637e+00
1.02949930e+00
1.02775095e+00
1.02677813e+00
1.02321776e+00
1.02677288e+00
1.02193210e+00
1.01866371e+00
1.02684498e+00
1.02858404e+00
1.02993895e+00
1.03128845e+00
1.03412450e+00
1.03473254e+00
1.02844744e+00
1.02983913e+00
1.03090731e+00
1.03265887e+00
1.02757316e+00
1.02823325e+00
1.03446674e+00
1.03268360e+00
1.02888932e+00
1.03151301e+00
1.03591880e+00
1.03012079e+00
1.03022220e+00
1.02991510e+00
1.02812287e+00
1.03251259e+00
1.03112616e+00
1.02699858e+00
1.02831620e+00
1.03461963e+00
1.02908291e+00
1.02499267e+00
1.02841803e+00
1.02983607e+00
1.02509927e+00
1.02611295e+00
1.03043782e+00
1.02566706e+00
1.02691479e+00
1.02571501e+00
1.02471723e+00
1.02918137e+00
1.02796082e+00
1.02298848e+00
1.02307128e+00
1.02865579e+00
1.02624675e+00
1.02508063e+00
1.02454441e+00
1.02562216e+00
1.02598099e+00
1.02535100e+00
1.02538992e+00
1.02446009e+00
1.02298982e+00
1.02504305e+00
1.02797684e+00
1.02283379e+00
1.02185821e+00
1.02299025e+00
1.02317518e+00
1.02463880e+00
1.02426249e+00
1.02468198e+00
1.02190948e+00
1.02224646e+00
1.02645610e+00
1.02272221e+00
1.02064471e+00
1.02452223e+00
1.02464623e+00
1.02491121e+00
1.02257339e+00
1.02179850e+00
1.02390090e+00
1.02333875e+00
1.02307214e+00
1.02077859e+00
1.02140608e+00
1.02299723e+00
1.02363551e+00
1.02295635e+00
1.02130600e+00
1.02044518e+00
1.02126543e+00
1.02149451e+00
1.02381390e+00
1.02020535e+00
1.02001800e+00
1.02058410e+00
1.02080280e+00
1.02165699e+00
1.02004789e+00
1.02055253e+00
1.02008108e+00
1.01925422e+00
1.02020609e+00
1.02093221e+00
1.06034986e+00
1.07183855e+00
1.05715355e+00
1.05588102e+00
1.05266016e+00
1.05248080e+00
1.04855918e+00
1.04642702e+00
1.05284341e+00
1.04785136e+00
1.03577551e+00
1.03474796e+00
1.03519824e+00
1.03526247e+00
1.02695779e+00
1.03427303e+00
1.03283871e+00
1.02720709e+00
1.03283262e+00
1.02523810e+00
1.02610963e+00
1.03261508e+00
1.03182033e+00
1.02402187e+00
1.02693787e+00
1.02542212e+00
1.02310118e+00
1.03237812e+00
1.02907103e+00
1.02209635e+00
1.02657106e+00
1.02866024e+00
1.02242023e+00
1.02188687e+00
1.02433583e+00
1.02449802e+00
1.03184256e+00
1.03440204e+00
1.02923492e+00
1.02831767e+00
1.02983806e+00
1.03294946e+00
1.02891621e+00
1.03125284e+00
1.02892825e+00
1.03000930e+00
1.03482911e+00
1.02897497e+00
1.03314313e+00
1.03181708e+00
1.03288208e+00
1.02811666e+00
1.02879350e+00
1.03236862e+00
1.03194225e+00
1.02763476e+00
1.02796330e+00
1.03334026e+00
1.02805432e+00
1.03021705e+00
1.02571596e+00
1.02792026e+00
1.02925913e+00
1.02594351e+00
1.02983056e+00
1.02283175e+00
1.03062445e+00
1.02566850e+00
1.02454827e+00
1.02828478e+00
1.02857090e+00
1.02534845e+00
1.02441140e+00
1.02832548e+00
1.02577574e+00
1.02517201e+00
1.02515095e+00
1.02614534e+00
1.02692411e+00
1.02431031e+00
1.02566761e+00
1.02329639e+00
1.02211832e+00
1.02682422e+00
1.02572885e+00
1.02277871e+00
1.02403583e+00
1.02652535e+00
1.02507797e+00
1.02182814e+00
1.02302752e+00
1.02606548e+00
1.02225748e+00
1.02624723e+00
1.02394895e+00
1.02069303e+00
1.02391391e+00
1.02335781e+00
1.02356401e+00
1.02416458e+00
1.02143963e+00
1.02223758e+00
1.02236074e+00
1.02510852e+00
1.02530856e+00
1.01987879e+00
1.02041500e+00
1.02215445e+00
1.02396561e+00
1.02330187e+00
1.02170197e+00
1.02119522e+00
1.02079455e+00
1.02208070e+00
1.02218065e+00
1.01982934e+00
1.02095067e+00
1.02188183e+00
1.02240632e+00
1.01967927e+00
1.01800161e+00
1.02140907e+00
1.02020377e+00
1.02074808e+00
1.02060414e+00
1.01874300e+00
1.01730419e+00
1.01830792e+00
1.04425556e+00
1.06679424e+00
1.04965737e+00
1.06011291e+00
1.05513811e+00
1.05115111e+00
1.04919990e+00
1.05737896e+00
1.04277907e+00
1.03727463e+00
1.04449667e+00
1.03891466e+00
1.03273260e+00
1.04152166e+00
1.03431469e+00
1.02865874e+00
1.03688344e+00
1.03146545e+00
1.02259935e+00
1.03517802e+00
1.03622702e+00
1.02371941e+00
1.03187440e+00
1.02839746e+00
1.02718319e+00
1.02799532e+00
1.02952974e+00
1.02866408e+00
1.02659506e+00
1.02951719e+00
1.02838663e+00
1.02075631e+00
1.02518189e+00
1.02757427e+00
1.02665470e+00
1.03122242e+00
1.03261286e+00
1.02943578e+00
1.02654699e+00
1.03273623e+00
1.03078050e+00
1.03493937e+00
1.02931142e+00
1.02622122e+00
1.02952927e+00
1.03045285e+00
1.03199835e+00
1.03183320e+00
1.03171111e+00
1.02666733e+00
1.03196127e+00
1.03342761e+00
1.02932952e+00
1.02903670e+00
1.02913084e+00
1.03204149e+00
1.02968304e+00
1.03245526e+00
1.02443338e+00
1.02445833e+00
1.03197873e+00
1.02764816e+00
1.02765093e+00
1.02278604e+00
1.02973547e+00
1.02744611e+00
1.02450049e+00
1.02833797e+00
1.02474352e+00
1.02505701e+00
1.02752086e+00
1.02769973e+00
1.02454697e+00
1.02525624e+00
1.02356206e+00
1.02535124e+00
1.02734236e+00
1.02626246e+00
1.02328390e+00
1.02215855e+00
1.02504287e+00
1.02701668e+00
1.02571125e+00
1.02141900e+00
1.02242732e+00
1.02695598e+00
1.02522444e+00
1.02394372e+00
1.02410617e+00
1.02212558e+00
1.02528874e+00
1.02892323e+00
1.02267956e+00
1.02243813e+00
1.02212447e+00
1.02501248e+00
1.02487547e+00
1.02242150e+00
1.02385252e+00
1.02184670e+00
1.02175347e+00
1.02595235e+00
1.02233437e+00
1.02260170e+00
1.02289784e+00
1.02274506e+00
1.02329943e+00
1.02109189e+00
1.02163539e+00
1.02280532e+00
1.02256308e+00
1.02394463e+00
1.02120720e+00
1.01992906e+00
1.01970237e+00
1.02323649e+00
1.02410668e+00
1.02149847e+00
1.01907399e+00
1.01840144e+00
1.02016042e+00
1.02464891e+00
1.02340913e+00
1.01974020e+00
1.01773071e+00
1.01938647e+00
1.02155550e+00
1.01981361e+00
1.06914916e+00
1.04386390e+00
1.04384885e+00
1.06470310e+00
1.05201349e+00
1.05442644e+00
1.05255734e+00
1.04239366e+00
1.03796741e+00
1.05503202e+00
1.03559077e+00
1.04520214e+00
1.04311575e+00
1.03115728e+00
1.04510286e+00
1.03506879e+00
1.02991313e+00
1.03344183e+00
1.03020934e+00
1.03700150e+00
1.02801643e+00
1.02995835e+00
1.03562412e+00
1.02393066e+00
1.03100375e+00
1.02974334e+00
1.02572358e+00
1.03216053e+00
1.03067893e+00
1.02664995e+00
1.02852499e+00
1.02525149e+00
1.02726713e+00
1.03100014e+00
1.03257423e+00
1.02823009e+00
1.02417804e+00
1.02958527e+00
1.03339891e+00
1.03749034e+00
1.02488527e+00
1.02635411e+00
1.03062305e+00
1.03526816e+00
1.03093015e+00
1.02578680e+00
1.02920126e+00
1.03320099e+00
1.03355506e+00
1.03059045e+00
1.02870773e+00
1.02901827e+00
1.03092231e+00
1.03322346e+00
1.02622472e+00
1.03289022e+00
1.02640620e+00
1.02644721e+00
1.03274957e+00
1.02670880e+00
1.02685387e+00
1.02494898e+00
1.03260223e+00
1.02939568e+00
1.02506453e+00
1.02921892e+00
1.02256794e+00
1.02748352e+00
1.02829013e+00
1.02712382e+00
1.02232627e+00
1.02700097e+00
1.02704983e+00
1.02489613e+00
1.02574397e+00
1.02690323e+00
1.02391901e+00
1.02445746e+00
1.02413454e+00
1.02701116e+00
1.02524212e+00
1.02348810e+00
1.02796162e+00
1.02407687e+00
1.02272670e+00
1.02597569e+00
1.02498420e+00
1.02355090e+00
1.02609807e+00
1.02507860e+00
1.02230791e+00
1.02270830e+00
1.02366199e+00
1.02577890e+00
1.02117576e+00
1.02451050e+00
1.02369763e+00
1.02306650e+00
1.02691641e+00
1.02405639e+00
1.02000140e+00
1.02149141e+00
1.02193674e+00
1.02590217e+00
1.02333805e+00
1.01976411e+00
1.02108335e+00
1.02192767e+00
1.02400914e+00
1.02349170e+00
1.02030690e+00
1.02054478e+00
1.02169517e+00
1.02193302e+00
1.02043059e+00
1.02089832e+00
1.02197325e+00
1.02006690e+00
1.02047338e+00
1.01998766e+00
1.01878469e+00
1.01918543e+00
1.01943397e+00
1.02299543e+00
1.01975588e+00
1.01647279e+00
1.01617414e+00
1.02020383e+00
1.04804552e+00
1.05672658e+00
1.06020977e+00
1.04911979e+00
1.05018902e+00
1.05246327e+00
1.04656717e+00
1.04917615e+00
1.04809529e+00
1.04721769e+00
1.03645320e+00
1.05137931e+00
1.03511236e+00
1.04212362e+00
1.04180799e+00
1.02337338e+00
1.04366070e+00
1.04119735e+00
1.02523757e+00
1.03991497e+00
1.02831413e+00
1.03458033e+00
1.03131157e+00
1.02469275e+00
1.03545391e+00
1.03246324e+00
1.02977481e+00
1.03184118e+00
1.02687006e+00
1.02851438e+00
1.03169605e+00
1.03156650e+00
1.03229988e+00
1.02892369e+00
1.03108000e+00
1.03267494e+00
1.03010239e+00
1.03227792e+00
1.02985401e+00
1.02874446e+00
1.02659953e+00
1.03553117e+00
1.03264354e+00
1.02979292e+00
1.02649127e+00
1.03064871e+00
1.03831216e+00
1.03055510e+00
1.02787277e+00
1.02817239e+00
1.03559494e+00
1.03391228e+00
1.02861851e+00
1.03193452e+00
1.02594328e+00
1.03189538e+00
1.03329978e+00
1.02715698e+00
1.02523614e+00
1.02882791e+00
1.02980213e+00
1.03126382e+00
1.02790679e+00
1.02695606e+00
1.02468696e+00
1.02766591e+00
1.03188600e+00
1.02678023e+00
1.02295523e+00
1.02811547e+00
1.02608368e+00
1.02780365e+00
1.02611329e+00
1.02439254e+00
1.02449645e+00
1.02812971e+00
1.02682306e+00
1.02663602e+00
1.02187260e+00
1.02400623e+00
1.02934561e+00
1.02653250e+00
1.02415281e+00
1.02460934e+00
1.02318505e+00
1.02384464e+00
1.02780508e+00
1.02636185e+00
1.02070961e+00
1.02421372e+00
1.02650970e+00
1.02448330e+00
1.02308645e+00
1.02352353e+00
1.02066267e+00
1.02582730e+00
1.02662428e+00
1.02359104e+00
1.02259668e+00
1.02088017e+00
1.02490119e+00
1.02338412e+00
1.02185379e+00
1.02353302e+00
1.02243545e+00
1.02271769e+00
1.02411760e+00
1.02088489e+00
1.01951712e+00
1.01989785e+00
1.02486703e+00
1.02423041e+00
1.02033321e+00
1.01854398e+00
1.01925230e+00
1.02240076e+00
1.02518255e+00
1.02191500e+00
1.01690840e+00
1.01774250e+00
1.02035912e+00
1.02412727e+00
1.02068246e+00
1.01801676e+00
1.01857074e+00
1.01957888e+00
1.01984789e+00
1.01846196e+00
1.04222550e+00
1.04403830e+00
1.06193954e+00
1.04469787e+00
1.04020512e+00
1.05565236e+00
1.04853864e+00
1.04309827e+00
1.04861477e+00
1.04558559e+00
1.04335909e+00
1.04305289e+00
1.03438210e+00
1.04496437e+00
1.03826727e+00
1.04110802e+00
1.04099979e+00
1.03007407e+00
1.03905552e+00
1.04191781e+00
1.02841237e+00
1.03856606e+00
1.02624984e+00
1.03747860e+00
1.03613797e+00
1.02929238e+00
1.03269191e+00
1.03223558e+00
1.03254882e+00
1.03394521e+00
1.02838340e+00
1.03090542e+00
1.03371061e+00
1.02940114e+00
1.03340525e+00
1.03311571e+00
1.03065141e+00
1.03119418e+00
1.02896016e+00
1.03204080e+00
1.03340082e+00
1.03706261e+00
1.02637618e+00
1.02701279e+00
1.03540161e+00
1.03290137e+00
1.02802646e+00
1.02818982e+00
1.03578130e+00
1.03078436e+00
1.03239251e+00
1.03132433e+00
1.02465086e+00
1.03348944e+00
1.03232829e+00
1.02618679e+00
1.02484328e+00
1.03301472e+00
1.02735813e+00
1.02992083e+00
1.02726859e+00
1.02751205e+00
1.02646643e+00
1.02769978e+00
1.03016892e+00
1.02277945e+00
1.02825118e+00
1.02903965e+00
1.02509154e+00
1.02810278e+00
1.02535977e+00
1.02451952e+00
1.02337142e+00
1.02796474e+00
1.02507042e+00
1.02452519e+00
1.02237159e+00
1.02595161e+00
1.02722689e+00
1.02271600e+00
1.02408126e+00
1.02645811e+00
1.02195544e+00
1.02400148e+00
1.02536654e+00
1.02298328e+00
1.02162988e+00
1.02734234e+00
1.02349693e+00
1.02172915e+00
1.02367158e+00
1.02320127e+00
1.02496446e+00
1.02508764e+00
1.02330508e+00
1.02240110e+00
1.02029402e+00
1.02490836e+00
1.02746626e+00
1.02133787e+00
1.02118838e+00
1.02031481e+00
1.02280442e+00
1.02564801e+00
1.02194261e+00
1.02052964e+00
1.02022486e+00
1.02041205e+00
1.02298679e+00
1.02267255e+00
1.02240430e+00
1.02114551e+00
1.01839209e+00
1.02099173e+00
1.02294722e+00
1.02115763e+00
1.01881002e+00
1.02019913e+00
1.02202626e+00
1.02067597e+00
1.01682100e+00
1.01824769e+00
1.02170208e+00
1.02266640e+00
1.02025843e+00
1.01696427e+00
1.01567611e+00
1.01901772e+00
1.05381304e+00
1.04812491e+00
1.04728931e+00
1.05547772e+00
1.05316959e+00
1.04359742e+00
1.04284686e+00
1.05342851e+00
1.04850407e+00
1.04283720e+00
1.04691675e+00
1.03958558e+00
1.05009589e+00
1.03759966e+00
1.03951603e+00
1.04920127e+00
1.02788498e+00
1.04266360e+00
1.04595713e+00
1.02628606e+00
1.03817476e+00
1.04449460e+00
1.02900117e+00
1.04357167e+00
1.03114230e+00
1.03407962e+00
1.03674430e+00
1.03077228e+00
1.03247548e+00
1.03387898e+00
1.03473398e+00
1.03116227e+00
1.03013359e+00
1.03286109e+00
1.03327845e+00
1.02862710e+00
1.03055956e+00
1.02830549e+00
1.02899557e+00
1.03979697e+00
1.03077678e+00
1.02929511e+00
1.03065022e+00
1.02934357e+00
1.03244682e+00
1.02978569e+00
1.03073589e+00
1.03054212e+00
1.03301873e+00
1.02927026e+00
1.02499316e+00
1.03372129e+00
1.03333638e+00
1.02770870e+00
1.02356553e+00
1.03229627e+00
1.02691803e+00
1.03225006e+00
1.02816318e+00
1.02273761e+00
1.02886350e+00
1.02950176e+00
1.02908768e+00
1.02056598e+00
1.02706827e+00
1.03013296e+00
1.02597969e+00
1.02901562e+00
1.02240759e+00
1.02291796e+00
1.02588245e+00
1.02977784e+00
1.02442127e+00
1.02398760e+00
1.02308900e+00
1.02693186e+00
1.02699155e+00
1.02401145e+00
1.02240147e+00
1.02420261e+00
1.02344164e+00
1.02637152e+00
1.02674951e+00
1.02184087e+00
1.02113639e+00
1.02743430e+00
1.02614358e+00
1.02406266e+00
1.02333526e+00
1.02190215e+00
1.02413458e+00
1.02671134e+00
1.02772081e+00
1.02102458e+00
1.02029501e+00
1.02537056e+00
1.02389570e+00
1.02655915e+00
1.02247430e+00
1.02083411e+00
1.02452297e+00
1.02559160e+00
1.02493358e+00
1.02240700e+00
1.02141465e+00
1.02491600e+00
1.02320933e+00
1.02057914e+00
1.02065280e+00
1.02267049e+00
1.02498860e+00
1.02333706e+00
1.01984334e+00
1.01815996e+00
1.01998938e+00
1.02412123e+00
1.02505580e+00
1.01990006e+00
1.01646128e+00
1.01984830e+00
1.02066817e+00
1.02153883e+00
1.02069403e+00
1.02040070e+00
1.01863150e+00
1.01766684e+00
1.01836544e+00
1.01861740e+00
1.06058465e+00
1.05759976e+00
1.03721189e+00
1.05143490e+00
1.05453555e+00
1.04329061e+00
1.04859169e+00
1.05190307e+00
1.03927152e+00
1.04621088e+00
1.04973584e+00
1.03565967e+00
1.05087475e+00
1.03856346e+00
1.04179652e+00
1.04031343e+00
1.03769246e+00
1.04801169e+00
1.03179256e+00
1.03386845e+00
1.04654630e+00
1.03183964e+00
1.03690124e+00
1.04211741e+00
1.02973639e+00
1.04496156e+00
1.03123096e+00
1.02935727e+00
1.03760871e+00
1.03355877e+00
1.03447640e+00
1.03499997e+00
1.03307220e+00
1.02926709e+00
1.03372081e+00
1.02975441e+00
1.02990528e+00
1.03418397e+00
1.03532641e+00
1.03484987e+00
1.02151623e+00
1.03074274e+00
1.03798494e+00
1.03266213e+00
1.02906169e+00
1.02614761e+00
1.03447191e+00
1.03186672e+00
1.02825405e+00
1.03113530e+00
1.02881657e+00
1.03112415e+00
1.03024836e+00
1.02857791e+00
1.02422334e+00
1.03491675e+00
1.02967408e+00
1.02328129e+00
1.03110638e+00
1.03003713e+00
1.02929730e+00
1.02222886e+00
1.02784942e+00
1.02725575e+00
1.02561863e+00
1.02910775e+00
1.02198774e+00
1.02425669e+00
1.02693838e+00
1.02921074e+00
1.02322720e+00
1.02520896e+00
1.02707299e+00
1.02528943e+00
1.02390493e+00
1.02347777e+00
1.02418908e+00
1.02658164e+00
1.02288459e+00
1.02619344e+00
1.02390987e+00
1.01973203e+00
1.02588080e+00
1.02693897e+00
1.02180278e+00
1.02255014e+00
1.02721741e+00
1.02316025e+00
1.02356997e+00
1.02613754e+00
1.02202727e+00
1.02159817e+00
1.02631449e+00
1.02550028e+00
1.02214958e+00
1.02145454e+00
1.02135249e+00
1.02650261e+00
1.02389370e+00
1.02422179e+00
1.02251311e+00
1.02029425e+00
1.02350856e+00
1.02520908e+00
1.02403673e+00
1.02177604e+00
1.01858218e+00
1.02077206e+00
1.02573063e+00
1.02557503e+00
1.02210590e+00
1.01927046e+00
1.01935021e+00
1.02302652e+00
1.02197502e+00
1.02087220e+00
1.02054381e+00
1.02065737e+00
1.02011283e+00
1.02014752e+00
1.01957691e+00
1.01957411e+00
1.02166450e+00
1.02363401e+00
1.02166474e+00
1.01658451e+00
1.01491071e+00
1.01896100e+00
1.05041030e+00
1.05071465e+00
1.05221932e+00
1.04713556e+00
1.04095416e+00
1.05339206e+00
1.05439908e+00
1.04283429e+00
1.04607419e+00
1.05125533e+00
1.04365001e+00
1.04075502e+00
1.04448917e+00
1.04276958e+00
1.04403887e+00
1.03738822e+00
1.04516064e+00
1.03675165e+00
1.03576171e+00
1.04668130e+00
1.03439888e+00
1.03074277e+00
1.04599331e+00
1.03498366e+00
1.03152105e+00
1.04040166e+00
1.02837892e+00
1.04174154e+00
1.03685164e+00
1.02899908e+00
1.03581241e+00
1.03332098e+00
1.03431723e+00
1.03069013e+00
1.03211000e+00
1.03617826e+00
1.03578197e+00
1.03432625e+00
1.02702005e+00
1.02857882e+00
1.03171998e+00
1.03757958e+00
1.03043276e+00
1.02747902e+00
1.03181015e+00
1.03123474e+00
1.03531117e+00
1.02985946e+00
1.02598334e+00
1.03106813e+00
1.03200346e+00
1.02869885e+00
1.02699659e+00
1.03273553e+00
1.02744111e+00
1.02664325e+00
1.03292439e+00
1.02899192e+00
1.02565808e+00
1.02737116e+00
1.02796261e+00
1.02920336e+00
1.02791620e+00
1.02840051e+00
1.02356781e+00
1.02469253e+00
1.03057639e+00
1.02638401e+00
1.02245250e+00
1.02702719e+00
1.02574769e+00
1.02824001e+00
1.02618901e+00
1.02279226e+00
1.02403948e+00
1.02736416e+00
1.02484910e+00
1.02856716e+00
1.02170766e+00
1.01891046e+00
1.02687463e+00
1.02916472e+00
1.02220883e+00
1.02292245e+00
1.02568371e+00
1.02140115e+00
1.02686145e+00
1.02709554e+00
1.01952995e+00
1.02124581e+00
1.02590114e+00
1.02594078e+00
1.02379829e+00
1.02309805e+00
1.02313409e+00
1.02232425e+00
1.02566938e+00
1.02590423e+00
1.01993741e+00
1.02284756e+00
1.02328267e+00
1.02435143e+00
1.02244593e+00
1.02070202e+00
1.02260319e+00
1.02443195e+00
1.02352787e+00
1.02119554e+00
1.01995951e+00
1.02183784e+00
1.02420955e+00
1.02301416e+00
1.01833560e+00
1.01860332e+00
1.02079638e+00
1.02168696e+00
1.02435848e+00
1.01996237e+00
1.01817428e+00
1.01677178e+00
1.01815241e+00
1.02351704e+00
1.02243480e+00
1.01952041e+00
1.01615159e+00
1.01765420e+00
1.01885219e+00
1.01891851e+00
1.03562069e+00
1.03697511e+00
1.05490236e+00
1.05190147e+00
1.04466479e+00
1.04808817e+00
1.04477536e+00
1.04625199e+00
1.05207737e+00
1.04184355e+00
1.04039820e+00
1.05273945e+00
1.03880129e+00
1.03980788e+00
1.04642692e+00
1.04082703e+00
1.04188486e+00
1.03863489e+00
1.04094589e+00
1.03765350e+00
1.03924145e+00
1.04172347e+00
1.04034548e+00
1.03456772e+00
1.03825235e+00
1.03420910e+00
1.03441323e+00
1.04456300e+00
1.02459291e+00
1.03675577e+00
1.04107788e+00
1.02303546e+00
1.03889928e+00
1.03692852e+00
1.03003186e+00
1.03484186e+00
1.03487496e+00
1.03222008e+00
1.02933084e+00
1.03663168e+00
1.03299447e+00
1.02973036e+00
1.02881665e+00
1.03196348e+00
1.03721286e+00
1.03050841e+00
1.02633894e+00
1.03049532e+00
1.03624584e+00
1.03205477e+00
1.02625114e+00
1.02934251e+00
1.02991330e+00
1.02993449e+00
1.03051769e+00
1.02717622e+00
1.02619736e+00
1.03145307e+00
1.02595826e+00
1.02421519e+00
1.02758710e+00
1.03022533e+00
1.02483129e+00
1.02339428e+00
1.03040690e+00
1.02379964e+00
1.02570357e+00
1.02653944e+00
1.02354181e+00
1.02546768e+00
1.02459610e+00
1.02432379e+00
1.02233874e+00
1.02686666e+00
1.02385145e+00
1.02531841e+00
1.02286699e+00
1.02290468e+00
1.02604569e+00
1.02481834e+00
1.02197182e+00
1.02688616e+00
1.02461048e+00
1.02103674e+00
1.02390677e+00
1.02398114e+00
1.02191278e+00
1.02559895e+00
1.02535134e+00
1.02063442e+00
1.02134041e+00
1.02578062e+00
1.02373567e+00
1.02410498e+00
1.02400651e+00
1.02049579e+00
1.02215551e+00
1.02445406e+00
1.02397433e+00
1.02499223e+00
1.01933695e+00
1.02161023e+00
1.02250902e+00
1.02421925e+00
1.02417566e+00
1.02264644e+00
1.02003783e+00
1.02058156e+00
1.02432623e+00
1.02336876e+00
1.02093179e+00
1.02071190e+00
1.02063463e+00
1.02171895e+00
1.02162010e+00
1.02127324e+00
1.02225466e+00
1.02026740e+00
1.01960685e+00
1.01984503e+00
1.01638481e+00
1.01899804e+00
1.02136481e+00
1.02304703e+00
1.02000689e+00
1.01619632e+00
1.01571272e+00
1.01946547e+00
1.04470499e+00
1.05052513e+00
1.04172610e+00
1.04318123e+00
1.05026314e+00
1.04968846e+00
1.04575032e+00
1.04502426e+00
1.04578008e+00
1.04982818e+00
1.04205296e+00
1.04584237e+00
1.04514006e+00
1.04294109e+00
1.04480660e+00
1.04447067e+00
1.03439381e+00
1.04408027e+00
1.04265899e+00
1.03594774e+00
1.04572645e+00
1.03859124e+00
1.03479073e+00
1.03663051e+00
1.04137852e+00
1.03881525e+00
1.03415935e+00
1.03655614e+00
1.03082883e+00
1.04217450e+00
1.03454476e+00
1.02797577e+00
1.04110221e+00
1.02782884e+00
1.03650927e+00
1.03454291e+00
1.02630820e+00
1.03718651e+00
1.03224441e+00
1.03071462e+00
1.02840144e+00
1.02987438e+00
1.03505941e+00
1.03419479e+00
1.02912705e+00
1.02572658e+00
1.03311083e+00
1.03467961e+00
1.02945762e+00
1.02636303e+00
1.02760302e+00
1.03415731e+00
1.03364826e+00
1.02590403e+00
1.02404231e+00
1.03382532e+00
1.02833135e+00
1.02697966e+00
1.02703245e+00
1.02556817e+00
1.02986331e+00
1.02563144e+00
1.03112040e+00
1.02201505e+00
1.02576609e+00