# vtk DataFile Version 2.0
LBM Flow Field - Timestep 410
ASCII
DATASET STRUCTURED_POINTS
DIMENSIONS 128 128 1
ORIGIN 0.0 0.0 0.0
SPACING 1.0 1.0 1.0
POINT_DATA 16384
SCALARS density double 1
LOOKUP_TABLE default
1.31691083e+00
1.30070794e+00
1.28131380e+00
1.26243962e+00
1.24357888e+00
1.22560177e+00
1.20767286e+00
1.19090246e+00
1.17424659e+00
1.15892040e+00
1.14380212e+00
1.13007809e+00
1.11667348e+00
1.10462961e+00
1.09302289e+00
1.08266310e+00
1.07285118e+00
1.06411593e+00
1.05601983e+00
1.04879979e+00
1.04228076e+00
1.03643164e+00
1.03130987e+00
1.02666685e+00
1.02274044e+00
1.01913089e+00
1.01619316e+00
1.01344701e+00
1.01130065e+00
1.00925813e+00
1.00772540e+00
1.00624213e+00
1.00517094e+00
1.00412085e+00
1.00338697e+00
1.00266345e+00
1.00216962e+00
1.00168531e+00
1.00135838e+00
1.00104392e+00
1.00083071e+00
1.00063294e+00
1.00049595e+00
1.00037554e+00
1.00028893e+00
1.00021796e+00
1.00016423e+00
1.00012365e+00
1.00009107e+00
1.00006850e+00
1.00004929e+00
1.00003701e+00
1.00002606e+00
1.00001947e+00
1.00001346e+00
1.00000996e+00
1.00000680e+00
1.00000495e+00
1.00000336e+00
1.00000239e+00
1.00000162e+00
1.00000112e+00
1.00000076e+00
1.00000051e+00
1.00000035e+00
1.00000022e+00
1.00000016e+00
1.00000010e+00
1.00000007e+00
1.00000004e+00
1.00000003e+00
1.00000002e+00
1.00000001e+00
1.00000001e+00
1.00000000e+00
1.00000000e+00
1.00000000e+00
1.00000000e+00
1.00000000e+00
1.00000000e+00
1.00000000e+00
1.00000000e+00
1.00000000e+00
1.00000000e+00
1.00000000e+00
1.00000000e+00
1.00000000e+00
1.00000000e+00
1.00000000e+00
1.00000000e+00
1.00000000e+00
1.00000000e+00
1.00000000e+00
1.00000000e+00
1.00000000e+00
1.00000000e+00
1.00000000e+00
1.00000000e+00
1.00000000e+00
1.00000000e+00
1.00000000e+00
1.00000000e+00
1.00000000e+00
1.00000000e+00
1.00000000e+00
1.00000000e+00
1.00000000e+00
1.00000000e+00
1.00000000e+00
1.00000000e+00
1.00000000e+00
1.00000000e+00
1.00000000e+00
1.00000000e+00
1.00000000e+00
1.00000000e+00
1.00000000e+00
1.00000000e+00
1.00000000e+00
1.00000000e+00
1.00000000e+00
1.00000000e+00
1.00000000e+00
1.00000000e+00
1.00000000e+00
1.00000000e+00
1.00000000e+00
1.00000000e+00
1.12317143e+00
1.10445985e+00
1.08529442e+00
1.08312278e+00
1.08356538e+00
1.07353097e+00
1.07355156e+00
1.07312664e+00
1.06777694e+00
1.06554924e+00
1.06765253e+00
1.06691989e+00
1.06794865e+00
1.06755973e+00
1.06899935e+00
1.07141387e+00
1.06926616e+00
1.06999250e+00
1.07323264e+00
1.07266207e+00
1.06982283e+00
1.07228646e+00
1.07726716e+00
1.07676141e+00
1.07744873e+00
1.07869989e+00
1.07942057e+00
1.07797696e+00
1.07357137e+00
1.07100283e+00
1.07053394e+00
1.06981276e+00
1.07112319e+00
1.07043464e+00
1.07023244e+00
1.06658567e+00
1.06438753e+00
1.06695307e+00
1.06971721e+00
1.06905124e+00
1.06401253e+00
1.06503970e+00
1.06498048e+00
1.06412006e+00
1.06350193e+00
1.06040425e+00
1.05680074e+00
1.05904296e+00
1.06075668e+00
1.05891371e+00
1.05608802e+00
1.05447566e+00
1.05177721e+00
1.05708616e+00
1.05760262e+00
1.05366157e+00
1.05251726e+00
1.05437152e+00
1.05450258e+00
1.05500644e+00
1.05285477e+00
1.05389637e+00
1.05115608e+00
1.05190622e+00
1.05062524e+00
1.05237874e+00
1.05279200e+00
1.04738949e+00
1.05101945e+00
1.05296767e+00
1.04878445e+00
1.04950466e+00
1.05138019e+00
1.04711611e+00
1.04833343e+00
1.04935304e+00
1.04554000e+00
1.04552434e+00
1.04702325e+00
1.04479105e+00
1.04594537e+00
1.04561446e+00
1.04575477e+00
1.04563074e+00
1.04346427e+00
1.04330275e+00
1.04536470e+00
1.04539582e+00
1.04275808e+00
1.04364611e+00
1.04614442e+00
1.04481997e+00
1.04319157e+00
1.04497479e+00
1.04394407e+00
1.04444190e+00
1.04443162e+00
1.04447459e+00
1.04291558e+00
1.04627368e+00
1.04519661e+00
1.04336206e+00
1.04459384e+00
1.04538802e+00
1.04513919e+00
1.04575295e+00
1.04571137e+00
1.04472672e+00
1.04553654e+00
1.04316320e+00
1.04262630e+00
1.04295124e+00
1.04303086e+00
1.04221401e+00
1.04092146e+00
1.04295077e+00
1.04296159e+00
1.04018800e+00
1.04047573e+00
1.04085150e+00
1.04117441e+00
1.03997782e+00
1.03835550e+00
1.04045332e+00
1.03878535e+00
1.03651484e+00
1.03556975e+00
1.03659459e+00
1.10309174e+00
1.09938792e+00
1.09699998e+00
1.08774156e+00
1.07775868e+00
1.07672548e+00
1.07937384e+00
1.07049661e+00
1.06768109e+00
1.06880814e+00
1.06727485e+00
1.07022663e+00
1.06867713e+00
1.06555262e+00
1.06683400e+00
1.06921705e+00
1.06994626e+00
1.06657208e+00
1.06987127e+00
1.07429452e+00
1.07259214e+00
1.07062537e+00
1.07529273e+00
1.07580153e+00
1.07608039e+00
1.07859872e+00
1.07767893e+00
1.07342889e+00
1.07313274e+00
1.07086232e+00
1.06895237e+00
1.06806329e+00
1.07391193e+00
1.07097953e+00
1.06928041e+00
1.06667509e+00
1.06600122e+00
1.06308306e+00
1.06618195e+00
1.06915085e+00
1.06563550e+00
1.06787754e+00
1.06261869e+00
1.05811116e+00
1.06181896e+00
1.06435810e+00
1.05835274e+00
1.05418416e+00
1.05633567e+00
1.05999610e+00
1.05496667e+00
1.05630538e+00
1.05552505e+00
1.05762091e+00
1.05376882e+00
1.05023370e+00
1.05158317e+00
1.05852144e+00
1.05196661e+00
1.05036948e+00
1.05000745e+00
1.05528631e+00
1.05153501e+00
1.05026057e+00
1.05446219e+00
1.04871319e+00
1.05349752e+00
1.05076058e+00
1.04738915e+00
1.05324516e+00
1.04750599e+00
1.04788458e+00
1.05147289e+00
1.04908224e+00
1.04590048e+00
1.04758981e+00
1.04743356e+00
1.04662133e+00
1.04575521e+00
1.04410487e+00
1.04512889e+00
1.04560733e+00
1.04489202e+00
1.04636344e+00
1.04279628e+00
1.04336575e+00
1.04446805e+00
1.04554088e+00
1.04092496e+00
1.04216477e+00
1.04407926e+00
1.04368642e+00
1.04138381e+00
1.04434359e+00
1.04468541e+00
1.04291153e+00
1.04170137e+00
1.04284168e+00
1.04288401e+00
1.04380809e+00
1.04478321e+00
1.04238487e+00
1.04410163e+00
1.04405525e+00
1.04390221e+00
1.04253456e+00
1.04456960e+00
1.04514561e+00
1.04427125e+00
1.04195875e+00
1.04216612e+00
1.04319967e+00
1.04267429e+00
1.04135656e+00
1.03998339e+00
1.04290042e+00
1.04582987e+00
1.04090669e+00
1.03903787e+00
1.04343755e+00
1.04079984e+00
1.03798829e+00
1.03940655e+00
1.04147111e+00
1.04053771e+00
1.03875197e+00
1.03504308e+00
1.03690120e+00
1.09335126e+00
1.09911610e+00
1.09347363e+00
1.08521381e+00
1.08141996e+00
1.08348968e+00
1.07476754e+00
1.06666721e+00
1.07112622e+00
1.07313571e+00
1.06766057e+00
1.06672123e+00
1.06864838e+00
1.07167047e+00
1.06749027e+00
1.06750816e+00
1.06901004e+00
1.06965923e+00
1.06982134e+00
1.07177690e+00
1.07484961e+00
1.07418804e+00
1.07502820e+00
1.07703737e+00
1.07608218e+00
1.07760631e+00
1.07759182e+00
1.07332417e+00
1.06878348e+00
1.07164756e+00
1.06820897e+00
1.06729966e+00
1.07111773e+00
1.07113506e+00
1.06962727e+00
1.06830534e+00
1.06452895e+00
1.06062361e+00
1.06285795e+00
1.07302720e+00
1.07009711e+00
1.06004343e+00
1.05330857e+00
1.05694390e+00
1.06921991e+00
1.06434965e+00
1.05336250e+00
1.04792431e+00
1.05466684e+00
1.06383135e+00
1.05808891e+00
1.05216662e+00
1.05180659e+00
1.05802714e+00
1.05913454e+00
1.05166161e+00
1.04836118e+00
1.05530088e+00
1.05691542e+00
1.04879426e+00
1.04865867e+00
1.05405599e+00
1.05043841e+00
1.04874389e+00
1.05499165e+00
1.05048373e+00
1.04833048e+00
1.05048343e+00
1.04896279e+00
1.05162422e+00
1.04664588e+00
1.04729244e+00
1.04846310e+00
1.04773771e+00
1.04845818e+00
1.04833424e+00
1.04604614e+00
1.04767184e+00
1.04594780e+00
1.04476989e+00
1.04472007e+00
1.04534433e+00
1.04457700e+00
1.04404161e+00
1.04269119e+00
1.04338849e+00
1.04400926e+00
1.04423466e+00
1.04114480e+00
1.04162518e+00
1.04367212e+00
1.04125216e+00
1.04033333e+00
1.04361993e+00
1.04618008e+00
1.04103891e+00
1.04022873e+00
1.04112328e+00
1.04299513e+00
1.04341756e+00
1.04233023e+00
1.04140794e+00
1.04459769e+00
1.04430401e+00
1.04123189e+00
1.04156440e+00
1.04421010e+00
1.04491005e+00
1.04189891e+00
1.04067129e+00
1.04112755e+00
1.04465982e+00
1.04291128e+00
1.03935341e+00
1.04044382e+00
1.04517645e+00
1.04415945e+00
1.03937603e+00
1.03978287e+00
1.04210711e+00
1.04097238e+00
1.03810952e+00
1.04044470e+00
1.04374631e+00
1.04113503e+00
1.03879493e+00
1.03616667e+00
1.03704890e+00
1.09591028e+00
1.08977116e+00
1.08481529e+00
1.08985642e+00
1.08941847e+00
1.07764117e+00
1.07112167e+00
1.07947748e+00
1.07454329e+00
1.06706151e+00
1.07065505e+00
1.07085656e+00
1.06942950e+00
1.06939834e+00
1.07216542e+00
1.07017882e+00
1.06878388e+00
1.07440578e+00
1.07326447e+00
1.07201615e+00
1.07410441e+00
1.07321435e+00
1.07249244e+00
1.07762400e+00
1.07592959e+00
1.07567623e+00
1.07298918e+00
1.07357972e+00
1.06797355e+00
1.06741977e+00
1.06514041e+00
1.06636543e+00
1.07009983e+00
1.07229991e+00
1.06845318e+00
1.06477766e+00
1.06153870e+00
1.06412525e+00
1.06768039e+00
1.07255865e+00
1.06315282e+00
1.05707253e+00
1.05519330e+00
1.06178113e+00
1.06795619e+00
1.05845601e+00
1.05117752e+00
1.05345978e+00
1.05866492e+00
1.06060298e+00
1.05491989e+00
1.05107590e+00
1.05435372e+00
1.06027375e+00
1.05547106e+00
1.04590989e+00
1.04988952e+00
1.05855112e+00
1.06144052e+00
1.04376216e+00
1.04473756e+00
1.05901882e+00
1.05416728e+00
1.04460741e+00
1.04722764e+00
1.05402045e+00
1.04919430e+00
1.04677009e+00
1.05129474e+00
1.04981876e+00
1.04461588e+00
1.04851042e+00
1.05259650e+00
1.04580776e+00
1.04675574e+00
1.04920763e+00
1.04647369e+00
1.04842820e+00
1.04804230e+00
1.04659718e+00
1.04397614e+00
1.04490889e+00
1.04562032e+00
1.04367284e+00
1.04274877e+00
1.04376522e+00
1.04432465e+00
1.04355425e+00
1.04335682e+00
1.04275488e+00
1.04250774e+00
1.04173622e+00
1.04074419e+00
1.04341863e+00
1.04422430e+00
1.04012679e+00
1.03825547e+00
1.04155019e+00
1.04273837e+00
1.04133645e+00
1.04016643e+00
1.04077780e+00
1.04273193e+00
1.04476329e+00
1.03937565e+00
1.03782677e+00
1.04281114e+00
1.04534149e+00
1.04015539e+00
1.03935069e+00
1.04043939e+00
1.04315893e+00
1.04153002e+00
1.03914481e+00
1.03886934e+00
1.04478789e+00
1.04283615e+00
1.03567465e+00
1.04244360e+00
1.04479650e+00
1.03879073e+00
1.03733290e+00
1.04073335e+00
1.04152294e+00
1.04126350e+00
1.03875815e+00
1.03479560e+00
1.03637164e+00
1.09550119e+00
1.08657964e+00
1.08704226e+00
1.08562267e+00
1.08140758e+00
1.08327306e+00
1.08425888e+00
1.07927106e+00
1.07257507e+00
1.07275655e+00
1.07420282e+00
1.07205345e+00
1.07369915e+00
1.07108668e+00
1.07518551e+00
1.07528445e+00
1.07453662e+00
1.07134688e+00
1.07679136e+00
1.07861093e+00
1.07780883e+00
1.07579463e+00
1.07499212e+00
1.07309311e+00
1.07408676e+00
1.07404059e+00
1.06793372e+00
1.07026804e+00
1.06761412e+00
1.06490965e+00
1.06632263e+00
1.06857540e+00
1.06808693e+00
1.07000071e+00
1.07019676e+00
1.06376621e+00
1.05905370e+00
1.05867447e+00
1.06814808e+00
1.07329537e+00
1.06673513e+00
1.05964815e+00
1.05145213e+00
1.05626617e+00
1.06820711e+00
1.06473563e+00
1.05404628e+00
1.05122085e+00
1.05768445e+00
1.06317931e+00
1.05904365e+00
1.04948790e+00
1.04983159e+00
1.06011218e+00
1.05636454e+00
1.04461018e+00
1.05004944e+00
1.05770219e+00
1.05751513e+00
1.04775039e+00
1.04689733e+00
1.06026630e+00
1.05177623e+00
1.04333966e+00
1.05005143e+00
1.05648450e+00
1.05001726e+00
1.04063635e+00
1.04996421e+00
1.05471816e+00
1.04746015e+00
1.04758399e+00
1.05230100e+00
1.04648104e+00
1.04845799e+00
1.05091451e+00
1.04757086e+00
1.04630289e+00
1.04835883e+00
1.04963885e+00
1.04802538e+00
1.04390588e+00
1.04548164e+00
1.04417443e+00
1.04404367e+00
1.04649365e+00
1.04547828e+00
1.04055336e+00
1.04264286e+00
1.04584881e+00
1.04189221e+00
1.03919008e+00
1.04172441e+00
1.04433614e+00
1.04053895e+00
1.04016082e+00
1.04054277e+00
1.04157861e+00
1.04273316e+00
1.04048002e+00
1.03720404e+00
1.04010450e+00
1.03933271e+00
1.04180527e+00
1.04029025e+00
1.03942610e+00
1.04261341e+00
1.04220585e+00
1.03956543e+00
1.03960446e+00
1.04105543e+00
1.04229448e+00
1.03970468e+00
1.03802252e+00
1.03899390e+00
1.04335312e+00
1.04213187e+00
1.03553062e+00
1.04066464e+00
1.04402666e+00
1.03840584e+00
1.03673401e+00
1.04170323e+00
1.04266191e+00
1.03943160e+00
1.03890017e+00
1.03674528e+00
1.03790122e+00
1.08283105e+00
1.08773803e+00
1.09114017e+00
1.08325500e+00
1.08239189e+00
1.08837183e+00
1.08397526e+00
1.07933178e+00
1.08150461e+00
1.08129431e+00
1.07521647e+00
1.07058623e+00
1.08071801e+00
1.08163453e+00
1.07484272e+00
1.07331675e+00
1.07626409e+00
1.07667044e+00
1.07818128e+00
1.07375500e+00
1.07404540e+00
1.07639906e+00
1.07927625e+00
1.07734065e+00
1.07537186e+00
1.07122530e+00
1.06968769e+00
1.06729872e+00
1.06616894e+00
1.06498733e+00
1.06314557e+00
1.06463373e+00
1.07246671e+00
1.07340384e+00
1.06918586e+00
1.06229162e+00
1.05850134e+00
1.05787715e+00
1.06538665e+00
1.07553800e+00
1.06958336e+00
1.05736409e+00
1.05170885e+00
1.05791078e+00
1.06603029e+00
1.06046058e+00
1.05267973e+00
1.05253658e+00
1.05860695e+00
1.06034346e+00
1.05574204e+00
1.04873300e+00
1.05234681e+00
1.05850246e+00
1.05281180e+00
1.04027312e+00
1.05070311e+00
1.06276448e+00
1.05426106e+00
1.04213602e+00
1.04667821e+00
1.06057623e+00
1.05504141e+00
1.04297243e+00
1.05218175e+00
1.05256211e+00
1.05140318e+00
1.04704222e+00
1.05370181e+00
1.05194304e+00
1.04634335e+00
1.04800113e+00
1.05421803e+00
1.04893620e+00
1.04801291e+00
1.04778002e+00
1.04787392e+00
1.04786684e+00
1.04877050e+00
1.04815257e+00
1.04939321e+00
1.04659015e+00
1.04926179e+00
1.04863177e+00
1.04266209e+00
1.04394310e+00
1.04617363e+00
1.04438697e+00
1.04304842e+00
1.04612753e+00
1.04289372e+00
1.04093365e+00
1.04376150e+00
1.04477651e+00
1.03808078e+00
1.03878615e+00
1.04124641e+00
1.04217783e+00
1.04085311e+00
1.03934326e+00
1.03748871e+00
1.03926009e+00
1.04100805e+00
1.04127430e+00
1.03922071e+00
1.03937538e+00
1.04331668e+00
1.03945708e+00
1.03664654e+00
1.04005733e+00
1.04286374e+00
1.03887633e+00
1.03980662e+00
1.03808405e+00
1.04011253e+00
1.04180376e+00
1.03664282e+00
1.03532315e+00
1.04226982e+00
1.04194185e+00
1.03718215e+00
1.03793321e+00
1.03848543e+00
1.03927742e+00
1.04048980e+00
1.03906717e+00
1.03857199e+00
1.03873598e+00
1.08060004e+00
1.08710531e+00
1.08361042e+00
1.08533312e+00
1.08874613e+00
1.08275187e+00
1.08129227e+00
1.08720069e+00
1.07948240e+00
1.07722975e+00
1.08288248e+00
1.08150972e+00
1.07959991e+00
1.07254824e+00
1.07447222e+00
1.07774306e+00
1.07737639e+00
1.07617968e+00
1.07112388e+00
1.07325000e+00
1.07924034e+00
1.07659634e+00
1.07108540e+00
1.07308311e+00
1.07404915e+00
1.07353318e+00
1.07085084e+00
1.06784909e+00
1.06355127e+00
1.06520369e+00
1.06386671e+00
1.06548797e+00
1.06951995e+00
1.07191873e+00
1.07393868e+00
1.06583678e+00
1.05507102e+00
1.05533394e+00
1.06595909e+00
1.08190263e+00
1.07230156e+00
1.05485502e+00
1.04449730e+00
1.05808389e+00
1.06833249e+00
1.06347381e+00
1.04948143e+00
1.04631873e+00
1.05276567e+00
1.06279092e+00
1.05849238e+00
1.04963910e+00
1.04766175e+00
1.05758479e+00
1.05769823e+00
1.04903589e+00
1.04679947e+00
1.05749048e+00
1.05433899e+00
1.04296442e+00
1.05044867e+00
1.05885900e+00
1.05119042e+00
1.04231114e+00
1.05462794e+00
1.06021267e+00
1.04724127e+00
1.04546571e+00
1.05514591e+00
1.05382684e+00
1.04735336e+00
1.05108532e+00
1.04947658e+00
1.04663295e+00
1.05035363e+00
1.05230677e+00
1.04675675e+00
1.04944289e+00
1.04855594e+00
1.04852166e+00
1.04906473e+00
1.04802179e+00
1.04721824e+00
1.04902833e+00
1.04578299e+00
1.04557564e+00
1.04552754e+00
1.04519856e+00
1.04351519e+00
1.04562852e+00
1.04384523e+00
1.04125254e+00
1.04403606e+00
1.04367530e+00
1.03877724e+00
1.04011853e+00
1.04347774e+00
1.04007006e+00
1.04009112e+00
1.03732000e+00
1.04053865e+00
1.04087692e+00
1.03713271e+00
1.03782854e+00
1.03900966e+00
1.03964275e+00
1.04266697e+00
1.03938494e+00
1.03611126e+00
1.04125912e+00
1.04429158e+00
1.03753652e+00
1.03769205e+00
1.03957807e+00
1.03751121e+00
1.03889701e+00
1.03744098e+00
1.03631475e+00
1.04247795e+00
1.03988161e+00
1.03616519e+00
1.03975205e+00
1.04072662e+00
1.03645836e+00
1.03957410e+00
1.04092821e+00
1.03964962e+00
1.03852610e+00
1.08932721e+00
1.08562026e+00
1.08013313e+00
1.08864902e+00
1.08779452e+00
1.08161100e+00
1.08297362e+00
1.08546367e+00
1.08196161e+00
1.08272048e+00
1.08213322e+00
1.08294364e+00
1.07870677e+00
1.07439096e+00
1.07921996e+00
1.07562979e+00
1.07485729e+00
1.07945133e+00
1.07555712e+00
1.07405184e+00
1.07362723e+00
1.07381436e+00
1.07380172e+00
1.07309890e+00
1.07303087e+00
1.07273170e+00
1.07037046e+00
1.07212082e+00
1.06589778e+00
1.06218028e+00
1.06156043e+00
1.06821692e+00
1.07055250e+00
1.07621112e+00
1.07436298e+00
1.06372906e+00
1.05465222e+00
1.05911436e+00
1.07247148e+00
1.07840867e+00
1.06494127e+00
1.05338407e+00
1.04713241e+00
1.05775882e+00
1.06714617e+00
1.06220219e+00
1.05052706e+00
1.04612889e+00
1.05647666e+00
1.06422449e+00
1.05655995e+00
1.04524713e+00
1.04899396e+00
1.06136328e+00
1.05753615e+00
1.04725315e+00
1.04817723e+00
1.06091511e+00
1.05903411e+00
1.04375425e+00
1.04817308e+00
1.05811442e+00
1.05317932e+00
1.04565035e+00
1.04831174e+00
1.05810726e+00
1.04678946e+00
1.04510930e+00
1.05747634e+00
1.05386763e+00
1.04194935e+00
1.05083754e+00
1.05558356e+00
1.04782525e+00
1.04643120e+00
1.05145219e+00
1.04772391e+00
1.05027351e+00
1.04918306e+00
1.04603628e+00
1.04534390e+00
1.04877014e+00
1.04898181e+00
1.04732080e+00
1.04475109e+00
1.04549514e+00
1.04690157e+00
1.04739230e+00
1.04455550e+00
1.04400257e+00
1.04386253e+00
1.04248847e+00
1.04483044e+00
1.04278675e+00
1.03967106e+00
1.04078165e+00
1.04353110e+00
1.03865208e+00
1.03835869e+00
1.03826357e+00
1.03856891e+00
1.04092198e+00
1.03715336e+00
1.03659334e+00
1.04012491e+00
1.03899925e+00
1.03972076e+00
1.03939063e+00
1.03659714e+00
1.04077677e+00
1.04070084e+00
1.03799336e+00
1.03783925e+00
1.04002114e+00
1.03918123e+00
1.03647766e+00
1.03747864e+00
1.03820409e+00
1.04152123e+00
1.03651968e+00
1.03581737e+00
1.04001901e+00
1.04004811e+00
1.03637615e+00
1.03843179e+00
1.04073322e+00
1.03929734e+00
1.03818598e+00
1.08989353e+00
1.08719763e+00
1.08612219e+00
1.08714570e+00
1.08314020e+00
1.08749805e+00
1.08711560e+00
1.07954550e+00
1.08282823e+00
1.08820422e+00
1.07932723e+00
1.07694273e+00
1.07826644e+00
1.08164500e+00
1.07735090e+00
1.07405146e+00
1.07981620e+00
1.07654136e+00
1.07099151e+00
1.07838632e+00
1.07686727e+00
1.07567182e+00
1.07476490e+00
1.06971177e+00
1.07307042e+00
1.07425002e+00
1.07047688e+00
1.06615792e+00
1.06346139e+00
1.06666147e+00
1.06753438e+00
1.06704219e+00
1.07297970e+00
1.07347273e+00
1.07174276e+00
1.06543119e+00
1.05521464e+00
1.05428842e+00
1.06800527e+00
1.07784540e+00
1.06693871e+00
1.05492958e+00
1.04577219e+00
1.05057484e+00
1.06571421e+00
1.06542457e+00
1.05287977e+00
1.04136217e+00
1.05469501e+00
1.06574800e+00
1.05681600e+00
1.04545485e+00
1.04729708e+00
1.05754311e+00
1.05934964e+00
1.04663406e+00
1.04966313e+00
1.05766726e+00
1.05364010e+00
1.04775565e+00
1.05187572e+00
1.05884752e+00
1.04969064e+00
1.04664030e+00
1.05144147e+00
1.05489578e+00
1.05010489e+00
1.04537715e+00
1.05178924e+00
1.05153579e+00
1.04515732e+00
1.05200891e+00
1.05323195e+00
1.04544419e+00
1.04667626e+00
1.05206222e+00
1.04914053e+00
1.04820015e+00
1.04762365e+00
1.04623780e+00
1.04616916e+00
1.04629548e+00
1.04635616e+00
1.04703282e+00
1.04810776e+00
1.04720759e+00
1.04553782e+00
1.04589891e+00
1.04287436e+00
1.04249135e+00
1.04511436e+00
1.04234317e+00
1.04452166e+00
1.04274238e+00
1.03943465e+00
1.04264351e+00
1.04397666e+00
1.03704363e+00
1.03654164e+00
1.03808273e+00
1.03990846e+00
1.04030782e+00
1.03561444e+00
1.03619460e+00
1.03838736e+00
1.03868608e+00
1.03855175e+00
1.03770177e+00
1.03608866e+00
1.04234589e+00
1.03886754e+00
1.03497888e+00
1.04047374e+00
1.04275634e+00
1.03914565e+00
1.03731764e+00
1.03760313e+00
1.03808349e+00
1.04237200e+00
1.03640564e+00
1.03664438e+00
1.04259727e+00
1.03669683e+00
1.03424724e+00
1.03763512e+00
1.03912697e+00
1.03608622e+00
1.03590833e+00
1.08162181e+00
1.08459323e+00
1.09002855e+00
1.08789087e+00
1.08274209e+00
1.08485330e+00
1.08640992e+00
1.08421677e+00
1.08258293e+00
1.08036283e+00
1.07800384e+00
1.07954534e+00
1.07785147e+00
1.07944743e+00
1.07379795e+00
1.07646536e+00
1.07988252e+00
1.07484547e+00
1.07482914e+00
1.08063078e+00
1.07367685e+00
1.07082208e+00
1.07498844e+00
1.07780729e+00
1.07556313e+00
1.07003886e+00
1.07043155e+00
1.06721272e+00
1.06330032e+00
1.06610444e+00
1.06307167e+00
1.06384469e+00
1.07537113e+00
1.07723416e+00
1.07289164e+00
1.06058824e+00
1.05483163e+00
1.05523398e+00
1.06717734e+00
1.07816322e+00
1.07146363e+00
1.05224132e+00
1.04345361e+00
1.05059351e+00
1.06563407e+00
1.06416577e+00
1.05151497e+00
1.04140839e+00
1.05326084e+00
1.06691728e+00
1.05614175e+00
1.04783047e+00
1.04411825e+00
1.05662219e+00
1.06020881e+00
1.04755049e+00
1.04573627e+00
1.05994034e+00
1.05304962e+00
1.04728897e+00
1.04898566e+00
1.06174165e+00
1.05364285e+00
1.04785132e+00
1.05273308e+00
1.05224591e+00
1.04838997e+00
1.05147358e+00
1.05415172e+00
1.04946671e+00
1.04442156e+00
1.05414351e+00
1.05150706e+00
1.04444854e+00
1.04810651e+00
1.04992653e+00
1.04709151e+00
1.05001951e+00
1.04990792e+00
1.04481224e+00
1.04831950e+00
1.04920837e+00
1.04583316e+00
1.04344269e+00
1.04650507e+00
1.04862132e+00
1.04536941e+00
1.04569479e+00
1.04348909e+00
1.04152291e+00
1.04570911e+00
1.04505557e+00
1.04275850e+00
1.04271301e+00
1.04159234e+00
1.04347090e+00
1.04135739e+00
1.03740774e+00
1.03937734e+00
1.04100144e+00
1.03665253e+00
1.03981056e+00
1.03485558e+00
1.03569778e+00
1.03755868e+00
1.03539460e+00
1.03738172e+00
1.03718271e+00
1.03560977e+00
1.03818592e+00
1.03808447e+00
1.03432213e+00
1.03995206e+00
1.04381881e+00
1.03721072e+00
1.03651828e+00
1.03889491e+00
1.03812520e+00
1.04120515e+00
1.03802273e+00
1.03733132e+00
1.04391610e+00
1.03563799e+00
1.03019997e+00
1.03561236e+00
1.03908203e+00
1.03471724e+00
1.03585898e+00
1.08460510e+00
1.08583541e+00
1.08192987e+00
1.08474289e+00
1.08742902e+00
1.08223462e+00
1.07895924e+00
1.08590513e+00
1.08369948e+00
1.07585616e+00
1.08115105e+00
1.08129764e+00
1.07371877e+00
1.07782256e+00
1.07914692e+00
1.07727486e+00
1.07333160e+00
1.07763244e+00
1.07938417e+00
1.07560009e+00
1.07397606e+00
1.07546327e+00
1.07869294e+00
1.08126291e+00
1.07434622e+00
1.07017227e+00
1.07268495e+00
1.06890641e+00
1.06269751e+00
1.06169260e+00
1.06069281e+00
1.06359741e+00
1.07018913e+00
1.07987069e+00
1.07319643e+00
1.05993142e+00
1.05271018e+00
1.05276954e+00
1.06447507e+00
1.07677059e+00
1.06940113e+00
1.04960212e+00
1.04336987e+00
1.05597376e+00
1.06654824e+00
1.05987276e+00
1.04688209e+00
1.04291916e+00
1.05490011e+00
1.06619726e+00
1.05537608e+00
1.04604948e+00
1.04450460e+00
1.05954039e+00
1.06051524e+00
1.04919218e+00
1.04475773e+00
1.05784054e+00
1.05631268e+00
1.04723178e+00
1.05001648e+00
1.06010948e+00
1.05511044e+00
1.04467085e+00
1.05271510e+00
1.05974352e+00
1.04922107e+00
1.04817920e+00
1.05376162e+00
1.04842884e+00
1.04364713e+00
1.05621656e+00
1.05146413e+00
1.04112710e+00
1.04997415e+00
1.05156006e+00
1.04405747e+00
1.04829748e+00
1.05023625e+00
1.04597214e+00
1.04891669e+00
1.04962018e+00
1.04587331e+00
1.04435268e+00
1.04448555e+00
1.04872849e+00
1.04439760e+00
1.04471564e+00
1.04413374e+00
1.04413563e+00
1.04451580e+00
1.04401038e+00
1.04211536e+00
1.04268133e+00
1.04071525e+00
1.04589956e+00
1.04226915e+00
1.03842522e+00
1.03934046e+00
1.03919458e+00
1.03655341e+00
1.03775590e+00
1.03649403e+00
1.03645925e+00
1.03645021e+00
1.03214548e+00
1.03399669e+00
1.03505054e+00
1.03724313e+00
1.03717347e+00
1.03515764e+00
1.03624833e+00
1.03929412e+00
1.04045949e+00
1.03637499e+00
1.03896944e+00
1.03831632e+00
1.03635466e+00
1.03943376e+00
1.03834840e+00
1.03943923e+00
1.04356770e+00
1.03534284e+00
1.03306152e+00
1.03486877e+00
1.03755817e+00
1.03386896e+00
1.03656775e+00
1.09171118e+00
1.09022447e+00
1.08071941e+00
1.07925280e+00
1.08287767e+00
1.08588663e+00
1.08093340e+00
1.08017553e+00
1.07714824e+00
1.07734420e+00
1.08093690e+00
1.07683118e+00
1.07535674e+00
1.07629095e+00
1.07346987e+00
1.07502896e+00
1.07569333e+00
1.07950912e+00
1.07566832e+00
1.07169826e+00
1.07829319e+00
1.08044062e+00
1.07525626e+00
1.07469696e+00
1.07372028e+00
1.07320601e+00
1.07259677e+00
1.06833681e+00
1.06415514e+00
1.06243097e+00
1.05982572e+00
1.06435555e+00
1.06925387e+00
1.07491738e+00
1.07273420e+00
1.06170082e+00
1.05204150e+00
1.05246265e+00
1.06537601e+00
1.07526589e+00
1.06898335e+00
1.05354286e+00
1.04367045e+00
1.05262063e+00
1.06032212e+00
1.06212062e+00
1.05361028e+00
1.04680961e+00
1.04997068e+00
1.05917305e+00
1.05674111e+00
1.05014413e+00
1.04983554e+00
1.06035224e+00
1.05633661e+00
1.04771183e+00
1.05312626e+00
1.05640554e+00
1.05522932e+00
1.04781577e+00
1.05162123e+00
1.05661513e+00
1.05314302e+00
1.04820251e+00
1.05012833e+00
1.05574228e+00
1.05011659e+00
1.04620444e+00
1.05417098e+00
1.05261219e+00
1.04652355e+00
1.05339340e+00
1.05151465e+00
1.04270667e+00
1.05176145e+00
1.05444013e+00
1.04437075e+00
1.04875064e+00
1.05011392e+00
1.04753325e+00
1.04853628e+00
1.05017187e+00
1.04704510e+00
1.04611750e+00
1.04463918e+00
1.04921107e+00
1.04514455e+00
1.04573114e+00
1.04588390e+00
1.04584136e+00
1.04586089e+00
1.04367416e+00
1.04154771e+00
1.04414560e+00
1.04288909e+00
1.04307626e+00
1.04101181e+00
1.03987997e+00
1.04592160e+00
1.03984332e+00
1.03701696e+00
1.04001164e+00
1.03739301e+00
1.03646892e+00
1.03541326e+00
1.03105262e+00
1.03359730e+00
1.03615153e+00
1.03399878e+00
1.03675391e+00
1.03389777e+00
1.03418220e+00
1.03798903e+00
1.03753219e+00
1.03340922e+00
1.03927623e+00
1.04025265e+00
1.03425596e+00
1.04016683e+00
1.03898679e+00
1.03827471e+00
1.04206771e+00
1.03389757e+00
1.03526126e+00
1.03975467e+00
1.03791336e+00
1.03325038e+00
1.03532860e+00
1.08865147e+00
1.08051045e+00
1.08703340e+00
1.08593224e+00
1.08066920e+00
1.08187751e+00
1.08118464e+00
1.07758872e+00
1.07456215e+00
1.08088173e+00
1.07892716e+00
1.07199507e+00
1.07643709e+00
1.07961418e+00
1.07757841e+00
1.07808551e+00
1.07564444e+00
1.07405065e+00
1.07562654e+00
1.07891203e+00
1.07967923e+00
1.07552429e+00
1.07321385e+00
1.07650397e+00
1.07240719e+00
1.06985616e+00
1.06860807e+00
1.06527836e+00
1.06387650e+00
1.06292122e+00
1.05604813e+00
1.06270050e+00
1.07187200e+00
1.07773797e+00
1.07294621e+00
1.05835027e+00
1.04982166e+00
1.05327338e+00
1.06588090e+00
1.07803080e+00
1.07226435e+00
1.04828304e+00
1.03980899e+00
1.05437147e+00
1.06563460e+00
1.06142954e+00
1.05094909e+00
1.04535283e+00
1.05349351e+00
1.06126785e+00
1.05856113e+00
1.04736333e+00
1.04568055e+00
1.06212826e+00
1.06320824e+00
1.04556302e+00
1.05102842e+00
1.05695422e+00
1.05607457e+00
1.05139269e+00
1.05079199e+00
1.05411986e+00
1.04639864e+00
1.04958975e+00
1.05579822e+00
1.04980562e+00
1.04780548e+00
1.04923011e+00
1.05406019e+00
1.05100802e+00
1.04799369e+00
1.05178598e+00
1.05155322e+00
1.04832679e+00
1.05445815e+00
1.05321707e+00
1.04536452e+00
1.05141425e+00
1.05138688e+00
1.04730374e+00
1.05058527e+00
1.04933152e+00
1.04988634e+00
1.04944531e+00
1.04646899e+00
1.04697162e+00
1.04640376e+00
1.04663684e+00
1.04794953e+00
1.04621151e+00
1.04542620e+00
1.04332089e+00
1.04576041e+00
1.04307285e+00
1.04347822e+00
1.04435316e+00
1.04178940e+00
1.03988346e+00
1.04556238e+00
1.04141169e+00
1.03686582e+00
1.03856306e+00
1.04018993e+00
1.03685951e+00
1.03460799e+00
1.03454185e+00
1.03397654e+00
1.03621678e+00
1.03251548e+00
1.03210724e+00
1.03411683e+00
1.03446044e+00
1.03477819e+00
1.03329068e+00
1.03219401e+00
1.03864675e+00
1.03936939e+00
1.03191040e+00
1.03817851e+00
1.03926832e+00
1.03703212e+00
1.04159164e+00
1.03679970e+00
1.03423690e+00
1.03978041e+00
1.03688810e+00
1.03567154e+00
1.03771743e+00
1.08482604e+00
1.07967326e+00
1.08521042e+00
1.08279689e+00
1.08150355e+00
1.08106577e+00
1.08157990e+00
1.07945222e+00
1.07627276e+00
1.07772408e+00
1.07963635e+00
1.08047393e+00
1.07926411e+00
1.07825119e+00
1.08007382e+00
1.08053013e+00
1.07940998e+00
1.07896201e+00
1.07799976e+00
1.07580830e+00
1.07736406e+00
1.07642082e+00
1.07352715e+00
1.07478378e+00
1.06958178e+00
1.07215858e+00
1.07056049e+00
1.06308696e+00
1.05684318e+00
1.05714484e+00
1.06129446e+00
1.06612871e+00
1.07049393e+00
1.07715403e+00
1.07132224e+00
1.05947316e+00
1.05389396e+00
1.05512937e+00
1.06430510e+00
1.07751285e+00
1.06950973e+00
1.05017120e+00
1.03948159e+00
1.05353326e+00
1.06315512e+00
1.05839949e+00
1.05253243e+00
1.05128685e+00
1.05682397e+00
1.05857175e+00
1.05908417e+00
1.05203543e+00
1.04868293e+00
1.06025696e+00
1.06263636e+00
1.04748533e+00
1.05006034e+00
1.05989589e+00
1.05529657e+00
1.04897685e+00
1.05049036e+00
1.05723005e+00
1.05138161e+00
1.04584071e+00
1.05613592e+00
1.05140531e+00
1.04650400e+00
1.05097400e+00
1.05545822e+00
1.04620993e+00
1.04888072e+00
1.05469970e+00
1.04955461e+00
1.04612078e+00
1.05500819e+00
1.05022235e+00
1.04430079e+00
1.05177766e+00
1.05154996e+00
1.04287032e+00
1.05103372e+00
1.04728440e+00
1.04492394e+00
1.04883294e+00
1.05070085e+00
1.04477591e+00
1.04355710e+00
1.04523584e+00
1.04728619e+00
1.04850941e+00
1.04641046e+00
1.04258752e+00
1.04402692e+00
1.04400234e+00
1.04213033e+00
1.04471797e+00
1.04271158e+00
1.04118070e+00
1.04470734e+00
1.03996508e+00
1.03920636e+00
1.04097489e+00
1.04095722e+00
1.04009515e+00
1.03669601e+00
1.03480278e+00
1.03721634e+00
1.03425966e+00
1.03168224e+00
1.03336955e+00
1.03431019e+00
1.03493161e+00
1.03495930e+00
1.03074665e+00
1.03051950e+00
1.03711950e+00
1.03775830e+00
1.02886070e+00
1.03941971e+00
1.03937125e+00
1.03615567e+00
1.03966562e+00
1.03872916e+00
1.03786948e+00
1.03956030e+00
1.03660025e+00
1.03503798e+00
1.04000825e+00
1.07834615e+00
1.08373350e+00
1.08372213e+00
1.08005798e+00
1.08437465e+00
1.08044638e+00
1.07488142e+00
1.07978592e+00
1.08476599e+00
1.07977122e+00
1.07626610e+00
1.07941887e+00
1.08083653e+00
1.08046032e+00
1.08268297e+00
1.07770071e+00
1.07330460e+00
1.07957526e+00
1.07967264e+00
1.07353376e+00
1.07618114e+00
1.07489799e+00
1.07112406e+00
1.07279241e+00
1.07550588e+00
1.07242155e+00
1.06137374e+00
1.06247301e+00
1.06532427e+00
1.05953053e+00
1.05995293e+00
1.06344325e+00
1.06896571e+00
1.07987195e+00
1.07883227e+00
1.06300698e+00
1.04856266e+00
1.05050526e+00
1.06769258e+00
1.07738846e+00
1.06692998e+00
1.05215431e+00
1.04170856e+00
1.05456924e+00
1.06152122e+00
1.05769769e+00
1.04856332e+00
1.04982309e+00
1.05748443e+00
1.06279685e+00
1.05640751e+00
1.04924177e+00
1.04661000e+00
1.06181994e+00
1.06134549e+00
1.05140462e+00
1.04642695e+00
1.05670690e+00
1.05349101e+00
1.04951124e+00
1.05319320e+00
1.05359274e+00
1.05245526e+00
1.04813540e+00
1.05431179e+00