# vtk DataFile Version 2.0
LBM Flow Field - Timestep 610
ASCII
DATASET STRUCTURED_POINTS
DIMENSIONS 128 128 1
ORIGIN 0.0 0.0 0.0
SPACING 1.0 1.0 1.0
POINT_DATA 16384
SCALARS density double 1
LOOKUP_TABLE default
1.31930140e+00
1.30594088e+00
1.29012194e+00
1.27431451e+00
1.25889602e+00
1.24349493e+00
1.22868920e+00
1.21389982e+00
1.19989364e+00
1.18589556e+00
1.17284285e+00
1.15978402e+00
1.14780079e+00
1.13579368e+00
1.12495558e+00
1.11407542e+00
1.10441787e+00
1.09470283e+00
1.08622361e+00
1.07767692e+00
1.07034057e+00
1.06293412e+00
1.05667788e+00
1.05035699e+00
1.04509741e+00
1.03978633e+00
1.03542617e+00
1.03103391e+00
1.02746865e+00
1.02389471e+00
1.02101830e+00
1.01815805e+00
1.01586767e+00
1.01361706e+00
1.01181663e+00
1.01007608e+00
1.00867864e+00
1.00735599e+00
1.00628498e+00
1.00529760e+00
1.00448717e+00
1.00376310e+00
1.00315784e+00
1.00263617e+00
1.00219029e+00
1.00182088e+00
1.00149715e+00
1.00123987e+00
1.00100846e+00
1.00083205e+00
1.00066938e+00
1.00055013e+00
1.00043784e+00
1.00035825e+00
1.00028224e+00
1.00022970e+00
1.00017931e+00
1.00014496e+00
1.00011228e+00
1.00009001e+00
1.00006929e+00
1.00005498e+00
1.00004214e+00
1.00003303e+00
1.00002526e+00
1.00001951e+00
1.00001491e+00
1.00001134e+00
1.00000866e+00
1.00000648e+00
1.00000495e+00
1.00000365e+00
1.00000278e+00
1.00000202e+00
1.00000154e+00
1.00000110e+00
1.00000083e+00
1.00000059e+00
1.00000044e+00
1.00000031e+00
1.00000023e+00
1.00000016e+00
1.00000012e+00
1.00000008e+00
1.00000006e+00
1.00000004e+00
1.00000003e+00
1.00000002e+00
1.00000001e+00
1.00000001e+00
1.00000001e+00
1.00000000e+00
1.00000000e+00
1.00000000e+00
1.00000000e+00
1.00000000e+00
1.00000000e+00
1.00000000e+00
1.00000000e+00
1.00000000e+00
1.00000000e+00
1.00000000e+00
1.00000000e+00
1.00000000e+00
1.00000000e+00
1.00000000e+00
1.00000000e+00
1.00000000e+00
1.00000000e+00
1.00000000e+00
1.00000000e+00
1.00000000e+00
1.00000000e+00
1.00000000e+00
1.00000000e+00
1.00000000e+00
1.00000000e+00
1.00000000e+00
1.00000000e+00
1.00000000e+00
1.00000000e+00
1.00000000e+00
1.00000000e+00
1.00000000e+00
1.00000000e+00
1.00000000e+00
1.00000000e+00
1.00000000e+00
1.11536469e+00
1.08983317e+00
1.07248219e+00
1.06690557e+00
1.06244477e+00
1.05644757e+00
1.05131473e+00
1.04338881e+00
1.04405699e+00
1.04035305e+00
1.03730584e+00
1.04116081e+00
1.03839580e+00
1.03874629e+00
1.03660050e+00
1.03715165e+00
1.03421458e+00
1.03606871e+00
1.03953938e+00
1.03145760e+00
1.03480545e+00
1.03897284e+00
1.03771009e+00
1.03347125e+00
1.03430517e+00
1.03626437e+00
1.03567251e+00
1.03800082e+00
1.03916340e+00
1.03575372e+00
1.03348729e+00
1.03315913e+00
1.03231772e+00
1.03477944e+00
1.04089824e+00
1.03942866e+00
1.03737098e+00
1.04818473e+00
1.05671251e+00
1.04990508e+00
1.03987491e+00
1.03582628e+00
1.03739768e+00
1.04255507e+00
1.03988491e+00
1.03828783e+00
1.03841558e+00
1.04150793e+00
1.04029894e+00
1.04000439e+00
1.03976376e+00
1.03738508e+00
1.03652404e+00
1.03941264e+00
1.03697513e+00
1.03849342e+00
1.03788620e+00
1.03657995e+00
1.03680699e+00
1.03591311e+00
1.03500322e+00
1.03704759e+00
1.03484650e+00
1.03551862e+00
1.03259992e+00
1.03693067e+00
1.03536190e+00
1.03157181e+00
1.03597015e+00
1.03422504e+00
1.03360449e+00
1.03404607e+00
1.03388712e+00
1.03132295e+00
1.03403080e+00
1.03361273e+00
1.03388152e+00
1.03291340e+00
1.03193717e+00
1.03281083e+00
1.03166978e+00
1.03299886e+00
1.03469104e+00
1.03115838e+00
1.03210222e+00
1.03279909e+00
1.03255160e+00
1.03162404e+00
1.03108023e+00
1.03141348e+00
1.03138185e+00
1.03093117e+00
1.03178550e+00
1.03056934e+00
1.02882237e+00
1.03155642e+00
1.03112080e+00
1.03148151e+00
1.02904655e+00
1.03004024e+00
1.03165076e+00
1.03043456e+00
1.02980470e+00
1.02947270e+00
1.02999312e+00
1.03047696e+00
1.02871121e+00
1.02985920e+00
1.02942297e+00
1.02799096e+00
1.02988316e+00
1.02932291e+00
1.02889915e+00
1.02746727e+00
1.02661656e+00
1.02757137e+00
1.02788273e+00
1.02774574e+00
1.02717983e+00
1.02648560e+00
1.02655011e+00
1.02786160e+00
1.02560042e+00
1.02671896e+00
1.02446700e+00
1.02666191e+00
1.02536203e+00
1.02413748e+00
1.08940040e+00
1.08598021e+00
1.08247119e+00
1.06506220e+00
1.05532270e+00
1.05620153e+00
1.05530750e+00
1.04476271e+00
1.04371809e+00
1.03972147e+00
1.04333804e+00
1.04025251e+00
1.03378735e+00
1.03846615e+00
1.03756373e+00
1.03768604e+00
1.03610842e+00
1.03455747e+00
1.03339017e+00
1.04083057e+00
1.03695467e+00
1.03031227e+00
1.03932002e+00
1.03801721e+00
1.03276310e+00
1.03511214e+00
1.03912476e+00
1.03641310e+00
1.03557848e+00
1.03763473e+00
1.03646204e+00
1.03553401e+00
1.03550887e+00
1.03371559e+00
1.03514729e+00
1.03918904e+00
1.04144771e+00
1.04388317e+00
1.04740334e+00
1.04028984e+00
1.03841536e+00
1.04382437e+00
1.04261209e+00
1.03645576e+00
1.03567658e+00
1.04015866e+00
1.04240899e+00
1.04069247e+00
1.03971299e+00
1.03786295e+00
1.03986448e+00
1.03874992e+00
1.03655880e+00
1.03758275e+00
1.03770520e+00
1.03727653e+00
1.03883428e+00
1.03717758e+00
1.03283803e+00
1.03768920e+00
1.03527673e+00
1.03709646e+00
1.03526584e+00
1.03676588e+00
1.03665959e+00
1.03006015e+00
1.03658206e+00
1.03339561e+00
1.03352872e+00
1.03639634e+00
1.03360609e+00
1.03252320e+00
1.03609534e+00
1.03387553e+00
1.03307233e+00
1.03327002e+00
1.03215735e+00
1.03438506e+00
1.03261366e+00
1.03372020e+00
1.03239258e+00
1.03158751e+00
1.03231730e+00
1.03267785e+00
1.03174029e+00
1.03083250e+00
1.03167300e+00
1.03313845e+00
1.03207314e+00
1.03144044e+00
1.03059860e+00
1.03089624e+00
1.03285291e+00
1.03128338e+00
1.02947361e+00
1.03252887e+00
1.03149213e+00
1.03181067e+00
1.02979403e+00
1.03126922e+00
1.03117914e+00
1.02892334e+00
1.03069990e+00
1.03213649e+00
1.03043547e+00
1.02970504e+00
1.02789191e+00
1.02979191e+00
1.03159211e+00
1.02757696e+00
1.02900632e+00
1.02867279e+00
1.02880614e+00
1.02916825e+00
1.02752534e+00
1.02774805e+00
1.02794486e+00
1.02785908e+00
1.02808045e+00
1.02689263e+00
1.02464381e+00
1.02679025e+00
1.02535234e+00
1.02769617e+00
1.02376589e+00
1.02462744e+00
1.02517572e+00
1.02469415e+00
1.07555062e+00
1.07721758e+00
1.07769825e+00
1.06361458e+00
1.06130624e+00
1.06082932e+00
1.04572615e+00
1.04132193e+00
1.04959067e+00
1.04412815e+00
1.03793742e+00
1.03909156e+00
1.04288817e+00
1.03533051e+00
1.03402938e+00
1.03579946e+00
1.03691737e+00
1.04084251e+00
1.03437694e+00
1.03449084e+00
1.03407286e+00
1.03703888e+00
1.03476602e+00
1.03582369e+00
1.03874481e+00
1.03604843e+00
1.03440918e+00
1.03561736e+00
1.03856400e+00
1.03528178e+00
1.03885188e+00
1.03527617e+00
1.03475143e+00
1.03448548e+00
1.03445819e+00
1.04163580e+00
1.04817235e+00
1.04240487e+00
1.03395585e+00
1.03917906e+00
1.04413935e+00
1.04316889e+00
1.03841543e+00
1.03813072e+00
1.04292801e+00
1.04143461e+00
1.03765227e+00
1.03769976e+00
1.04061636e+00
1.03948074e+00
1.03871037e+00
1.03914812e+00
1.03806732e+00
1.03816787e+00
1.03891822e+00
1.03733523e+00
1.03633900e+00
1.03575893e+00
1.03564115e+00
1.03568463e+00
1.03702824e+00
1.03718038e+00
1.03623752e+00
1.03451329e+00
1.03670962e+00
1.03314702e+00
1.03330880e+00
1.03542871e+00
1.03143751e+00
1.03392508e+00
1.03756450e+00
1.03283130e+00
1.03252134e+00
1.03360572e+00
1.03375600e+00
1.03362658e+00
1.03167856e+00
1.03386332e+00
1.03319901e+00
1.03326202e+00
1.03262659e+00
1.03304970e+00
1.03052501e+00
1.03099094e+00
1.03292079e+00
1.03239278e+00
1.03282591e+00
1.03331366e+00
1.03003157e+00
1.03112507e+00
1.03309025e+00
1.03214468e+00
1.03088878e+00
1.02878516e+00
1.03078741e+00
1.03366472e+00
1.03043017e+00
1.02941750e+00
1.02873330e+00
1.03087559e+00
1.03202485e+00
1.02933926e+00
1.03190797e+00
1.03101416e+00
1.03059083e+00
1.03001634e+00
1.02941248e+00
1.02822633e+00
1.02866837e+00
1.02792510e+00
1.03067612e+00
1.02997059e+00
1.02798867e+00
1.02867828e+00
1.02814110e+00
1.02895145e+00
1.02727297e+00
1.02755044e+00
1.02588540e+00
1.02685871e+00
1.02567310e+00
1.02615930e+00
1.02350169e+00
1.02726365e+00
1.02509411e+00
1.02590839e+00
1.02411283e+00
1.02438751e+00
1.07212513e+00
1.06877988e+00
1.06516401e+00
1.07022498e+00
1.06899904e+00
1.04794953e+00
1.04533937e+00
1.05827806e+00
1.04769056e+00
1.03958142e+00
1.04264256e+00
1.03861224e+00
1.04011143e+00
1.03967140e+00
1.03742917e+00
1.03784251e+00
1.03677810e+00
1.03563976e+00
1.03572023e+00
1.03590365e+00
1.03292465e+00
1.03581518e+00
1.03485244e+00
1.03570949e+00
1.03572061e+00
1.03620169e+00
1.03830790e+00
1.03638525e+00
1.03492663e+00
1.03844397e+00
1.03866639e+00
1.03261482e+00
1.03471499e+00
1.03361746e+00
1.03691267e+00
1.04326858e+00
1.04390952e+00
1.03830845e+00
1.04144970e+00
1.04463385e+00
1.03765733e+00
1.03570911e+00
1.04191309e+00
1.04269828e+00
1.04041161e+00
1.03838727e+00
1.03926236e+00
1.04210569e+00
1.03811689e+00
1.03591701e+00
1.03726028e+00
1.04063098e+00
1.03786156e+00
1.03783309e+00
1.03676168e+00
1.03885792e+00
1.03637492e+00
1.03545793e+00
1.03915126e+00
1.03274248e+00
1.03358817e+00
1.03644642e+00
1.03742387e+00
1.03532460e+00
1.03402697e+00
1.03803637e+00
1.03073157e+00
1.03383525e+00
1.03592281e+00
1.03276744e+00
1.03457035e+00
1.03349205e+00
1.03351311e+00
1.03447964e+00
1.03190175e+00
1.03038622e+00
1.03099428e+00
1.03383652e+00
1.03564858e+00
1.03346432e+00
1.02990127e+00
1.03260603e+00
1.03316030e+00
1.03073569e+00
1.03224093e+00
1.03182036e+00
1.03330807e+00
1.03409557e+00
1.03216605e+00
1.03109887e+00
1.03086125e+00
1.03031400e+00
1.03170809e+00
1.02995410e+00
1.03065129e+00
1.03126932e+00
1.02886436e+00
1.02960267e+00
1.03047301e+00
1.03124901e+00
1.03056957e+00
1.02913847e+00
1.03262272e+00
1.03113639e+00
1.02823816e+00
1.02885817e+00
1.02905049e+00
1.03112416e+00
1.03111895e+00
1.02734296e+00
1.02789058e+00
1.02850445e+00
1.02907772e+00
1.03070727e+00
1.02787309e+00
1.02859593e+00
1.02698174e+00
1.02832863e+00
1.02715741e+00
1.02534094e+00
1.02487055e+00
1.02787565e+00
1.02468944e+00
1.02712017e+00
1.02413326e+00
1.02660599e+00
1.02544065e+00
1.02484876e+00
1.07482110e+00
1.06012001e+00
1.06593698e+00
1.06523969e+00
1.05349026e+00
1.05901972e+00
1.06156531e+00
1.04459517e+00
1.04358648e+00
1.04860976e+00
1.04148266e+00
1.04306739e+00
1.03867391e+00
1.03550801e+00
1.04541224e+00
1.03769868e+00
1.02833685e+00
1.03676575e+00
1.04214757e+00
1.03371571e+00
1.03571833e+00
1.03454885e+00
1.03435039e+00
1.03628120e+00
1.03627977e+00
1.03510669e+00
1.04089141e+00
1.04056567e+00
1.03629171e+00
1.03621730e+00
1.03616484e+00
1.03715437e+00
1.03497038e+00
1.03598393e+00
1.03957947e+00
1.04165034e+00
1.04016672e+00
1.04231703e+00
1.04510244e+00
1.03768167e+00
1.03719314e+00
1.04283048e+00
1.04307026e+00
1.03801433e+00
1.03873095e+00
1.04218672e+00
1.04163537e+00
1.03845344e+00
1.03715966e+00
1.03943080e+00
1.04142669e+00
1.03739063e+00
1.03447662e+00
1.03776142e+00
1.03763516e+00
1.03994355e+00
1.04056325e+00
1.03433802e+00
1.03500792e+00
1.03643186e+00
1.03501648e+00
1.03558195e+00
1.03451426e+00
1.03627715e+00
1.03404547e+00
1.03478590e+00
1.03475549e+00
1.03034017e+00
1.03578685e+00
1.03498027e+00
1.03516117e+00
1.03470588e+00
1.03325141e+00
1.03179396e+00
1.03141009e+00
1.03384322e+00
1.03403417e+00
1.03287065e+00
1.03108886e+00
1.03340317e+00
1.03229775e+00
1.03197113e+00
1.03189494e+00
1.02947029e+00
1.03234616e+00
1.03324273e+00
1.03365754e+00
1.03082730e+00
1.03022950e+00
1.03321741e+00
1.03207831e+00
1.03094789e+00
1.03001796e+00
1.02955804e+00
1.02952641e+00
1.03259595e+00
1.03019447e+00
1.02963471e+00
1.02785900e+00
1.03177557e+00
1.03215929e+00
1.03006768e+00
1.03003398e+00
1.02909235e+00
1.02837526e+00
1.03071170e+00
1.02944666e+00
1.02801330e+00
1.02894025e+00
1.02869970e+00
1.03111001e+00
1.02953930e+00
1.02766555e+00
1.02751061e+00
1.02793217e+00
1.02929846e+00
1.02712798e+00
1.02683327e+00
1.02592083e+00
1.02732234e+00
1.02810381e+00
1.02767394e+00
1.02501936e+00
1.02677803e+00
1.02405827e+00
1.02693937e+00
1.02658616e+00
1.02414631e+00
1.06186093e+00
1.06868628e+00
1.06715891e+00
1.05726273e+00
1.05573711e+00
1.06193635e+00
1.05545605e+00
1.05028517e+00
1.05297152e+00
1.05198432e+00
1.04031042e+00
1.03735164e+00
1.04698645e+00
1.04596021e+00
1.03358110e+00
1.03480921e+00
1.04038221e+00
1.03909498e+00
1.03511140e+00
1.03475917e+00
1.04044863e+00
1.03244488e+00
1.03461679e+00
1.03620181e+00
1.03764435e+00
1.04088339e+00
1.03817393e+00
1.03663276e+00
1.03975701e+00
1.03914431e+00
1.03847937e+00
1.03724851e+00
1.03742287e+00
1.04247596e+00
1.03778210e+00
1.03934265e+00
1.04369770e+00
1.04273943e+00
1.04013723e+00
1.03787782e+00
1.03974229e+00
1.04346004e+00
1.04043481e+00
1.03883502e+00
1.04148734e+00
1.04102375e+00
1.03684994e+00
1.03799684e+00
1.04298267e+00
1.04015644e+00
1.03607500e+00
1.03484326e+00
1.03658967e+00
1.03949862e+00
1.03722121e+00
1.03529420e+00
1.03966200e+00
1.03907173e+00
1.03469512e+00
1.03433521e+00
1.03280830e+00
1.03700380e+00
1.03713336e+00
1.03819609e+00
1.03661149e+00
1.02772725e+00
1.03576252e+00
1.03349042e+00
1.03412435e+00
1.03376704e+00
1.03384029e+00
1.03277713e+00
1.03386014e+00
1.03460553e+00
1.03182610e+00
1.03355914e+00
1.03227821e+00
1.03652355e+00
1.03313191e+00
1.03331241e+00
1.03135228e+00
1.03198719e+00
1.03231882e+00
1.03341287e+00
1.03315899e+00
1.03045016e+00
1.02971267e+00
1.03347434e+00
1.03283215e+00
1.03362214e+00
1.02905614e+00
1.03139673e+00
1.03098572e+00
1.03348203e+00
1.03088718e+00
1.03001183e+00
1.02784909e+00
1.03179440e+00
1.03248361e+00
1.03084261e+00
1.02739121e+00
1.02761442e+00
1.03127530e+00
1.02951092e+00
1.02815157e+00
1.02914913e+00
1.02908353e+00
1.02931335e+00
1.03078214e+00
1.02886133e+00
1.02907811e+00
1.02672497e+00
1.02894388e+00
1.02827918e+00
1.02653347e+00
1.02748926e+00
1.02607786e+00
1.02806646e+00
1.02874219e+00
1.02732415e+00
1.02750946e+00
1.02598808e+00
1.02549370e+00
1.02855045e+00
1.02557193e+00
1.02418493e+00
1.02416110e+00
1.02589004e+00
1.05184190e+00
1.06748398e+00
1.05882453e+00
1.06044791e+00
1.06275146e+00
1.05421787e+00
1.05084552e+00
1.06135105e+00
1.04907544e+00
1.04669962e+00
1.05395786e+00
1.04546921e+00
1.04179255e+00
1.03843120e+00
1.03797419e+00
1.04172854e+00
1.04070795e+00
1.04042107e+00
1.03296243e+00
1.03826165e+00
1.04088619e+00
1.03390449e+00
1.04015662e+00
1.03799106e+00
1.03645770e+00
1.04070904e+00
1.04209534e+00
1.04107316e+00
1.03648192e+00
1.03882707e+00
1.04139696e+00
1.04024818e+00
1.04095464e+00
1.04505430e+00
1.03749757e+00
1.04103357e+00
1.04486110e+00
1.03797827e+00
1.03550706e+00
1.04260140e+00
1.04410625e+00
1.04191166e+00
1.03947135e+00
1.03878761e+00
1.04019733e+00
1.04012504e+00
1.03868142e+00
1.03989412e+00
1.03835866e+00
1.03777388e+00
1.03998607e+00
1.04097539e+00
1.03461338e+00
1.03406148e+00
1.03641877e+00
1.04087533e+00
1.03820470e+00
1.03435707e+00
1.03390428e+00
1.03245554e+00
1.03825976e+00
1.03835249e+00
1.03589747e+00
1.03256634e+00
1.03639151e+00
1.03363882e+00
1.03215454e+00
1.03336781e+00
1.03235833e+00
1.03407984e+00
1.03854477e+00
1.03475099e+00
1.02890480e+00
1.03093205e+00
1.03125992e+00
1.03584208e+00
1.03158018e+00
1.03326537e+00
1.03102604e+00
1.03279981e+00
1.03335482e+00
1.03501638e+00
1.02894987e+00
1.02865569e+00
1.03197294e+00
1.03349439e+00
1.03138611e+00
1.03228484e+00
1.02946059e+00
1.03296730e+00
1.03270583e+00
1.03275715e+00
1.02907670e+00
1.02839035e+00
1.03024092e+00
1.03170223e+00
1.02974718e+00
1.02977723e+00
1.02909633e+00
1.03017507e+00
1.03111455e+00
1.02883805e+00
1.02968573e+00
1.02680264e+00
1.02997898e+00
1.03388901e+00
1.03068587e+00
1.02592343e+00
1.02761500e+00
1.02937670e+00
1.03171192e+00
1.02709561e+00
1.02739783e+00
1.02633540e+00
1.02764746e+00
1.02872121e+00
1.02881686e+00
1.02700670e+00
1.02572916e+00
1.02698075e+00
1.02998419e+00
1.02863226e+00
1.02383088e+00
1.02525057e+00
1.02522804e+00
1.02838168e+00
1.02331951e+00
1.02213048e+00
1.06734507e+00
1.05619569e+00
1.05117948e+00
1.06766943e+00
1.06103584e+00
1.05404097e+00
1.05475257e+00
1.05361788e+00
1.04979902e+00
1.05423435e+00
1.04843955e+00
1.04999745e+00
1.04608652e+00
1.03894329e+00
1.05280364e+00
1.04399055e+00
1.03217672e+00
1.04502466e+00
1.04292014e+00
1.04302241e+00
1.03577194e+00
1.03686270e+00
1.04186778e+00
1.04037422e+00
1.04187823e+00
1.03771090e+00
1.03766831e+00
1.04399324e+00
1.04061175e+00
1.03863565e+00
1.03825009e+00
1.04110553e+00
1.03961347e+00
1.04492531e+00
1.04499711e+00
1.04231795e+00
1.03808742e+00
1.03967288e+00
1.04396990e+00
1.04355408e+00
1.03567187e+00
1.03510018e+00
1.04349349e+00
1.04428263e+00
1.03961212e+00
1.03718306e+00
1.03739577e+00
1.03887632e+00
1.03834189e+00
1.03897816e+00
1.03973255e+00
1.03705462e+00
1.03550122e+00
1.04041942e+00
1.03536337e+00
1.03720287e+00
1.03653270e+00
1.03278520e+00
1.04033608e+00
1.03218146e+00
1.03249845e+00
1.03482966e+00
1.03925772e+00
1.03687530e+00
1.03132054e+00
1.03464500e+00
1.02980457e+00
1.03376452e+00
1.03737188e+00
1.03311339e+00
1.03147768e+00
1.03396221e+00
1.03320310e+00
1.03405078e+00
1.02987061e+00
1.03154896e+00
1.03166525e+00
1.03327144e+00
1.03450731e+00
1.03353185e+00
1.02865669e+00
1.03053955e+00
1.03220235e+00
1.03172628e+00
1.03283393e+00
1.03069448e+00
1.03066776e+00
1.03237869e+00
1.03273804e+00
1.03257459e+00
1.02981268e+00
1.02853176e+00
1.03199989e+00
1.03346291e+00
1.03032134e+00
1.02827061e+00
1.02837858e+00
1.03251145e+00
1.03083408e+00
1.02835390e+00
1.02956215e+00
1.02900329e+00
1.03201753e+00
1.03051614e+00
1.03017943e+00
1.02957328e+00
1.02706790e+00
1.02784131e+00
1.03090959e+00
1.02865320e+00
1.02648680e+00
1.02573510e+00
1.03063345e+00
1.02963061e+00
1.02745235e+00
1.02716066e+00
1.02558741e+00
1.02859482e+00
1.02893785e+00
1.02646579e+00
1.02361820e+00
1.02535090e+00
1.02554693e+00
1.02829253e+00
1.02226391e+00
1.02592496e+00
1.02465576e+00
1.02449258e+00
1.06367728e+00
1.06066013e+00
1.06174707e+00
1.05627921e+00
1.05130296e+00
1.06174423e+00
1.05778598e+00
1.05082091e+00
1.05278396e+00
1.05339270e+00
1.04850209e+00
1.05177553e+00
1.04538300e+00
1.04618334e+00
1.04717628e+00
1.03828249e+00
1.04951242e+00
1.04609713e+00
1.03450504e+00
1.04573893e+00
1.04298545e+00
1.04760766e+00
1.03904852e+00
1.03204583e+00
1.04534157e+00
1.04641370e+00
1.04234264e+00
1.03913983e+00
1.03600439e+00
1.03901789e+00
1.04317513e+00
1.04483123e+00
1.03843505e+00
1.03945580e+00
1.03945787e+00
1.04234381e+00
1.04424792e+00
1.04418138e+00
1.04256709e+00
1.03645206e+00
1.03649742e+00
1.04334047e+00
1.04211802e+00
1.03606975e+00
1.03735789e+00
1.04216091e+00
1.04057618e+00
1.03771553e+00
1.03764311e+00
1.03723876e+00
1.03916203e+00
1.03836770e+00
1.03453664e+00
1.03836881e+00
1.03378301e+00
1.03661493e+00
1.04368565e+00
1.03305708e+00
1.03119236e+00
1.03368170e+00
1.03653383e+00
1.03940433e+00
1.03344793e+00
1.03650582e+00
1.03231300e+00
1.03539597e+00
1.03618821e+00
1.02896188e+00
1.03160619e+00
1.03500716e+00
1.03588008e+00
1.03716975e+00
1.03249907e+00
1.03051466e+00
1.03081956e+00
1.03317126e+00
1.03269923e+00
1.03272537e+00
1.03153490e+00
1.03590894e+00
1.03364218e+00
1.03075294e+00
1.03038997e+00
1.02850618e+00
1.03143249e+00
1.03196985e+00
1.03321744e+00
1.03113629e+00
1.02907247e+00
1.03158048e+00
1.03323604e+00
1.03187387e+00
1.02891285e+00
1.02806487e+00
1.02903585e+00
1.03169898e+00
1.03039987e+00
1.02964059e+00
1.02712086e+00
1.02944925e+00
1.03248337e+00
1.03021943e+00
1.02864653e+00
1.02664050e+00
1.02869835e+00
1.03139285e+00
1.02919821e+00
1.02667971e+00
1.02706463e+00
1.02801782e+00
1.02933234e+00
1.02947998e+00
1.02757511e+00
1.02833948e+00
1.02689149e+00
1.03038581e+00
1.02746042e+00
1.02584279e+00
1.02405858e+00
1.02760934e+00
1.02741899e+00
1.02686649e+00
1.02326071e+00
1.02778026e+00
1.02344820e+00
1.02535510e+00
1.02446906e+00
1.02594587e+00
1.05122795e+00
1.05511411e+00
1.06773418e+00
1.05560662e+00
1.04908580e+00
1.05962767e+00
1.05634240e+00
1.05346838e+00
1.05469110e+00
1.05254563e+00
1.05112333e+00
1.04838023e+00
1.04521137e+00
1.05329472e+00
1.04589974e+00
1.04485809e+00
1.04880157e+00
1.04007369e+00
1.04806297e+00
1.05204029e+00
1.03885404e+00
1.04034262e+00
1.04217149e+00
1.04682916e+00
1.04280707e+00
1.03734387e+00
1.04117474e+00
1.04227951e+00
1.04128362e+00
1.04266622e+00
1.04212427e+00
1.04038882e+00
1.03917128e+00
1.04439665e+00
1.03831621e+00
1.04099169e+00
1.04390219e+00
1.04193380e+00
1.04051847e+00
1.04007946e+00
1.04145019e+00
1.04106863e+00
1.03564295e+00
1.03935098e+00
1.04432928e+00
1.03712557e+00
1.03433812e+00
1.03864245e+00
1.04088693e+00
1.03819535e+00
1.03751000e+00
1.03772646e+00
1.03204843e+00
1.03646483e+00
1.03857294e+00
1.03580420e+00
1.03773423e+00
1.03445055e+00
1.03341193e+00
1.03706791e+00
1.03284992e+00
1.03526492e+00
1.03294703e+00
1.04021408e+00
1.03818654e+00
1.02729256e+00
1.03203668e+00
1.03391397e+00
1.03492263e+00
1.03477947e+00
1.03372952e+00
1.03224102e+00
1.03415608e+00
1.03426962e+00
1.03259345e+00
1.03230049e+00
1.02870627e+00
1.03579356e+00
1.03512520e+00
1.03405524e+00
1.03020171e+00
1.02993314e+00
1.03278421e+00
1.03202254e+00
1.03322473e+00
1.02950468e+00
1.03046821e+00
1.03321830e+00
1.03317680e+00
1.03157624e+00
1.02883244e+00
1.03053981e+00
1.03028459e+00
1.03109368e+00
1.03139790e+00
1.02963849e+00
1.02791191e+00
1.03164424e+00
1.03023093e+00
1.03059160e+00
1.02797586e+00
1.02769957e+00
1.03175256e+00
1.03066259e+00
1.02857947e+00
1.02646562e+00
1.02699991e+00
1.03187457e+00
1.03116040e+00
1.02891252e+00
1.02458988e+00
1.02726965e+00
1.02970378e+00
1.03110692e+00
1.02634141e+00
1.02662581e+00
1.02505369e+00
1.02940595e+00
1.02675422e+00
1.02601660e+00
1.02501515e+00
1.02668610e+00
1.02494987e+00
1.02889493e+00
1.02516256e+00
1.02673197e+00
1.02251503e+00
1.02398354e+00
1.05609685e+00
1.05880911e+00
1.05505802e+00
1.05993300e+00
1.05991932e+00
1.05287064e+00
1.05384934e+00
1.05937614e+00
1.05506945e+00
1.04778469e+00
1.05027631e+00
1.05447928e+00
1.04806398e+00
1.04232310e+00
1.04739135e+00
1.05537733e+00
1.04091835e+00
1.04470370e+00
1.04918713e+00
1.03994900e+00
1.04641057e+00
1.04552798e+00
1.03910577e+00
1.04512781e+00
1.03972089e+00
1.04197288e+00
1.04760133e+00
1.04122000e+00
1.03755726e+00
1.03827944e+00
1.04584465e+00
1.04655022e+00
1.03885306e+00
1.04325658e+00
1.03936590e+00
1.04230231e+00
1.04299588e+00
1.03860245e+00
1.03870843e+00
1.04433430e+00
1.04043117e+00
1.03578195e+00
1.03859360e+00
1.04293813e+00
1.04045033e+00
1.03452545e+00
1.03651796e+00
1.03918325e+00
1.03872391e+00
1.03825698e+00
1.03555954e+00
1.03859279e+00
1.03361835e+00
1.03296860e+00
1.03665584e+00
1.04047030e+00
1.03655839e+00
1.03491361e+00
1.03642821e+00
1.02982434e+00
1.03034111e+00
1.03754013e+00
1.03872216e+00
1.03254589e+00
1.03317678e+00
1.03470532e+00
1.03117483e+00
1.03308986e+00
1.03287214e+00
1.03179008e+00
1.03698181e+00
1.03428292e+00
1.03095469e+00
1.02884990e+00
1.02916468e+00
1.03596887e+00
1.03247620e+00
1.03192253e+00
1.03159190e+00
1.03183748e+00
1.03218263e+00
1.03191832e+00
1.03127803e+00
1.02610931e+00
1.03006864e+00
1.03198168e+00
1.03351752e+00
1.03153318e+00
1.02949055e+00
1.03251165e+00
1.03141718e+00
1.03241438e+00
1.02888061e+00
1.02689449e+00
1.02899842e+00
1.03084077e+00
1.03113525e+00
1.02992269e+00
1.02542911e+00
1.03022682e+00
1.03188090e+00
1.02856182e+00
1.03028208e+00
1.02715962e+00
1.02832002e+00
1.03070003e+00
1.02917969e+00
1.03007825e+00
1.02659543e+00
1.02625485e+00
1.03037448e+00
1.02889250e+00
1.02696271e+00
1.02597564e+00
1.02565387e+00
1.02920537e+00
1.02658006e+00
1.02693459e+00
1.02602600e+00
1.02632203e+00
1.02614033e+00
1.02830454e+00
1.02548122e+00
1.02673640e+00
1.02231582e+00
1.02770752e+00
1.02610450e+00
1.02239308e+00
1.06344804e+00
1.06132473e+00
1.04968620e+00
1.05871498e+00
1.06006424e+00
1.05370828e+00
1.05349063e+00
1.05617710e+00
1.05310067e+00
1.05199650e+00
1.04967401e+00
1.04892457e+00
1.05033693e+00
1.04603190e+00
1.05070402e+00
1.04884228e+00
1.04087645e+00
1.05240922e+00
1.04436831e+00
1.04332602e+00
1.04893074e+00
1.04409974e+00
1.03882555e+00
1.04107519e+00
1.04427355e+00
1.04862537e+00
1.04053347e+00
1.03785581e+00
1.04595112e+00
1.03969871e+00
1.03970282e+00
1.04571890e+00
1.04268644e+00
1.04257754e+00
1.04085497e+00
1.04259541e+00
1.04076967e+00
1.04126207e+00
1.04394748e+00
1.03739016e+00
1.03242769e+00
1.03996603e+00
1.04598385e+00
1.04132935e+00
1.03657369e+00
1.03735426e+00
1.03851600e+00
1.03698379e+00
1.03755715e+00
1.04105141e+00
1.03741251e+00
1.03501451e+00
1.03487318e+00
1.03809315e+00
1.03368800e+00
1.03942642e+00
1.04001250e+00
1.03173836e+00
1.03449742e+00
1.03236675e+00
1.03484849e+00
1.03400665e+00
1.03555989e+00
1.03659341e+00
1.03057573e+00
1.03555393e+00
1.02803809e+00
1.02945648e+00
1.03749315e+00
1.03573375e+00
1.03215392e+00
1.03004320e+00
1.03072974e+00
1.03264586e+00
1.02840711e+00
1.02951225e+00
1.03172079e+00
1.03075359e+00
1.03366605e+00
1.03309924e+00
1.02925182e+00
1.02732623e+00
1.03304306e+00
1.03041402e+00
1.03034586e+00
1.02825976e+00
1.03028019e+00
1.03246750e+00
1.03250759e+00
1.03267683e+00
1.02791418e+00
1.02832974e+00
1.03072187e+00
1.03274026e+00
1.03045163e+00
1.02661653e+00
1.02720168e+00
1.03102025e+00
1.03082472e+00
1.03107741e+00
1.02844061e+00
1.02668636e+00
1.03183794e+00
1.03192121e+00
1.02962796e+00
1.02643454e+00
1.02698040e+00
1.03150506e+00
1.03190133e+00
1.02619530e+00
1.02645798e+00
1.02734555e+00
1.02948825e+00
1.02796394e+00
1.02765717e+00
1.02941325e+00
1.02550086e+00
1.02589711e+00
1.02784542e+00
1.02964860e+00
1.02594071e+00
1.02418242e+00
1.02513231e+00
1.02969330e+00
1.02410571e+00
1.02486186e+00
1.02437553e+00
1.02529573e+00
1.06073131e+00
1.05634563e+00
1.06202577e+00
1.05387045e+00
1.05118887e+00
1.06126096e+00
1.05808406e+00
1.04711089e+00
1.04825257e+00
1.05728445e+00
1.05345392e+00
1.04988411e+00
1.04918515e+00
1.04882926e+00
1.05008757e+00
1.04471592e+00
1.04963646e+00
1.04719648e+00
1.04022155e+00
1.05187751e+00
1.04376113e+00
1.04421314e+00
1.04559465e+00
1.03799973e+00
1.04053323e+00
1.04963918e+00
1.04206177e+00
1.04419707e+00
1.04267494e+00
1.03408301e+00
1.04367806e+00
1.04730867e+00
1.04176245e+00
1.04161700e+00
1.03951785e+00
1.04248122e+00
1.04474567e+00
1.04170250e+00
1.03821392e+00
1.03486284e+00
1.04061907e+00
1.04482091e+00
1.03806754e+00
1.03550741e+00
1.03888759e+00
1.03986486e+00
1.03655896e+00
1.03446825e+00
1.03727343e+00
1.03997550e+00
1.03904299e+00
1.03415250e+00
1.03169352e+00
1.03914404e+00
1.03542236e+00
1.03396020e+00
1.03903495e+00
1.03115249e+00
1.03333280e+00
1.03578179e+00
1.03452048e+00
1.03471265e+00
1.03092013e+00
1.04042195e+00
1.03138976e+00
1.02856158e+00
1.03338619e+00
1.03153835e+00
1.03419634e+00
1.03320439e+00
1.03330116e+00
1.03483778e+00
1.03190021e+00
1.02848135e+00
1.02940194e+00
1.03161207e+00
1.03484904e+00
1.03392784e+00
1.03136752e+00
1.03166786e+00
1.03286468e+00
1.03148835e+00
1.03050186e+00
1.02617575e+00
1.03106343e+00
1.03293183e+00
1.03251692e+00
1.03249406e+00
1.03095585e+00
1.03076693e+00
1.03092569e+00
1.03288641e+00
1.02891988e+00
1.02752361e+00
1.02787651e+00
1.03104508e+00
1.02896570e+00
1.02817888e+00
1.02696837e+00
1.03060603e+00
1.03015873e+00
1.02787786e+00
1.02880978e+00
1.02601083e+00
1.02903531e+00
1.02843471e+00
1.02914998e+00
1.02830040e+00
1.02542310e+00
1.02625072e+00
1.03191450e+00
1.02809166e+00
1.02663259e+00
1.02483827e+00
1.02475310e+00
1.02883231e+00
1.02781249e+00
1.02772341e+00
1.02435629e+00
1.02447609e+00
1.02865483e+00
1.02780789e+00
1.02222601e+00
1.02373136e+00
1.02361417e+00
1.02895856e+00
1.02626350e+00
1.02462974e+00
1.04963019e+00
1.04837168e+00
1.06258377e+00
1.05456822e+00
1.05147720e+00
1.05477149e+00
1.05472382e+00
1.05273783e+00
1.05529748e+00
1.05016382e+00
1.04864072e+00
1.05702655e+00
1.04924945e+00
1.04574207e+00
1.04972427e+00
1.04648142e+00
1.04897471e+00
1.04630568e+00
1.04521227e+00
1.04998490e+00
1.04274412e+00
1.04295567e+00
1.04489625e+00
1.04400822e+00
1.04211175e+00
1.04412745e+00
1.04324862e+00
1.04465003e+00
1.03815872e+00
1.04127104e+00
1.04844707e+00
1.04012666e+00
1.03833571e+00
1.04699047e+00
1.03744385e+00
1.03903211e+00
1.04600706e+00
1.04183311e+00
1.03995445e+00
1.04158808e+00
1.04057798e+00
1.03512314e+00
1.03574799e+00
1.04199337e+00
1.04169919e+00
1.03504484e+00
1.03571397e+00
1.03902469e+00
1.04128172e+00
1.03639135e+00
1.03506798e+00
1.03903161e+00
1.03422219e+00
1.03455919e+00
1.03674059e+00
1.03520038e+00
1.03591801e+00
1.03546592e+00
1.03413787e+00
1.03070049e+00
1.03051589e+00
1.04154357e+00
1.03441676e+00
1.03434923e+00
1.03460831e+00
1.02858598e+00
1.03224966e+00
1.03206986e+00
1.03120071e+00
1.03240202e+00
1.03647787e+00
1.03204109e+00
1.03137829e+00
1.02934786e+00
1.03007311e+00
1.03095306e+00
1.02974351e+00
1.03348172e+00
1.03386016e+00
1.03316745e+00
1.03119526e+00
1.02866030e+00
1.03125339e+00
1.02940476e+00
1.03175947e+00
1.02974275e+00
1.02897146e+00
1.03085444e+00
1.03297387e+00
1.03224820e+00
1.02838905e+00
1.03093676e+00
1.03088039e+00
1.03198535e+00
1.02880861e+00
1.02873415e+00
1.02758048e+00
1.03024488e+00
1.03003998e+00
1.02934298e+00
1.02833167e+00
1.02677448e+00
1.03115568e+00
1.02955761e+00
1.03013613e+00
1.02964648e+00
1.02852121e+00
1.02995162e+00
1.02797081e+00
1.02941342e+00
1.03002600e+00
1.02551608e+00
1.02632570e+00
1.02844973e+00
1.02960587e+00
1.02777614e+00
1.02315971e+00
1.02724850e+00
1.02853292e+00
1.02634762e+00
1.02480036e+00
1.02706696e+00
1.02765065e+00
1.02779899e+00
1.02189533e+00
1.02667865e+00
1.02474059e+00
1.02453113e+00
1.04765630e+00
1.05813977e+00
1.05134906e+00
1.04809465e+00
1.05757676e+00
1.05902532e+00
1.05258933e+00
1.05135388e+00
1.05745969e+00
1.05006416e+00
1.04942567e+00
1.05685959e+00
1.04706775e+00
1.04472390e+00
1.05164670e+00
1.04923089e+00
1.04562311e+00
1.05032487e+00
1.04693207e+00
1.04290483e+00
1.04701229e+00
1.04692500e+00
1.04293416e+00
1.04352983e+00
1.04694878e+00
1.04468206e+00
1.04086636e+00
1.04324909e+00
1.04120606e+00
1.04408649e+00
1.04365598e+00
1.04267045e+00
1.04506034e+00
1.04119189e+00
1.03790742e+00
1.04062473e+00
1.04088986e+00
1.04189124e+00
1.04307415e+00
1.03870272e+00
1.03504478e+00
1.03828605e+00
1.04267357e+00
1.04237842e+00
1.03574742e+00
1.03248594e+00
1.03777699e+00
1.03799769e+00
1.03706101e+00
1.03818158e+00
1.03748332e+00
1.03788068e+00
1.03369338e+00
1.03233889e+00
1.03530910e+00
1.04048299e+00
1.03450377e+00
1.03095002e+00
1.03355439e+00
1.03296290e+00
1.03342982e+00
1.03514060e+00
1.03541684e+00
1.03079903e+00
1.03438561e+00