# vtk DataFile Version 2.0
LBM Flow Field - Timestep 720
ASCII
DATASET STRUCTURED_POINTS
DIMENSIONS 128 128 1
ORIGIN 0.0 0.0 0.0
SPACING 1.0 1.0 1.0
POINT_DATA 16384
SCALARS density double 1
LOOKUP_TABLE default
1.32015412e+00
1.30785543e+00
1.29328547e+00
1.27868700e+00
1.26444463e+00
1.25015353e+00
1.23640006e+00
1.22258751e+00
1.20946631e+00
1.19628648e+00
1.18391871e+00
1.17150370e+00
1.15998523e+00
1.14844127e+00
1.13784103e+00
1.12724611e+00
1.11760590e+00
1.10800890e+00
1.09934442e+00
1.09076565e+00
1.08306872e+00
1.07550180e+00
1.06874340e+00
1.06215817e+00
1.05629207e+00
1.05063838e+00
1.04560503e+00
1.04081698e+00
1.03654751e+00
1.03254794e+00
1.02896783e+00
1.02567271e+00
1.02270516e+00
1.02002769e+00
1.01759646e+00
1.01545063e+00
1.01348230e+00
1.01178591e+00
1.01021156e+00
1.00888840e+00
1.00764481e+00
1.00662626e+00
1.00565656e+00
1.00488240e+00
1.00413636e+00
1.00355509e+00
1.00298912e+00
1.00255769e+00
1.00213456e+00
1.00181781e+00
1.00150627e+00
1.00127607e+00
1.00105031e+00
1.00088459e+00
1.00072367e+00
1.00060546e+00
1.00049267e+00
1.00040910e+00
1.00033139e+00
1.00027285e+00
1.00022022e+00
1.00017960e+00
1.00014456e+00
1.00011668e+00
1.00009371e+00
1.00007481e+00
1.00005998e+00
1.00004734e+00
1.00003790e+00
1.00002957e+00
1.00002363e+00
1.00001824e+00
1.00001453e+00
1.00001111e+00
1.00000881e+00
1.00000668e+00
1.00000526e+00
1.00000397e+00
1.00000310e+00
1.00000233e+00
1.00000180e+00
1.00000135e+00
1.00000103e+00
1.00000077e+00
1.00000058e+00
1.00000043e+00
1.00000032e+00
1.00000024e+00
1.00000018e+00
1.00000013e+00
1.00000010e+00
1.00000007e+00
1.00000005e+00
1.00000004e+00
1.00000003e+00
1.00000002e+00
1.00000001e+00
1.00000001e+00
1.00000001e+00
1.00000001e+00
1.00000000e+00
1.00000000e+00
1.00000000e+00
1.00000000e+00
1.00000000e+00
1.00000000e+00
1.00000000e+00
1.00000000e+00
1.00000000e+00
1.00000000e+00
1.00000000e+00
1.00000000e+00
1.00000000e+00
1.00000000e+00
1.00000000e+00
1.00000000e+00
1.00000000e+00
1.00000000e+00
1.00000000e+00
1.00000000e+00
1.00000000e+00
1.00000000e+00
1.00000000e+00
1.00000000e+00
1.00000000e+00
1.00000000e+00
1.00000000e+00
1.00000000e+00
1.12001507e+00
1.09611799e+00
1.07946626e+00
1.06574677e+00
1.06137797e+00
1.05572922e+00
1.05122102e+00
1.03775640e+00
1.04843653e+00
1.03856219e+00
1.02301055e+00
1.03800891e+00
1.02364879e+00
1.02703426e+00
1.03280216e+00
1.02725506e+00
1.02084289e+00
1.02797324e+00
1.01716262e+00
1.00592379e+00
1.03289367e+00
1.02097353e+00
1.03916711e+00
9.95682541e-01
1.03697606e+00
1.02806714e+00
1.01863649e+00
1.01621183e+00
1.03573513e+00
1.02732739e+00
1.02641531e+00
1.01816856e+00
1.02064821e+00
1.02929024e+00
1.03419946e+00
1.02432216e+00
1.02192501e+00
1.02927899e+00
1.03440638e+00
1.03417457e+00
1.03404839e+00
1.03055720e+00
1.02936142e+00
1.03173220e+00
1.02879862e+00
1.02485244e+00
1.03322813e+00
1.04048691e+00
1.03860695e+00
1.03048759e+00
1.03041249e+00
1.03379755e+00
1.03437795e+00
1.03057792e+00
1.02576004e+00
1.03046461e+00
1.03299066e+00
1.02675626e+00
1.03026355e+00
1.02806626e+00
1.02777489e+00
1.02615781e+00
1.02624688e+00
1.02939663e+00
1.02627468e+00
1.02732399e+00
1.02512832e+00
1.02299086e+00
1.02978240e+00
1.02781409e+00
1.02261143e+00
1.02707857e+00
1.02774309e+00
1.02488652e+00
1.02467300e+00
1.02616119e+00
1.02506903e+00
1.02700398e+00
1.02473577e+00
1.02464187e+00
1.02599188e+00
1.02469167e+00
1.02613265e+00
1.02371603e+00
1.02187586e+00
1.02539995e+00
1.02654704e+00
1.02218507e+00
1.02342587e+00
1.02397635e+00
1.02299858e+00
1.02213284e+00
1.02540371e+00
1.02444424e+00
1.02037109e+00
1.02461650e+00
1.02528023e+00
1.02253866e+00
1.02442732e+00
1.02377528e+00
1.02217368e+00
1.02318074e+00
1.02247045e+00
1.02286047e+00
1.02108139e+00
1.02072207e+00
1.02329890e+00
1.02257991e+00
1.02292020e+00
1.02271019e+00
1.02147865e+00
1.02118749e+00
1.02125311e+00
1.02141129e+00
1.01968005e+00
1.02011534e+00
1.02280235e+00
1.02066778e+00
1.02003547e+00
1.01972884e+00
1.02003112e+00
1.02157357e+00
1.02085628e+00
1.02102365e+00
1.01900458e+00
1.01930273e+00
1.02048536e+00
1.02005910e+00
1.09970404e+00
1.08389469e+00
1.07964471e+00
1.06092737e+00
1.05367052e+00
1.05144818e+00
1.05670972e+00
1.04300023e+00
1.04504711e+00
1.02600956e+00
1.04065760e+00
1.03856232e+00
1.02741174e+00
1.02636822e+00
1.02490875e+00
1.02176567e+00
1.02249925e+00
1.02244961e+00
1.01603011e+00
1.03746923e+00
1.02479522e+00
1.02110838e+00
1.04515936e+00
1.01838822e+00
1.02454811e+00
1.01361745e+00
1.03946630e+00
1.02149738e+00
1.03029078e+00
1.02104879e+00
1.02314861e+00
1.02292091e+00
1.03058825e+00
1.02211483e+00
1.02470984e+00
1.02614711e+00
1.02714243e+00
1.02969093e+00
1.03366318e+00
1.03117861e+00
1.02841249e+00
1.03481783e+00
1.03495974e+00
1.02681618e+00
1.02443066e+00
1.02920834e+00
1.03475643e+00
1.03174269e+00
1.03237404e+00
1.03217804e+00
1.03614631e+00
1.03348652e+00
1.02596922e+00
1.03077945e+00
1.03243101e+00
1.03006005e+00
1.02906026e+00
1.02685723e+00
1.02666763e+00
1.03071766e+00
1.02614550e+00
1.02634573e+00
1.02632299e+00
1.02974882e+00
1.02909200e+00
1.02114777e+00
1.03083294e+00
1.02660589e+00
1.02465743e+00
1.02790784e+00
1.02405061e+00
1.02429340e+00
1.02538356e+00
1.02612194e+00
1.02357734e+00
1.02647232e+00
1.02494083e+00
1.02404765e+00
1.02531518e+00
1.02430125e+00
1.02476179e+00
1.02411489e+00
1.02282771e+00
1.02699901e+00
1.02413895e+00
1.02392280e+00
1.02340255e+00
1.02487785e+00
1.02310160e+00
1.02314525e+00
1.02668402e+00
1.02164524e+00
1.02194020e+00
1.02646361e+00
1.02151200e+00
1.02309606e+00
1.02375025e+00
1.02259167e+00
1.02428311e+00
1.02385415e+00
1.02324519e+00
1.02106779e+00
1.02067836e+00
1.02519344e+00
1.02272118e+00
1.01914215e+00
1.02151131e+00
1.02282114e+00
1.02301468e+00
1.02197419e+00
1.02080682e+00
1.02157966e+00
1.02098780e+00
1.02123898e+00
1.02129789e+00
1.02078167e+00
1.02098045e+00
1.02098670e+00
1.01988587e+00
1.02012107e+00
1.02006732e+00
1.01977765e+00
1.01928995e+00
1.02081035e+00
1.02073193e+00
1.01836656e+00
1.01800574e+00
1.01928090e+00
1.07814365e+00
1.07514989e+00
1.07915214e+00
1.06478610e+00
1.06114943e+00
1.05816683e+00
1.04408829e+00
1.03875137e+00
1.04267766e+00
1.03795447e+00
1.03478775e+00
1.02661459e+00
1.03878330e+00
1.02988666e+00
1.02139147e+00
1.03102021e+00
1.02241500e+00
1.01881857e+00
1.03197776e+00
1.02602140e+00
1.02329377e+00
1.03236274e+00
1.02177130e+00
1.02888869e+00
1.03758910e+00
1.01924006e+00
1.02634549e+00
1.02979838e+00
1.02354298e+00
1.02125101e+00
1.03434127e+00
1.02447625e+00
1.02050468e+00
1.02336034e+00
1.02510850e+00
1.02677751e+00
1.03034255e+00
1.02875679e+00
1.02659896e+00
1.03511975e+00
1.03562292e+00
1.03143913e+00
1.02837054e+00
1.02963696e+00
1.02911861e+00
1.02658603e+00
1.02966415e+00
1.03050377e+00
1.03403564e+00
1.03673886e+00
1.03183915e+00
1.02952663e+00
1.02942685e+00
1.03424008e+00
1.03027997e+00
1.02820390e+00
1.02596973e+00
1.03285413e+00
1.02817868e+00
1.02276006e+00
1.02767401e+00
1.03085843e+00
1.03047140e+00
1.02321615e+00
1.02820995e+00
1.02738855e+00
1.02830570e+00
1.03167670e+00
1.02208919e+00
1.02526401e+00
1.02828267e+00
1.02650256e+00
1.02361862e+00
1.02727913e+00
1.02401030e+00
1.02522897e+00
1.02596578e+00
1.02494140e+00
1.02368414e+00
1.02345751e+00
1.02460168e+00
1.02713664e+00
1.02565427e+00
1.02337212e+00
1.02520075e+00
1.02576722e+00
1.02190163e+00
1.02565246e+00
1.02413932e+00
1.02066161e+00
1.02501593e+00
1.02529750e+00
1.02211369e+00
1.02259522e+00
1.02388497e+00
1.02546226e+00
1.02096891e+00
1.02348413e+00
1.02602440e+00
1.02247276e+00
1.02309973e+00
1.02326185e+00
1.02187841e+00
1.02371921e+00
1.02138488e+00
1.02130823e+00
1.02310010e+00
1.02153919e+00
1.02211695e+00
1.02067088e+00
1.02229433e+00
1.02226294e+00
1.02071829e+00
1.01954145e+00
1.02001069e+00
1.02152340e+00
1.02203208e+00
1.02059628e+00
1.01843290e+00
1.01913992e+00
1.02131854e+00
1.02136995e+00
1.01907921e+00
1.01820476e+00
1.01964277e+00
1.02143855e+00
1.01969383e+00
1.01878723e+00
1.06611962e+00
1.06819377e+00
1.06499848e+00
1.05575919e+00
1.06661353e+00
1.05008146e+00
1.04059446e+00
1.05508368e+00
1.03683335e+00
1.03843192e+00
1.04150702e+00
1.02845447e+00
1.03128541e+00
1.03587473e+00
1.02551934e+00
1.02516301e+00
1.03490798e+00
1.02665475e+00
1.02272969e+00
1.02654419e+00
1.03133384e+00
1.02035621e+00
1.02273021e+00
1.02922695e+00
1.01179328e+00
1.03683493e+00
1.02898786e+00
1.01781400e+00
1.03085903e+00
1.03061623e+00
1.02032044e+00
1.02059212e+00
1.02596427e+00
1.02222821e+00
1.01959662e+00
1.02417536e+00
1.02611424e+00
1.02887664e+00
1.03005001e+00
1.03529030e+00
1.03159933e+00
1.02913261e+00
1.02974755e+00
1.02883357e+00
1.03046489e+00
1.02768705e+00
1.02685360e+00
1.03133486e+00
1.03484642e+00
1.03246944e+00
1.02762776e+00
1.03393924e+00
1.03347996e+00
1.02749709e+00
1.02654355e+00
1.03458102e+00
1.02676539e+00
1.02680058e+00
1.03183070e+00
1.02513662e+00
1.03160476e+00
1.02800687e+00
1.02891794e+00
1.02462955e+00
1.02781838e+00
1.03182325e+00
1.02130081e+00
1.02898206e+00
1.02907047e+00
1.02769569e+00
1.02408015e+00
1.02702832e+00
1.02568562e+00
1.02670852e+00
1.02646110e+00
1.02504355e+00
1.02416916e+00
1.02693662e+00
1.02603141e+00
1.02572302e+00
1.02384071e+00
1.02422559e+00
1.02811453e+00
1.02326180e+00
1.02369678e+00
1.02631810e+00
1.02353016e+00
1.02303575e+00
1.02492693e+00
1.02528200e+00
1.02119788e+00
1.02154310e+00
1.02581649e+00
1.02495131e+00
1.02345032e+00
1.02542645e+00
1.02103258e+00
1.02204667e+00
1.02614127e+00
1.02329988e+00
1.02282027e+00
1.02147304e+00
1.02277304e+00
1.02381198e+00
1.02198333e+00
1.02076446e+00
1.02218652e+00
1.02010242e+00
1.02258635e+00
1.02125924e+00
1.02161466e+00
1.02092202e+00
1.02054253e+00
1.02024574e+00
1.01996127e+00
1.01981244e+00
1.02021717e+00
1.02092527e+00
1.01939083e+00
1.02008724e+00
1.01885550e+00
1.01883619e+00
1.01926155e+00
1.02025939e+00
1.01831811e+00
1.01776292e+00
1.01825874e+00
1.01884668e+00
1.06975892e+00
1.05470778e+00
1.06309112e+00
1.06204932e+00
1.05049457e+00
1.06025225e+00
1.06069076e+00
1.03497091e+00
1.03769928e+00
1.04178869e+00
1.02992661e+00
1.04426814e+00
1.03070884e+00
1.02142779e+00
1.03518109e+00
1.03206211e+00
1.01577706e+00
1.03087035e+00
1.03483328e+00
1.01907711e+00
1.03487565e+00
1.03188669e+00
1.02704130e+00
1.02844461e+00
1.02313170e+00
1.02753124e+00
1.02178837e+00
1.02764244e+00
1.02812270e+00
1.02748144e+00
1.02547268e+00
1.02577942e+00
1.02323521e+00
1.02055327e+00
1.02203818e+00
1.02139117e+00
1.02274315e+00
1.03207163e+00
1.03378758e+00
1.03381041e+00
1.03200972e+00
1.03120101e+00
1.02978391e+00
1.03146447e+00
1.03050464e+00
1.02679713e+00
1.03074770e+00
1.03286064e+00
1.02788492e+00
1.03263722e+00
1.03479960e+00
1.03239484e+00
1.02905510e+00
1.03031328e+00
1.02656909e+00
1.03112521e+00
1.03115433e+00
1.02602367e+00
1.02801136e+00
1.03124142e+00
1.02869925e+00
1.02443312e+00
1.02789712e+00
1.02853181e+00
1.02266507e+00
1.02576020e+00
1.02898639e+00
1.02607998e+00
1.02365695e+00
1.02624702e+00
1.02250523e+00
1.02881523e+00
1.02773376e+00
1.02341741e+00
1.02229378e+00
1.02608654e+00
1.02613148e+00
1.02523342e+00
1.02312084e+00
1.02437591e+00
1.02604279e+00
1.02256091e+00
1.02429328e+00
1.02457099e+00
1.02129747e+00
1.02307326e+00
1.02721561e+00
1.02538266e+00
1.01985261e+00
1.02453690e+00
1.02361310e+00
1.02160348e+00
1.02506208e+00
1.02470907e+00
1.02227365e+00
1.02285179e+00
1.02402812e+00
1.02298104e+00
1.02178590e+00
1.02211513e+00
1.02511596e+00
1.02219161e+00
1.02373723e+00
1.02241436e+00
1.02100772e+00
1.02300855e+00
1.02320165e+00
1.02186156e+00
1.02071601e+00
1.02050619e+00
1.02315979e+00
1.02344979e+00
1.02103493e+00
1.01975182e+00
1.01950693e+00
1.02253312e+00
1.02253731e+00
1.02062865e+00
1.01846685e+00
1.02079452e+00
1.02097082e+00
1.02078972e+00
1.01937424e+00
1.02013673e+00
1.02083249e+00
1.01877828e+00
1.01948836e+00
1.02041631e+00
1.06128497e+00
1.07260841e+00
1.05765051e+00
1.05640896e+00
1.05262845e+00
1.05244477e+00
1.04584236e+00
1.04560775e+00
1.05487577e+00
1.04514635e+00
1.03747133e+00
1.03144324e+00
1.03638692e+00
1.03442226e+00
1.02348265e+00
1.03558143e+00
1.03192861e+00
1.02572942e+00
1.03338133e+00
1.02488926e+00
1.02467676e+00
1.03314273e+00
1.03130004e+00
1.02634365e+00
1.02793418e+00
1.02473832e+00
1.02532855e+00
1.03302976e+00
1.02511380e+00
1.02370395e+00
1.03164690e+00
1.02781115e+00
1.01851510e+00
1.02001713e+00
1.02245005e+00
1.02207849e+00
1.02464585e+00
1.03265158e+00
1.03018337e+00
1.02514383e+00
1.02687140e+00
1.03337518e+00
1.03105109e+00
1.02896448e+00
1.02839236e+00
1.02834604e+00
1.03194980e+00
1.03219156e+00
1.02932336e+00
1.03174572e+00
1.02962479e+00
1.02891427e+00
1.02663847e+00
1.03203622e+00
1.02986967e+00
1.02666699e+00
1.02842867e+00
1.03188271e+00
1.02614246e+00
1.02771707e+00
1.02524228e+00
1.02754913e+00
1.02697352e+00
1.02681404e+00
1.02867807e+00
1.02366243e+00
1.02738238e+00
1.02594756e+00
1.02275023e+00
1.02757195e+00
1.02610235e+00
1.02537280e+00
1.02350571e+00
1.02738467e+00
1.02620851e+00
1.02328105e+00
1.02144723e+00
1.02477873e+00
1.02796332e+00
1.02276828e+00
1.02345833e+00
1.02378864e+00
1.02185059e+00
1.02650752e+00
1.02653105e+00
1.02150109e+00
1.02081561e+00
1.02772640e+00
1.02379008e+00
1.02329361e+00
1.02265534e+00
1.02325760e+00
1.02358719e+00
1.02479588e+00
1.02610174e+00
1.01982257e+00
1.02113129e+00
1.02568118e+00
1.02304552e+00
1.02246698e+00
1.02305097e+00
1.02139620e+00
1.02405802e+00
1.02416043e+00
1.02296863e+00
1.02265416e+00
1.02019338e+00
1.02203743e+00
1.02337991e+00
1.02279412e+00
1.02140408e+00
1.02079996e+00
1.01976397e+00
1.02135721e+00
1.02113408e+00
1.01977139e+00
1.02002825e+00
1.02003743e+00
1.02049477e+00
1.02051080e+00
1.01769134e+00
1.01958649e+00
1.01972432e+00
1.02134740e+00
1.02068893e+00
1.01804399e+00
1.01525470e+00
1.01689488e+00
1.04267343e+00
1.06750945e+00
1.05068687e+00
1.05910136e+00
1.05309603e+00
1.05064012e+00
1.04733012e+00
1.06011344e+00
1.04183509e+00
1.03760611e+00
1.04697267e+00
1.03503954e+00
1.03252187e+00
1.03900062e+00
1.03173506e+00
1.03056649e+00
1.03428552e+00
1.03061391e+00
1.02477015e+00
1.03323443e+00
1.03560647e+00
1.02530616e+00
1.02757753e+00
1.03032984e+00
1.02938660e+00
1.02350075e+00
1.03029431e+00
1.02797629e+00
1.02501553e+00
1.03267601e+00
1.02976978e+00
1.02093763e+00
1.02600608e+00
1.02621740e+00
1.02172483e+00
1.03128611e+00
1.03319943e+00
1.02868835e+00
1.02359032e+00
1.03128450e+00
1.03421743e+00
1.03040328e+00
1.02563572e+00
1.02753367e+00
1.03349262e+00
1.02970637e+00
1.02380549e+00
1.02900642e+00
1.03218769e+00
1.03112843e+00
1.02665016e+00
1.03177847e+00
1.02913885e+00
1.02781898e+00
1.02870610e+00
1.03129823e+00
1.02849309e+00
1.02983615e+00
1.02712323e+00
1.02426878e+00
1.03135371e+00
1.02835840e+00
1.02658860e+00
1.02423239e+00
1.02874934e+00
1.02878292e+00
1.02248262e+00
1.02731033e+00
1.02571803e+00
1.02581023e+00
1.02542009e+00
1.02630763e+00
1.02531886e+00
1.02548817e+00
1.02332959e+00
1.02443773e+00
1.02819316e+00
1.02546191e+00
1.02350847e+00
1.02254697e+00
1.02290986e+00
1.02803822e+00
1.02665995e+00
1.02152059e+00
1.02316815e+00
1.02668477e+00
1.02339131e+00
1.02452349e+00
1.02507484e+00
1.02314282e+00
1.02189678e+00
1.02758774e+00
1.02441652e+00
1.02009146e+00
1.02289056e+00
1.02333952e+00
1.02396442e+00
1.02569579e+00
1.02290759e+00
1.02299473e+00
1.02258426e+00
1.02433415e+00
1.02445011e+00
1.01943880e+00
1.02185551e+00
1.02464879e+00
1.02381799e+00
1.02123058e+00
1.02082162e+00
1.02369216e+00
1.02371164e+00
1.02226147e+00
1.02047514e+00
1.02006073e+00
1.02055283e+00
1.02181591e+00
1.02252117e+00
1.02102300e+00
1.01894855e+00
1.01880810e+00
1.01860836e+00
1.02279749e+00
1.02125110e+00
1.01884509e+00
1.01753541e+00
1.01815142e+00
1.02047134e+00
1.01862837e+00
1.06914895e+00
1.04399255e+00
1.04033520e+00
1.06208432e+00
1.05263014e+00
1.05445283e+00
1.04974287e+00
1.04349662e+00
1.03765771e+00
1.05652618e+00
1.03486186e+00
1.04331638e+00
1.04174397e+00
1.03134573e+00
1.04208186e+00
1.03462581e+00
1.02888619e+00
1.03332310e+00
1.03125543e+00
1.03408604e+00
1.02719756e+00
1.03331171e+00
1.03203366e+00
1.02406711e+00
1.03147687e+00
1.02707821e+00
1.02622701e+00
1.03019403e+00
1.03039138e+00
1.02946150e+00
1.02566792e+00
1.02389581e+00
1.02858828e+00
1.03008706e+00
1.03047705e+00
1.02976598e+00
1.02395456e+00
1.03108290e+00
1.03147858e+00
1.03409377e+00
1.02992583e+00
1.02272328e+00
1.03056248e+00
1.03738132e+00
1.03175166e+00
1.02282651e+00
1.02483306e+00
1.03378263e+00
1.03261377e+00
1.03286982e+00
1.02454444e+00
1.02760081e+00
1.03210908e+00
1.03311856e+00
1.02728886e+00
1.03014415e+00
1.02742506e+00
1.02522154e+00
1.03507453e+00
1.02527788e+00
1.02618399e+00
1.02453765e+00
1.03043018e+00
1.03077711e+00
1.02440068e+00
1.02879013e+00
1.02190101e+00
1.02654328e+00
1.02854504e+00
1.02630471e+00
1.02264320e+00
1.02553089e+00
1.02518458e+00
1.02551093e+00
1.02586706e+00
1.02477776e+00
1.02479168e+00
1.02442424e+00
1.02295825e+00
1.02904247e+00
1.02327088e+00
1.02063983e+00
1.02726384e+00
1.02614909e+00
1.02062525e+00
1.02242314e+00
1.02469455e+00
1.02039053e+00
1.02517085e+00
1.02577953e+00
1.01920507e+00
1.02189139e+00
1.02394746e+00
1.02501627e+00
1.02272549e+00
1.02147525e+00
1.02329095e+00
1.02311634e+00
1.02332754e+00
1.02475521e+00
1.01996363e+00
1.01935227e+00
1.02178639e+00
1.02251855e+00
1.02455367e+00
1.02225380e+00
1.02054138e+00
1.02108742e+00
1.02255153e+00
1.02289930e+00
1.01986144e+00
1.01883179e+00
1.02025253e+00
1.02255475e+00
1.02122133e+00
1.01974922e+00
1.01975961e+00
1.01947800e+00
1.02184476e+00
1.01990716e+00
1.01669818e+00
1.01763673e+00
1.01939233e+00
1.02276870e+00
1.01912472e+00
1.01549708e+00
1.01504645e+00
1.02004945e+00
1.04473164e+00
1.05871928e+00
1.05946221e+00
1.04636024e+00
1.05163120e+00
1.05340162e+00
1.04615671e+00
1.05071119e+00
1.04770797e+00
1.04452807e+00
1.03837196e+00
1.05110210e+00
1.03375646e+00
1.04453503e+00
1.03845291e+00
1.02187802e+00
1.04448674e+00
1.03929074e+00
1.02466706e+00
1.04112949e+00
1.02862507e+00
1.03467481e+00
1.03236205e+00
1.02592137e+00
1.03169146e+00
1.02899727e+00
1.03109363e+00
1.02901850e+00
1.02842087e+00
1.02948497e+00
1.02894909e+00
1.03370940e+00
1.02846465e+00
1.02616342e+00
1.03062537e+00
1.03343707e+00
1.02527735e+00
1.03450259e+00
1.03235727e+00
1.02475803e+00
1.02854289e+00
1.03409485e+00
1.03514127e+00
1.02763379e+00
1.02452444e+00
1.02950707e+00
1.03635335e+00
1.03058637e+00
1.02343449e+00
1.03043861e+00
1.03374242e+00
1.03308661e+00
1.02845897e+00
1.03023153e+00
1.02746512e+00
1.02720460e+00
1.03392707e+00
1.02514631e+00
1.02551648e+00
1.02781233e+00
1.02900157e+00
1.02861617e+00
1.02421433e+00
1.02685097e+00
1.02306168e+00
1.02725840e+00
1.03019292e+00
1.02460601e+00
1.02439244e+00
1.02722181e+00
1.02598366e+00
1.02624461e+00
1.02395740e+00
1.02538373e+00
1.02388307e+00
1.02471222e+00
1.02520147e+00
1.02704239e+00
1.02171359e+00
1.02309921e+00
1.02806900e+00
1.02532192e+00
1.02285027e+00
1.02547271e+00
1.02310011e+00
1.01995422e+00
1.02832595e+00
1.02454407e+00
1.02150793e+00
1.02332118e+00
1.02344895e+00
1.02363346e+00
1.02170762e+00
1.02435374e+00
1.02259111e+00
1.02269814e+00
1.02586293e+00
1.02304484e+00
1.02169156e+00
1.02368204e+00
1.02284184e+00
1.02376017e+00
1.02016968e+00
1.02171149e+00
1.02382635e+00
1.02325010e+00
1.02333999e+00
1.02088997e+00
1.02007075e+00
1.02093852e+00
1.02338848e+00
1.02390157e+00
1.02069877e+00
1.01934786e+00
1.01882683e+00
1.02163710e+00
1.02381125e+00
1.02116616e+00
1.01868840e+00
1.01727119e+00
1.01818728e+00
1.02332342e+00
1.01899265e+00
1.01842723e+00
1.01714312e+00
1.01938937e+00
1.01916500e+00
1.01798678e+00
1.04030185e+00
1.04286929e+00
1.06277728e+00
1.04279605e+00
1.04181319e+00
1.05846694e+00
1.04593968e+00
1.04218219e+00
1.04761541e+00
1.04192356e+00
1.04559165e+00
1.04224699e+00
1.03297730e+00
1.04545489e+00
1.03827191e+00
1.04199551e+00
1.04255993e+00
1.02742533e+00
1.03924795e+00
1.04393795e+00
1.02624393e+00
1.03954323e+00
1.02567630e+00
1.03617438e+00
1.03700980e+00
1.02610422e+00
1.03728999e+00
1.03043741e+00
1.03137855e+00
1.03471351e+00
1.02852097e+00
1.03054511e+00
1.03157307e+00
1.02958513e+00
1.02923140e+00
1.03169467e+00
1.02781821e+00
1.03157861e+00
1.02693013e+00
1.02614829e+00
1.03714027e+00
1.03467052e+00
1.02739513e+00
1.02498004e+00
1.03409540e+00
1.03232424e+00
1.02623889e+00
1.02703949e+00
1.03123877e+00
1.03190361e+00
1.02927616e+00
1.02986937e+00
1.02528579e+00
1.03082511e+00
1.03518654e+00
1.02256301e+00
1.02529866e+00
1.03073780e+00
1.02836103e+00
1.02945409e+00
1.02494629e+00
1.02561049e+00
1.02549898e+00
1.02950819e+00
1.02986242e+00
1.02161472e+00
1.02483155e+00
1.02637024e+00
1.02787417e+00
1.02487458e+00
1.02236507e+00
1.02375961e+00
1.02404117e+00
1.02726731e+00
1.02342313e+00
1.02505147e+00
1.02148676e+00
1.02384962e+00
1.02914609e+00
1.02132297e+00
1.02149618e+00
1.02561368e+00
1.02234038e+00
1.02358685e+00
1.02772729e+00
1.02230392e+00
1.01942974e+00
1.02495558e+00
1.02758292e+00
1.02176935e+00
1.02198760e+00
1.02272866e+00
1.02182579e+00
1.02645796e+00
1.02379271e+00
1.02057113e+00
1.01908163e+00
1.02228363e+00
1.02732219e+00
1.02398895e+00
1.01911645e+00
1.02104532e+00
1.02146456e+00
1.02601816e+00
1.02486095e+00
1.02100586e+00
1.02017765e+00
1.02037862e+00
1.02387226e+00
1.02265527e+00
1.02145490e+00
1.02062823e+00
1.02049454e+00
1.02308645e+00
1.02117734e+00
1.02077689e+00
1.01893888e+00
1.02093103e+00
1.02256458e+00
1.02044360e+00
1.01612822e+00
1.01936262e+00
1.02177126e+00
1.02194124e+00
1.01905065e+00
1.01636301e+00
1.01554965e+00
1.01823263e+00
1.05452916e+00
1.04658871e+00
1.04550919e+00
1.05505261e+00
1.05232994e+00
1.04358521e+00
1.04073063e+00
1.05355673e+00
1.04862692e+00
1.04130621e+00
1.04765902e+00
1.03796359e+00
1.04933159e+00
1.03822004e+00
1.03689003e+00
1.04965882e+00
1.02772030e+00
1.03922674e+00
1.04686714e+00
1.02339883e+00
1.03708442e+00
1.04713189e+00
1.02127650e+00
1.04329755e+00
1.03340215e+00
1.03041970e+00
1.04092867e+00
1.02953544e+00
1.03215917e+00
1.03239385e+00
1.03362331e+00
1.03253164e+00
1.03138635e+00
1.03697427e+00
1.02854203e+00
1.02828746e+00
1.02902563e+00
1.02784074e+00
1.02885854e+00
1.03599904e+00
1.03480327e+00
1.02434286e+00
1.03067762e+00
1.02997459e+00
1.03292243e+00
1.02903234e+00
1.02636108e+00
1.03183859e+00
1.03157671e+00
1.03027815e+00
1.02325609e+00
1.03207392e+00
1.03289299e+00
1.02535150e+00
1.02723370e+00
1.02794293e+00
1.02569160e+00
1.03168343e+00
1.03062882e+00
1.02255469e+00
1.02689047e+00
1.02966365e+00
1.02900358e+00
1.02218217e+00
1.02471779e+00
1.02720877e+00
1.02524232e+00
1.02888794e+00
1.02358349e+00
1.02101390e+00
1.02702145e+00
1.02873202e+00
1.02378784e+00
1.02506931e+00
1.02119968e+00
1.02551527e+00
1.02678090e+00
1.02174060e+00
1.02440620e+00
1.02579120e+00
1.02274310e+00
1.02339105e+00
1.02646817e+00
1.02186615e+00
1.02018350e+00
1.02667023e+00
1.02326697e+00
1.02188226e+00
1.02632265e+00
1.02104524e+00
1.02150350e+00
1.02454048e+00
1.02401636e+00
1.02333839e+00
1.01997493e+00
1.02525290e+00
1.02356831e+00
1.02176258e+00
1.02401984e+00
1.02271161e+00
1.02310600e+00
1.02299968e+00
1.02073729e+00
1.02351497e+00
1.02064731e+00
1.02177230e+00
1.02375065e+00
1.02114996e+00
1.02121538e+00
1.02063896e+00
1.02367097e+00
1.02398424e+00
1.02067145e+00
1.01827857e+00
1.01859627e+00
1.02339208e+00
1.02367662e+00
1.02060053e+00
1.01794743e+00
1.01811021e+00
1.01999897e+00
1.02222307e+00
1.02010434e+00
1.02023232e+00
1.01788143e+00
1.01810454e+00
1.01838290e+00
1.01939668e+00
1.05867802e+00
1.05770999e+00
1.03687686e+00
1.05067626e+00
1.05287291e+00
1.04169229e+00
1.04500471e+00
1.05174713e+00
1.04002422e+00
1.04618811e+00
1.05097464e+00
1.03392292e+00
1.04962856e+00
1.04009219e+00
1.03701932e+00
1.04028168e+00
1.03879474e+00
1.04577472e+00
1.03234545e+00
1.03295759e+00
1.04629097e+00
1.03203178e+00
1.03347588e+00
1.04249517e+00
1.02830196e+00
1.04540842e+00
1.03072386e+00
1.02618256e+00
1.04115930e+00
1.02850086e+00
1.03237702e+00
1.03753250e+00
1.03018406e+00
1.03213926e+00
1.03002534e+00
1.03248565e+00
1.02600650e+00
1.03405381e+00
1.03883816e+00
1.03062532e+00
1.02386308e+00
1.02719348e+00
1.03723021e+00
1.03162828e+00
1.02792389e+00
1.02659242e+00
1.03103525e+00
1.03340447e+00
1.02506814e+00
1.03124702e+00
1.02670934e+00
1.02859114e+00
1.02906588e+00
1.02662218e+00
1.02602154e+00
1.03073216e+00
1.02788405e+00
1.02249825e+00
1.02902912e+00
1.02781512e+00
1.02730106e+00
1.02236665e+00
1.02616157e+00
1.02923950e+00
1.02426912e+00
1.02704911e+00
1.02038598e+00
1.02436338e+00
1.02712580e+00
1.02695192e+00
1.02307622e+00
1.02274849e+00
1.02374480e+00
1.02773807e+00
1.02426182e+00
1.02012186e+00
1.02314848e+00
1.02636296e+00
1.02334014e+00
1.02644632e+00
1.02276637e+00
1.01606346e+00
1.02494985e+00
1.02952573e+00
1.01984001e+00
1.02169837e+00
1.02457976e+00
1.02095043e+00
1.02432060e+00
1.02564093e+00
1.02049117e+00
1.01838497e+00
1.02490187e+00
1.02742529e+00
1.02228336e+00
1.02282726e+00
1.01976603e+00
1.02271808e+00
1.02595181e+00
1.02404356e+00
1.02255906e+00
1.01877278e+00
1.02058175e+00
1.02685356e+00
1.02318707e+00
1.01948713e+00
1.01945471e+00
1.02210315e+00
1.02498722e+00
1.02233000e+00
1.02034909e+00
1.01960458e+00
1.02138862e+00
1.02132990e+00
1.01989877e+00
1.02138396e+00
1.02090562e+00
1.02087702e+00
1.02005353e+00
1.01999287e+00
1.01887914e+00
1.02085271e+00
1.02018408e+00
1.02244184e+00
1.02065313e+00
1.01639767e+00
1.01488853e+00
1.01843248e+00
1.04856775e+00
1.05141594e+00
1.05263223e+00
1.04535054e+00
1.04021702e+00
1.05234627e+00
1.05254810e+00
1.04343088e+00
1.04657911e+00
1.04770862e+00
1.04560909e+00
1.04141667e+00
1.04296963e+00
1.04552575e+00
1.04183759e+00
1.03491628e+00
1.04727809e+00
1.03381268e+00
1.03806180e+00
1.04835530e+00
1.03037685e+00
1.03124230e+00
1.04733577e+00
1.03546485e+00
1.03042977e+00
1.04098509e+00
1.02747391e+00
1.03891842e+00
1.04023470e+00
1.02524125e+00
1.03709310e+00
1.03397089e+00
1.02889746e+00
1.03111018e+00
1.02892272e+00
1.03812995e+00
1.03118956e+00
1.03166409e+00
1.03001354e+00
1.02584386e+00
1.03441622e+00
1.03415786e+00
1.02835495e+00
1.02503188e+00
1.02979110e+00
1.03222703e+00
1.02970036e+00
1.02824999e+00
1.02456438e+00
1.03369184e+00
1.03182149e+00
1.02658456e+00
1.02535951e+00
1.03243886e+00
1.03004404e+00
1.02548900e+00
1.03181231e+00
1.02738576e+00
1.02561159e+00
1.02811948e+00
1.02423818e+00
1.02789913e+00
1.02661150e+00
1.02983167e+00
1.02171493e+00
1.02386838e+00
1.02912277e+00
1.02587302e+00
1.02449434e+00
1.02526596e+00
1.02232936e+00
1.02716755e+00
1.02553262e+00
1.02192673e+00
1.02434876e+00
1.02611795e+00
1.02163174e+00
1.02772665e+00
1.02325006e+00
1.01780776e+00
1.02596925e+00
1.02747760e+00
1.02059690e+00
1.02387413e+00
1.02439430e+00
1.02087398e+00
1.02370696e+00
1.02634166e+00
1.02151328e+00
1.02130966e+00
1.02474158e+00
1.02210732e+00
1.02312884e+00
1.02330156e+00
1.02195096e+00
1.02341649e+00
1.02091521e+00
1.02329509e+00
1.02191434e+00
1.02017986e+00
1.02390770e+00
1.02257115e+00
1.02161819e+00
1.02037176e+00
1.01996229e+00
1.02397514e+00
1.02404863e+00
1.02155181e+00
1.01949161e+00
1.01950743e+00
1.02266005e+00
1.02368732e+00
1.01956571e+00
1.01881939e+00
1.01879411e+00
1.02266412e+00
1.02272993e+00
1.02131205e+00
1.01837139e+00
1.01670837e+00
1.01837006e+00
1.02209627e+00
1.01999138e+00
1.01857253e+00
1.01595282e+00
1.01737812e+00
1.01859584e+00
1.01814168e+00
1.03338264e+00
1.03567101e+00
1.05385215e+00
1.05096410e+00
1.04641658e+00
1.04827540e+00
1.04254430e+00
1.04629673e+00
1.05210317e+00
1.03757542e+00
1.04046095e+00
1.05333882e+00
1.03585712e+00
1.04170845e+00
1.04285602e+00
1.04035596e+00
1.04609660e+00
1.03539172e+00
1.04224566e+00
1.03486464e+00
1.03556152e+00
1.04351289e+00
1.03674175e+00
1.03592092e+00
1.03611711e+00
1.03310475e+00
1.03739167e+00
1.04055765e+00
1.02778149e+00
1.03555804e+00
1.04203019e+00
1.02384487e+00
1.03420156e+00
1.03937919e+00
1.02565923e+00
1.03612896e+00
1.03511976e+00
1.02968542e+00
1.02879999e+00
1.03387404e+00
1.03584850e+00
1.02691534e+00
1.02843811e+00
1.02995108e+00
1.03580696e+00
1.03320156e+00
1.02165653e+00
1.02930013e+00
1.03625805e+00
1.03114754e+00
1.02441406e+00
1.02886781e+00
1.02809745e+00
1.02998860e+00
1.03381956e+00
1.02458640e+00
1.02427989e+00
1.02995493e+00
1.02806160e+00
1.02531736e+00
1.02307253e+00
1.02913919e+00
1.02435437e+00
1.02430554e+00
1.02914681e+00
1.02214866e+00
1.02421215e+00
1.02543324e+00
1.02442842e+00
1.02592798e+00
1.02260891e+00
1.02172944e+00
1.02441289e+00
1.02697694e+00
1.02403057e+00
1.02602168e+00
1.02029586e+00
1.02164627e+00
1.02891530e+00
1.02362298e+00
1.01942137e+00
1.02501580e+00
1.02518654e+00
1.02199061e+00
1.02472476e+00
1.02371092e+00
1.01794353e+00
1.02555129e+00
1.02730854e+00
1.02161295e+00
1.01990940e+00
1.02254800e+00
1.02479217e+00
1.02353709e+00
1.02296296e+00
1.02148086e+00
1.01906775e+00
1.02387221e+00
1.02450164e+00
1.02367374e+00
1.02128311e+00
1.01854776e+00
1.02264547e+00
1.02407412e+00
1.02241466e+00
1.02264298e+00
1.02054823e+00
1.02000593e+00
1.02226660e+00
1.02257625e+00
1.02098312e+00
1.02088489e+00
1.01995002e+00
1.02192551e+00
1.02157125e+00
1.02120682e+00
1.02123701e+00
1.02090987e+00
1.02090922e+00
1.02068560e+00
1.01790105e+00
1.01942578e+00
1.01949049e+00
1.02332407e+00
1.02007962e+00
1.01591795e+00
1.01516058e+00
1.01922768e+00
1.04386230e+00
1.04826307e+00
1.04079613e+00
1.04077665e+00
1.05175829e+00
1.05159303e+00
1.04342348e+00
1.04538964e+00
1.04582369e+00
1.04673050e+00
1.04311149e+00
1.04541195e+00
1.04220425e+00
1.04527399e+00
1.03988849e+00
1.04525167e+00
1.03834231e+00
1.04044000e+00
1.04242965e+00
1.03397465e+00
1.04442219e+00
1.03858924e+00
1.03003783e+00
1.04030560e+00
1.03640544e+00
1.03743509e+00
1.03611926e+00
1.03074299e+00
1.03581829e+00
1.03736356e+00
1.03298406e+00
1.03110303e+00
1.03745997e+00
1.03173680e+00
1.03236916e+00
1.03689086e+00
1.02660557e+00
1.03289889e+00
1.03375925e+00
1.02932569e+00
1.02805848e+00
1.02765645e+00
1.03471261e+00
1.03315791e+00
1.02799240e+00
1.02741860e+00
1.02948273e+00
1.03335324e+00
1.02772999e+00
1.02725038e+00
1.02716738e+00
1.03304991e+00
1.03133649e+00
1.02495551e+00
1.02496544e+00
1.02950084e+00
1.02644222e+00
1.02623454e+00
1.02896210e+00
1.02588428e+00
1.02658940e+00
1.02393733e+00
1.02893870e+00
1.02201975e+00
1.02505733e+00