# vtk DataFile Version 2.0
LBM Flow Field - Timestep 280
ASCII
DATASET STRUCTURED_POINTS
DIMENSIONS 128 128 1
ORIGIN 0.0 0.0 0.0
SPACING 1.0 1.0 1.0
POINT_DATA 16384
SCALARS density double 1
LOOKUP_TABLE default
1.31411714e+00
1.29452963e+00
1.27122352e+00
1.24858875e+00
1.22629242e+00
1.20516714e+00
1.18447646e+00
1.16541066e+00
1.14678217e+00
1.13014701e+00
1.11387593e+00
1.09984523e+00
1.08606214e+00
1.07462138e+00
1.06330531e+00
1.05428321e+00
1.04528722e+00
1.03840168e+00
1.03148592e+00
1.02639465e+00
1.02126190e+00
1.01760893e+00
1.01393854e+00
1.01139040e+00
1.00886719e+00
1.00713578e+00
1.00547210e+00
1.00432446e+00
1.00327457e+00
1.00253233e+00
1.00189913e+00
1.00143148e+00
1.00106655e+00
1.00078063e+00
1.00057923e+00
1.00041059e+00
1.00030362e+00
1.00020838e+00
1.00015322e+00
1.00010213e+00
1.00007423e+00
1.00004839e+00
1.00003442e+00
1.00002217e+00
1.00001524e+00
1.00000982e+00
1.00000644e+00
1.00000419e+00
1.00000260e+00
1.00000171e+00
1.00000100e+00
1.00000066e+00
1.00000037e+00
1.00000024e+00
1.00000013e+00
1.00000008e+00
1.00000005e+00
1.00000003e+00
1.00000002e+00
1.00000001e+00
1.00000000e+00
1.00000000e+00
1.00000000e+00
1.00000000e+00
1.00000000e+00
1.00000000e+00
1.00000000e+00
1.00000000e+00
1.00000000e+00
1.00000000e+00
1.00000000e+00
1.00000000e+00
1.00000000e+00
1.00000000e+00
1.00000000e+00
1.00000000e+00
1.00000000e+00
1.00000000e+00
1.00000000e+00
1.00000000e+00
1.00000000e+00
1.00000000e+00
1.00000000e+00
1.00000000e+00
1.00000000e+00
1.00000000e+00
1.00000000e+00
1.00000000e+00
1.00000000e+00
1.00000000e+00
1.00000000e+00
1.00000000e+00
1.00000000e+00
1.00000000e+00
1.00000000e+00
1.00000000e+00
1.00000000e+00
1.00000000e+00
1.00000000e+00
1.00000000e+00
1.00000000e+00
1.00000000e+00
1.00000000e+00
1.00000000e+00
1.00000000e+00
1.00000000e+00
1.00000000e+00
1.00000000e+00
1.00000000e+00
1.00000000e+00
1.00000000e+00
1.00000000e+00
1.00000000e+00
1.00000000e+00
1.00000000e+00
1.00000000e+00
1.00000000e+00
1.00000000e+00
1.00000000e+00
1.00000000e+00
1.00000000e+00
1.00000000e+00
1.00000000e+00
1.00000000e+00
1.00000000e+00
1.00000000e+00
1.00000000e+00
1.00000000e+00
1.13221819e+00
1.11107827e+00
1.09567758e+00
1.09242745e+00
1.09101921e+00
1.08547337e+00
1.08226460e+00
1.08665643e+00
1.08335396e+00
1.08016048e+00
1.08273981e+00
1.07599827e+00
1.07699147e+00
1.07635790e+00
1.08229019e+00
1.08330195e+00
1.08466352e+00
1.07714711e+00
1.08282195e+00
1.08026166e+00
1.08067805e+00
1.08082779e+00
1.08091870e+00
1.07817289e+00
1.08124463e+00
1.07770138e+00
1.08174377e+00
1.08170419e+00
1.08087560e+00
1.07770794e+00
1.08207774e+00
1.07890426e+00
1.07657002e+00
1.07628323e+00
1.08038623e+00
1.07575947e+00
1.07287809e+00
1.07522868e+00
1.07670073e+00
1.07721043e+00
1.07848775e+00
1.07914451e+00
1.08136923e+00
1.08169427e+00
1.08218557e+00
1.08095573e+00
1.08285898e+00
1.08363261e+00
1.08095093e+00
1.08326424e+00
1.07893125e+00
1.08087533e+00
1.08099662e+00
1.08136983e+00
1.08024683e+00
1.08235368e+00
1.08208274e+00
1.08432395e+00
1.08219543e+00
1.07898403e+00
1.07893852e+00
1.08133041e+00
1.07694900e+00
1.07688899e+00
1.07546824e+00
1.07820104e+00
1.07811141e+00
1.07584986e+00
1.07577467e+00
1.08035280e+00
1.07743972e+00
1.07671557e+00
1.07751851e+00
1.07877609e+00
1.07948518e+00
1.07755571e+00
1.07663812e+00
1.07562030e+00
1.07586087e+00
1.07692961e+00
1.07230205e+00
1.07440978e+00
1.07537620e+00
1.07480117e+00
1.07513344e+00
1.07647065e+00
1.07398932e+00
1.07402913e+00
1.07473230e+00
1.07418247e+00
1.07323341e+00
1.07123829e+00
1.07005144e+00
1.06982774e+00
1.06393897e+00
1.06392798e+00
1.06539601e+00
1.06733465e+00
1.06766969e+00
1.06755599e+00
1.06230549e+00
1.06030847e+00
1.06126482e+00
1.06293644e+00
1.06197751e+00
1.05938590e+00
1.05882638e+00
1.05978445e+00
1.06158422e+00
1.06017957e+00
1.05809292e+00
1.06007486e+00
1.06036276e+00
1.05959174e+00
1.05746888e+00
1.05719695e+00
1.05656110e+00
1.05071138e+00
1.05217338e+00
1.05218333e+00
1.05021577e+00
1.04865343e+00
1.05473646e+00
1.05787870e+00
1.05364312e+00
1.05452716e+00
1.05610102e+00
1.05219337e+00
1.11306151e+00
1.10802561e+00
1.10194631e+00
1.09208035e+00
1.08363217e+00
1.09026827e+00
1.09087783e+00
1.08978860e+00
1.08032698e+00
1.08127660e+00
1.07730585e+00
1.07804917e+00
1.07910046e+00
1.07876174e+00
1.07752726e+00
1.07889911e+00
1.08398457e+00
1.07829992e+00
1.08115449e+00
1.08208095e+00
1.08206356e+00
1.08032839e+00
1.08146178e+00
1.07881960e+00
1.07898325e+00
1.07989535e+00
1.08623411e+00
1.08255096e+00
1.08040850e+00
1.07647058e+00
1.07797814e+00
1.07674095e+00
1.08136002e+00
1.07945831e+00
1.07877296e+00
1.07396813e+00
1.07503518e+00
1.07763743e+00
1.07642418e+00
1.07205904e+00
1.07451846e+00
1.08090332e+00
1.08093406e+00
1.07629956e+00
1.07951278e+00
1.08393042e+00
1.08639843e+00
1.08749359e+00
1.08702876e+00
1.08799987e+00
1.08042219e+00
1.08042686e+00
1.08014148e+00
1.07809067e+00
1.08012560e+00
1.08282320e+00
1.08751624e+00
1.08810423e+00
1.08208601e+00
1.08324197e+00
1.08130638e+00
1.08126213e+00
1.07693397e+00
1.07652124e+00
1.08071683e+00
1.07892058e+00
1.07717150e+00
1.07865190e+00
1.07312340e+00
1.07856625e+00
1.08033841e+00
1.07402195e+00
1.07695130e+00
1.07874167e+00
1.07661057e+00
1.07463994e+00
1.07451197e+00
1.07749925e+00
1.07333926e+00
1.07795732e+00
1.07605397e+00
1.07420700e+00
1.07412629e+00
1.07545826e+00
1.07519047e+00
1.07390019e+00
1.07237171e+00
1.07439845e+00
1.07549496e+00
1.07260589e+00
1.07254803e+00
1.07054349e+00
1.06923726e+00
1.06953131e+00
1.06407384e+00
1.06048068e+00
1.06492454e+00
1.06758723e+00
1.06721293e+00
1.06331536e+00
1.05867997e+00
1.05960661e+00
1.06444764e+00
1.06755167e+00
1.06172257e+00
1.05684061e+00
1.05854615e+00
1.06201601e+00
1.06273508e+00
1.05946854e+00
1.05543574e+00
1.05766110e+00
1.06210187e+00
1.05756654e+00
1.05603724e+00
1.05892572e+00
1.05995016e+00
1.05340204e+00
1.05353328e+00
1.05557832e+00
1.04913851e+00
1.04580973e+00
1.05413957e+00
1.05593214e+00
1.04777692e+00
1.05214153e+00
1.05786750e+00
1.05165828e+00
1.10015305e+00
1.10710024e+00
1.09852302e+00
1.09313956e+00
1.09169338e+00
1.09668881e+00
1.09006431e+00
1.08297711e+00
1.07799053e+00
1.08398642e+00
1.07745064e+00
1.08378338e+00
1.07930073e+00
1.08220598e+00
1.07754775e+00
1.07996829e+00
1.07797178e+00
1.08281670e+00
1.08014978e+00
1.08532646e+00
1.08075226e+00
1.07888268e+00
1.07807143e+00
1.08017226e+00
1.07742544e+00
1.08497777e+00
1.08683890e+00
1.07885782e+00
1.07469070e+00
1.07833738e+00
1.07979365e+00
1.07610024e+00
1.07985515e+00
1.07799970e+00
1.07671879e+00
1.07420144e+00
1.07917185e+00
1.07793158e+00
1.07859786e+00
1.08026016e+00
1.08119207e+00
1.07935343e+00
1.07758886e+00
1.07265665e+00
1.08051330e+00
1.08237451e+00
1.08468480e+00
1.08443348e+00
1.08552681e+00
1.08453388e+00
1.07987602e+00
1.08012412e+00
1.07967880e+00
1.07653885e+00
1.08193656e+00
1.08289143e+00
1.08401786e+00
1.08548232e+00
1.08106456e+00
1.08270701e+00
1.08422455e+00
1.08152558e+00
1.08115559e+00
1.07623758e+00
1.07990787e+00
1.07786070e+00
1.07475380e+00
1.07841312e+00
1.07597314e+00
1.07478306e+00
1.07971828e+00
1.07571737e+00
1.07355746e+00
1.07589916e+00
1.07546112e+00
1.07427995e+00
1.07259104e+00
1.07694450e+00
1.07611412e+00
1.07616232e+00
1.07980432e+00
1.07569586e+00
1.07234457e+00
1.07259022e+00
1.07870845e+00
1.07412615e+00
1.07121333e+00
1.07539154e+00
1.07699080e+00
1.07111712e+00
1.07313900e+00
1.07034415e+00
1.06806634e+00
1.06575255e+00
1.06343043e+00
1.05828188e+00
1.06391493e+00
1.06805025e+00
1.06763775e+00
1.06193278e+00
1.05679183e+00
1.05576910e+00
1.06396349e+00
1.06928550e+00
1.06212467e+00
1.05582455e+00
1.06015991e+00
1.06423934e+00
1.06356416e+00
1.05704202e+00
1.05242502e+00
1.05733245e+00
1.06383873e+00
1.05719793e+00
1.05204132e+00
1.06012388e+00
1.06124214e+00
1.05435284e+00
1.05507905e+00
1.06128838e+00
1.05199802e+00
1.04446802e+00
1.05276733e+00
1.05497730e+00
1.04272923e+00
1.04635342e+00
1.05781615e+00
1.05012450e+00
1.10521937e+00
1.10158134e+00
1.09400729e+00
1.10220979e+00
1.09716878e+00
1.08888266e+00
1.08542125e+00
1.08672616e+00
1.08558553e+00
1.08506871e+00
1.08552520e+00
1.08825662e+00
1.08179323e+00
1.07866723e+00
1.07794574e+00
1.08161905e+00
1.08088981e+00
1.08870282e+00
1.07907654e+00
1.08094883e+00
1.07783088e+00
1.08069521e+00
1.07999301e+00
1.08495248e+00
1.07967077e+00
1.08281800e+00
1.08070039e+00
1.08089164e+00
1.07388258e+00
1.07801933e+00
1.07943868e+00
1.08029440e+00
1.07422022e+00
1.07457736e+00
1.07446902e+00
1.07460107e+00
1.07702938e+00
1.08166644e+00
1.08109447e+00
1.08153506e+00
1.07898748e+00
1.08067332e+00
1.08733895e+00
1.08059631e+00
1.08190868e+00
1.08011689e+00
1.08459851e+00
1.07906091e+00
1.07805247e+00
1.07823249e+00
1.08224064e+00
1.08091126e+00
1.08243940e+00
1.07700244e+00
1.08396109e+00
1.07985527e+00
1.08009918e+00
1.08173751e+00
1.08558511e+00
1.08211058e+00
1.08552944e+00
1.08051998e+00
1.08328392e+00
1.07687091e+00
1.07909629e+00
1.07901727e+00
1.07720118e+00
1.07437004e+00
1.07975443e+00
1.07446738e+00
1.07566923e+00
1.07351892e+00
1.07607559e+00
1.07593481e+00
1.07585082e+00
1.07384011e+00
1.07655360e+00
1.07492452e+00
1.07675728e+00
1.07159402e+00
1.07661621e+00
1.07727242e+00
1.07493506e+00
1.07081060e+00
1.07783780e+00
1.07581695e+00
1.07228585e+00
1.07451033e+00
1.07546404e+00
1.07237189e+00
1.07186182e+00
1.06717398e+00
1.06423630e+00
1.06445364e+00
1.06245445e+00
1.05989311e+00
1.06607519e+00
1.06960970e+00
1.06647415e+00
1.05914929e+00
1.05561635e+00
1.05551310e+00
1.06584154e+00
1.06892776e+00
1.05812731e+00
1.05237960e+00
1.05959305e+00
1.06770158e+00
1.06341035e+00
1.05462765e+00
1.05094148e+00
1.06237741e+00
1.06555654e+00
1.05427173e+00
1.04949786e+00
1.06068925e+00
1.06295740e+00
1.05244238e+00
1.05604605e+00
1.06389831e+00
1.05366781e+00
1.04529963e+00
1.05466639e+00
1.05389609e+00
1.03815666e+00
1.04098717e+00
1.05654590e+00
1.04850737e+00
1.10879600e+00
1.09940693e+00
1.10149330e+00
1.09804557e+00
1.09301799e+00
1.08659167e+00
1.08932383e+00
1.08447637e+00
1.08827194e+00
1.08950878e+00
1.09100050e+00
1.08286196e+00
1.07835649e+00
1.07863761e+00
1.08148613e+00
1.08877956e+00
1.08592200e+00
1.08151366e+00
1.07732284e+00
1.08255710e+00
1.08184378e+00
1.08010177e+00
1.08158961e+00
1.08421508e+00
1.08114744e+00
1.08074164e+00
1.07429407e+00
1.07753029e+00
1.07541586e+00
1.08385884e+00
1.08110424e+00
1.08098182e+00
1.07217303e+00
1.07389962e+00
1.07790296e+00
1.07960836e+00
1.07450276e+00
1.07676769e+00
1.07615191e+00
1.08055174e+00
1.07775853e+00
1.08333181e+00
1.08564847e+00
1.08284040e+00
1.08293566e+00
1.08406425e+00
1.08453437e+00
1.07752319e+00
1.07782277e+00
1.08369138e+00
1.08464137e+00
1.08190955e+00
1.08308771e+00
1.07911321e+00
1.08371665e+00
1.08049352e+00
1.08291776e+00
1.08223155e+00
1.08645833e+00
1.08701438e+00
1.08761804e+00
1.08320545e+00
1.08197487e+00
1.07884736e+00
1.07965305e+00
1.07718722e+00
1.07836267e+00
1.07600524e+00
1.07799384e+00
1.07615032e+00
1.07566449e+00
1.07107077e+00
1.07637865e+00
1.07867658e+00
1.07463803e+00
1.07196505e+00
1.07976034e+00
1.07432980e+00
1.07213596e+00
1.07195734e+00
1.07485280e+00
1.07697058e+00
1.07470675e+00
1.07145514e+00
1.07454566e+00
1.07325802e+00
1.07190226e+00
1.07523089e+00
1.07381525e+00
1.07115720e+00
1.06996913e+00
1.06659451e+00
1.06082952e+00
1.06279042e+00
1.06016649e+00
1.06234609e+00
1.07172133e+00
1.07331978e+00
1.06454111e+00
1.05727367e+00
1.05274340e+00
1.05676223e+00
1.06636001e+00
1.06710396e+00
1.05468942e+00
1.05178834e+00
1.05824642e+00
1.06761961e+00
1.06483222e+00
1.05264007e+00
1.05057350e+00
1.06352508e+00
1.06820010e+00
1.05237716e+00
1.04945691e+00
1.06360835e+00
1.06546037e+00
1.04722568e+00
1.05279015e+00
1.06533345e+00
1.05467967e+00
1.04491078e+00
1.05719487e+00
1.05465293e+00
1.03399116e+00
1.03964339e+00
1.05875036e+00
1.04578907e+00
1.09374826e+00
1.10111433e+00
1.10751701e+00
1.09047541e+00
1.08895780e+00
1.08905247e+00
1.09128060e+00
1.08636587e+00
1.09003461e+00
1.08757043e+00
1.08546325e+00
1.07719178e+00
1.08560907e+00
1.09087137e+00
1.07980731e+00
1.08229660e+00
1.08101665e+00
1.08210637e+00
1.08077385e+00
1.08452590e+00
1.08543337e+00
1.08364860e+00
1.08403055e+00
1.08064664e+00
1.07572858e+00
1.07610036e+00
1.07688498e+00
1.07949559e+00
1.07631492e+00
1.08178035e+00
1.07399041e+00
1.07713317e+00
1.08029853e+00
1.07916154e+00
1.07839353e+00
1.07892662e+00
1.08011258e+00
1.07658677e+00
1.07508725e+00
1.07932368e+00
1.07774386e+00
1.08171710e+00
1.08159600e+00
1.08371681e+00
1.08264240e+00
1.08004040e+00
1.08113841e+00
1.08095648e+00
1.08158908e+00
1.08527750e+00
1.08142349e+00
1.08282114e+00
1.08204923e+00
1.07823188e+00
1.07979621e+00
1.08140198e+00
1.08194358e+00
1.08565733e+00
1.08403781e+00
1.08866638e+00
1.08502519e+00
1.08336410e+00
1.08204947e+00
1.08096518e+00
1.08098327e+00
1.07469532e+00
1.07457912e+00
1.07910422e+00
1.07629671e+00
1.07275745e+00
1.07780542e+00
1.07254896e+00
1.07281629e+00
1.07862601e+00
1.07406115e+00
1.07191874e+00
1.07758004e+00
1.07583465e+00
1.07053770e+00
1.07201669e+00
1.07374902e+00
1.07541401e+00
1.07441280e+00
1.07512009e+00
1.07634537e+00
1.07263633e+00
1.06945962e+00
1.07293155e+00
1.07212597e+00
1.07085896e+00
1.07226377e+00
1.06931220e+00
1.05954294e+00
1.06022904e+00
1.05703523e+00
1.05954523e+00
1.07066159e+00
1.07473354e+00
1.06550930e+00
1.05660065e+00
1.04999243e+00
1.05474966e+00
1.06785405e+00
1.06697384e+00
1.05437193e+00
1.04911383e+00
1.05766525e+00
1.06554757e+00
1.06364630e+00
1.05346791e+00
1.05232138e+00
1.06364122e+00
1.06937674e+00
1.05361309e+00
1.04911902e+00
1.06552545e+00
1.06318577e+00
1.04256447e+00
1.05118730e+00
1.06814915e+00
1.05312274e+00
1.04071324e+00
1.05775737e+00
1.05956075e+00
1.03521054e+00
1.03845176e+00
1.06085061e+00
1.04605807e+00
1.09310980e+00
1.09965019e+00
1.09311316e+00
1.09263013e+00
1.09430907e+00
1.08927518e+00
1.08779993e+00
1.09143873e+00
1.08805354e+00
1.08304159e+00
1.08570546e+00
1.08476546e+00
1.08590885e+00
1.08744803e+00
1.08278980e+00
1.08513582e+00
1.08067995e+00
1.08028384e+00
1.07957275e+00
1.08454986e+00
1.08443770e+00
1.07956438e+00
1.08110928e+00
1.08372352e+00
1.08289379e+00
1.07825215e+00
1.07783574e+00
1.07735663e+00
1.07312910e+00
1.08024045e+00
1.07593445e+00
1.07529854e+00
1.07760276e+00
1.07718085e+00
1.07946791e+00
1.08132013e+00
1.08427194e+00
1.07595354e+00
1.07893419e+00
1.08873047e+00
1.08263603e+00
1.08048740e+00
1.07885797e+00
1.08403395e+00
1.08029190e+00
1.07390237e+00
1.07886423e+00
1.08242331e+00
1.08319771e+00
1.08341294e+00
1.07988598e+00
1.08079939e+00
1.07826182e+00
1.07603745e+00
1.07950409e+00
1.08260703e+00
1.07811547e+00
1.08568497e+00
1.08433476e+00
1.08611876e+00
1.08177830e+00
1.08181904e+00
1.08206416e+00
1.07997741e+00
1.07982762e+00
1.07756487e+00
1.07163915e+00
1.07698064e+00
1.07621330e+00
1.07155714e+00
1.07806777e+00
1.07612306e+00
1.07231913e+00
1.07759680e+00
1.07042369e+00
1.07291004e+00
1.07436384e+00
1.07519705e+00
1.07505757e+00
1.07475269e+00
1.07458931e+00
1.07516761e+00
1.07269397e+00
1.07445678e+00
1.07647111e+00
1.07323708e+00
1.06974881e+00
1.07650020e+00
1.07441967e+00
1.07040888e+00
1.07264292e+00
1.06786859e+00
1.05917264e+00
1.05689625e+00
1.05502891e+00
1.05563632e+00
1.07043561e+00
1.07599014e+00
1.06728774e+00
1.05429881e+00
1.04810566e+00
1.05250967e+00
1.07118104e+00
1.07342448e+00
1.05541493e+00
1.04476199e+00
1.05515590e+00
1.06714959e+00
1.06317288e+00
1.05481899e+00
1.05028713e+00
1.06206270e+00
1.06890405e+00
1.05462782e+00
1.04821545e+00
1.06644176e+00
1.06330543e+00
1.04130960e+00
1.04966838e+00
1.06804340e+00
1.04904545e+00
1.03524277e+00
1.05778470e+00
1.06415347e+00
1.03759146e+00
1.03606002e+00
1.05828479e+00
1.04998972e+00
1.09986636e+00
1.09540673e+00
1.08703646e+00
1.09428968e+00
1.09427201e+00
1.09213004e+00
1.09274042e+00
1.08862514e+00
1.08320805e+00
1.08140054e+00
1.08903461e+00
1.09067575e+00
1.08549938e+00
1.08461930e+00
1.08420488e+00
1.08055573e+00
1.08120248e+00
1.08514022e+00
1.08148035e+00
1.07991113e+00
1.08364356e+00
1.08018067e+00
1.08128799e+00
1.07863115e+00
1.08200041e+00
1.07567332e+00
1.08059846e+00
1.08166524e+00
1.07816755e+00
1.07705362e+00
1.07421037e+00
1.07833518e+00
1.07883737e+00
1.07563830e+00
1.07690367e+00
1.07507512e+00
1.08247309e+00
1.08295505e+00
1.08334672e+00
1.08653693e+00
1.07978481e+00
1.08605636e+00
1.08239870e+00
1.08420858e+00
1.07867816e+00
1.07672638e+00
1.07976227e+00
1.07991277e+00
1.08040337e+00
1.08440386e+00
1.08171324e+00
1.08277147e+00
1.08181976e+00
1.08200227e+00
1.07977054e+00
1.08042025e+00
1.07859997e+00
1.08255793e+00
1.08248603e+00
1.08261376e+00
1.08188787e+00
1.08690956e+00
1.08445143e+00
1.08110091e+00
1.07771147e+00
1.07909223e+00
1.07540712e+00
1.07603803e+00
1.07414246e+00
1.07350718e+00
1.07813903e+00
1.07762796e+00
1.07387680e+00
1.07836238e+00
1.06889769e+00
1.07535419e+00
1.07700884e+00
1.07155678e+00
1.07534621e+00
1.07782103e+00
1.07435970e+00
1.07341089e+00
1.07178083e+00
1.07491920e+00
1.07727021e+00
1.07542144e+00
1.07157277e+00
1.07651956e+00
1.07215142e+00
1.06817327e+00
1.07149230e+00
1.06605543e+00
1.06084177e+00
1.05805609e+00
1.05452709e+00
1.05406640e+00
1.06900802e+00
1.07584142e+00
1.06357931e+00
1.05495047e+00
1.04909348e+00
1.05322249e+00
1.06796911e+00
1.07233539e+00
1.05538654e+00
1.04822832e+00
1.05874100e+00
1.06628280e+00
1.05979491e+00
1.05303184e+00
1.04900270e+00
1.06299374e+00
1.06967069e+00
1.05166999e+00
1.04658829e+00
1.06475386e+00
1.06227577e+00
1.04051792e+00
1.04804631e+00
1.06702475e+00
1.04883669e+00
1.03430252e+00
1.05597558e+00
1.06333163e+00
1.03793776e+00
1.03724491e+00
1.05877141e+00
1.05112439e+00
1.09947764e+00
1.09073462e+00
1.09022407e+00
1.09537476e+00
1.09003535e+00
1.09274601e+00
1.09239267e+00
1.08449447e+00
1.08717892e+00
1.08811327e+00
1.08818620e+00
1.08156345e+00
1.08779866e+00
1.08732742e+00
1.08879731e+00
1.07827736e+00
1.08279744e+00
1.08436312e+00
1.08038192e+00
1.08038879e+00
1.08660702e+00
1.08057883e+00
1.08135500e+00
1.07320737e+00
1.08196874e+00
1.07824112e+00
1.08263502e+00
1.07968252e+00
1.08068375e+00
1.07663567e+00
1.07243536e+00
1.07816561e+00
1.07868427e+00
1.07996372e+00
1.08163506e+00
1.07586326e+00
1.08131821e+00
1.08034878e+00
1.07695698e+00
1.07963252e+00
1.07950153e+00
1.08951953e+00
1.08165986e+00
1.08123121e+00
1.08209413e+00
1.08122941e+00
1.08127064e+00
1.07722993e+00
1.08043471e+00
1.08430307e+00
1.08002438e+00
1.08379372e+00
1.08634860e+00
1.08424320e+00
1.07913831e+00
1.07721992e+00
1.08032380e+00
1.07962350e+00
1.07821729e+00
1.08450399e+00
1.08157442e+00
1.08681819e+00
1.08184455e+00
1.08159556e+00
1.08186335e+00
1.07751294e+00
1.07844752e+00
1.08155064e+00
1.07419115e+00
1.07437031e+00
1.07851654e+00
1.07469235e+00
1.07097457e+00
1.07829071e+00
1.07273368e+00
1.07561458e+00
1.07959258e+00
1.07068702e+00
1.07192957e+00
1.07968002e+00
1.07462438e+00
1.07316854e+00
1.07170185e+00
1.07534621e+00
1.07385704e+00
1.07257586e+00
1.07080432e+00
1.07675427e+00
1.07216480e+00
1.06810926e+00
1.07189468e+00
1.06730730e+00
1.05781358e+00
1.05755353e+00
1.05448835e+00
1.05640677e+00
1.07106830e+00
1.07847685e+00
1.06290582e+00
1.05470875e+00
1.04745183e+00
1.04990391e+00
1.06871973e+00
1.07275004e+00
1.05624561e+00
1.05138341e+00
1.06058924e+00
1.06506573e+00
1.06128662e+00
1.05370806e+00
1.04799253e+00
1.05988368e+00
1.06804645e+00
1.04807756e+00
1.04216043e+00
1.06447008e+00
1.06595240e+00
1.03934914e+00
1.04563032e+00
1.06749051e+00
1.04865078e+00
1.02981137e+00
1.05343593e+00
1.06509109e+00
1.03927338e+00
1.03554487e+00
1.05980387e+00
1.05437766e+00
1.09013251e+00
1.08964235e+00
1.09531866e+00
1.09272714e+00
1.08859373e+00
1.09016490e+00
1.08696266e+00
1.08755709e+00
1.08848403e+00
1.09069628e+00
1.08812434e+00
1.08602965e+00
1.08734784e+00
1.08225678e+00
1.08444056e+00
1.08335291e+00
1.08464525e+00
1.08388111e+00
1.08243561e+00
1.08373502e+00
1.08206900e+00
1.07882087e+00
1.08134446e+00
1.07622690e+00
1.08237085e+00
1.07702903e+00
1.08053559e+00
1.07459932e+00
1.07574804e+00
1.07855987e+00
1.07921673e+00
1.08106873e+00
1.08082481e+00
1.08133080e+00
1.08237977e+00
1.07667446e+00
1.08830156e+00
1.08262246e+00
1.08061346e+00
1.08087097e+00
1.08169778e+00
1.08262432e+00
1.07531675e+00
1.07790082e+00
1.08469429e+00
1.08218404e+00
1.08545297e+00
1.07787491e+00
1.07842374e+00
1.07838318e+00
1.07880854e+00
1.08329749e+00
1.08348370e+00
1.07970829e+00
1.08376832e+00
1.07945922e+00
1.07621907e+00
1.07777850e+00
1.07457493e+00
1.08333731e+00
1.08091469e+00
1.08525946e+00
1.08253193e+00
1.07942344e+00
1.08440552e+00
1.07809223e+00
1.07617676e+00
1.08317606e+00
1.07539722e+00
1.07358735e+00
1.07820928e+00
1.07598523e+00
1.07329902e+00
1.07848402e+00
1.07600597e+00
1.07373683e+00
1.07714251e+00
1.07295209e+00
1.07141472e+00
1.07757217e+00
1.07214059e+00
1.07402987e+00
1.07478044e+00
1.07402926e+00
1.07206201e+00
1.07297993e+00
1.07240873e+00
1.07455443e+00
1.07159120e+00
1.06728492e+00
1.07055007e+00
1.06634622e+00
1.05669256e+00
1.05763057e+00
1.05699467e+00
1.05792739e+00
1.07329027e+00
1.07682006e+00
1.06277033e+00
1.05261588e+00
1.04899258e+00
1.05234373e+00
1.07126382e+00
1.07183710e+00
1.05259451e+00
1.04826078e+00
1.06197197e+00
1.06563783e+00
1.06043948e+00
1.05313156e+00
1.04906806e+00
1.05741646e+00
1.06312233e+00
1.04644056e+00
1.03811732e+00
1.06119050e+00
1.06846782e+00
1.03890684e+00
1.04025443e+00
1.06601671e+00
1.05456942e+00
1.03115749e+00
1.04854254e+00
1.06388595e+00
1.04157390e+00
1.03436697e+00
1.05591284e+00
1.05772677e+00
1.08868667e+00
1.09324428e+00
1.08849459e+00
1.08995889e+00
1.09267637e+00
1.08847898e+00
1.08426606e+00
1.09512929e+00
1.08927748e+00
1.08512610e+00
1.08614820e+00
1.08915956e+00
1.08190200e+00
1.08507846e+00
1.08561010e+00
1.08717597e+00
1.07718656e+00
1.08518328e+00
1.08411872e+00
1.08515505e+00
1.07906862e+00
1.08146179e+00
1.07911156e+00
1.08244373e+00
1.08318148e+00
1.07446138e+00
1.07570273e+00
1.07692639e+00
1.07529019e+00
1.08108071e+00
1.07782681e+00
1.07868300e+00
1.07461266e+00
1.07809261e+00
1.08321494e+00
1.08018294e+00
1.09005231e+00
1.08465187e+00
1.08684706e+00
1.08270702e+00
1.07949386e+00
1.08113592e+00
1.07735577e+00
1.08103180e+00
1.08465757e+00
1.08168020e+00
1.08600904e+00
1.07787516e+00
1.07927559e+00
1.08002226e+00
1.07999271e+00
1.08373719e+00
1.08102667e+00
1.07684690e+00
1.08366606e+00
1.07876327e+00
1.07333892e+00
1.08062931e+00
1.07965631e+00
1.08057996e+00
1.08151558e+00
1.08218719e+00
1.08412118e+00
1.07773605e+00
1.08241140e+00
1.08059822e+00
1.07494823e+00
1.08038096e+00
1.07743094e+00
1.07424437e+00
1.07797315e+00
1.07637595e+00
1.07386278e+00
1.07533641e+00
1.07455871e+00
1.07659029e+00
1.07849912e+00
1.07139555e+00
1.07357571e+00
1.07783624e+00
1.07021661e+00
1.07130208e+00
1.07865553e+00
1.07289347e+00
1.07394003e+00
1.07164518e+00
1.07325966e+00
1.07465801e+00
1.07299540e+00
1.06780040e+00
1.07283930e+00
1.06432577e+00
1.05445656e+00
1.05462625e+00
1.05330534e+00
1.05610806e+00
1.07598391e+00
1.08079465e+00
1.06452234e+00
1.05454391e+00
1.04950597e+00
1.05236966e+00
1.06886598e+00
1.06877220e+00
1.05392186e+00
1.04850469e+00
1.06022015e+00
1.06498727e+00
1.05721381e+00
1.05116145e+00
1.04899200e+00
1.05694954e+00
1.06461802e+00
1.04826553e+00
1.03491375e+00
1.05689775e+00
1.06725710e+00
1.03824052e+00
1.03740416e+00
1.06406306e+00
1.05805416e+00
1.03437806e+00
1.04401951e+00
1.06037398e+00
1.04656568e+00
1.03954148e+00
1.04996215e+00
1.05355884e+00
1.09350305e+00
1.09933521e+00
1.09076268e+00
1.08964541e+00
1.08385712e+00
1.08621115e+00
1.08577734e+00
1.09719859e+00
1.09069329e+00
1.08846964e+00
1.08862966e+00
1.08402449e+00
1.07995016e+00
1.08542226e+00
1.08362587e+00
1.08608635e+00
1.08199520e+00
1.08885639e+00
1.07876006e+00
1.07677965e+00
1.07894433e+00
1.08897629e+00
1.08241366e+00
1.07951999e+00
1.08015023e+00
1.07721800e+00
1.07649200e+00
1.07977728e+00
1.07771219e+00
1.08201485e+00
1.07630353e+00
1.08077770e+00
1.07410706e+00
1.07648964e+00
1.08183443e+00
1.08217618e+00
1.08320067e+00
1.07956443e+00
1.08456975e+00
1.08356785e+00
1.07816834e+00
1.08837387e+00
1.07936546e+00
1.08023238e+00
1.08039182e+00
1.08189528e+00
1.08624171e+00
1.07876239e+00
1.08305026e+00
1.08647054e+00
1.08009084e+00
1.08242369e+00
1.07960521e+00
1.07724254e+00
1.08080900e+00
1.07870977e+00
1.08027248e+00
1.07881776e+00
1.07908487e+00
1.07804925e+00
1.08259739e+00
1.07878976e+00
1.08160214e+00
1.08048651e+00
1.08284776e+00
1.08047219e+00
1.07637063e+00
1.07489968e+00
1.07636387e+00
1.07316550e+00
1.07835707e+00
1.07346019e+00
1.07562049e+00
1.07828811e+00
1.07320541e+00
1.07303358e+00
1.07906870e+00
1.06866678e+00
1.07657629e+00
1.08060704e+00
1.07021112e+00
1.07209811e+00
1.08091832e+00
1.07177083e+00
1.07243434e+00
1.07245404e+00
1.07340219e+00
1.07417423e+00
1.07248621e+00
1.06955995e+00
1.07389111e+00
1.06345697e+00
1.05205419e+00
1.05539331e+00
1.05244855e+00
1.05469845e+00
1.07438557e+00
1.08020542e+00
1.06313810e+00
1.05212595e+00
1.04875940e+00
1.05255435e+00
1.06875322e+00
1.06949246e+00
1.05087403e+00
1.04747114e+00
1.05768922e+00
1.06002762e+00
1.05640500e+00
1.05530345e+00
1.04962747e+00
1.05341163e+00
1.06411895e+00
1.04925413e+00
1.03257580e+00
1.05262419e+00
1.06439058e+00
1.04123658e+00
1.03732642e+00
1.06005592e+00
1.05667092e+00
1.03587662e+00
1.04504431e+00
1.06046277e+00
1.04822255e+00
1.03866331e+00
1.04721156e+00
1.05264190e+00
1.09760662e+00
1.09012089e+00
1.09093569e+00
1.09228439e+00
1.09089850e+00
1.09135944e+00
1.09098184e+00
1.08950843e+00
1.08655767e+00
1.08913227e+00
1.08690351e+00
1.08395558e+00
1.08657282e+00
1.08448974e+00
1.08474976e+00
1.08424592e+00
1.07975815e+00
1.07910972e+00
1.08193866e+00
1.08475253e+00
1.08056225e+00
1.07832730e+00
1.07812182e+00
1.08012965e+00
1.08030839e+00
1.07963688e+00
1.07852776e+00
1.07680217e+00
1.07846927e+00
1.08377803e+00
1.07816309e+00
1.08263266e+00
1.08205356e+00
1.08498395e+00
1.08368415e+00
1.08106844e+00
1.08074944e+00
1.07568400e+00
1.08309834e+00
1.08835581e+00
1.07808330e+00
1.08378634e+00
1.07594629e+00
1.08300135e+00
1.08450210e+00
1.07995676e+00
1.08170468e+00
1.07825409e+00
1.08191010e+00
1.08408686e+00
1.07635386e+00
1.08246511e+00
1.08152069e+00
1.08073722e+00
1.08315288e+00
1.07646593e+00
1.08010760e+00
1.07421561e+00
1.07381625e+00
1.07832616e+00
1.08040545e+00
1.08107705e+00
1.08276006e+00
1.08271473e+00
1.08359854e+00
1.07909866e+00
1.07566681e+00
1.07563279e+00
1.07325143e+00
1.07290941e+00
1.08018114e+00
1.07200226e+00
1.07094461e+00
1.07915629e+00
1.07283730e+00
1.06994468e+00
1.07893372e+00
1.07109136e+00
1.07831889e+00
1.08042413e+00
1.06811329e+00
1.07230415e+00
1.07703678e+00
1.07168773e+00
1.07334332e+00
1.07498850e+00
1.07458821e+00
1.07488603e+00
1.07122084e+00
1.06876333e+00
1.07094020e+00
1.06216647e+00
1.05208867e+00
1.05481914e+00
1.05138179e+00
1.05430593e+00
1.07541879e+00
1.07721548e+00
1.05979244e+00
1.05019449e+00
1.04654653e+00
1.05311812e+00
1.06931119e+00
1.06925861e+00
1.04709754e+00
1.04645906e+00
1.06372428e+00
1.06078316e+00
1.05293256e+00
1.05400957e+00
1.04616127e+00
1.04846395e+00
1.06425463e+00
1.05365689e+00
1.03422500e+00
1.04998832e+00
1.06285758e+00
1.04349766e+00
1.03462925e+00
1.05503260e+00
1.05866645e+00
1.03935674e+00
1.04487760e+00
1.06093155e+00
1.04927977e+00
1.03713844e+00
1.04541824e+00
1.05640170e+00
1.09612944e+00
1.09203892e+00
1.09361064e+00
1.08483693e+00
1.08620510e+00
1.09200162e+00
1.09657259e+00
1.08998930e+00
1.08831824e+00
1.08339879e+00
1.08361075e+00
1.08840733e+00
1.08965659e+00
1.08111641e+00
1.08535587e+00
1.08471984e+00
1.08190704e+00
1.08122803e+00
1.08153963e+00
1.08243644e+00
1.08061219e+00
1.07999610e+00
1.08051830e+00
1.08081587e+00
1.07533856e+00
1.07911247e+00
1.08036133e+00
1.07735900e+00
1.07222878e+00
1.07376056e+00
1.07907784e+00
1.08612578e+00
1.08371038e+00
1.08622825e+00
1.08223785e+00
1.08112820e+00
1.08832345e+00
1.08086430e+00
1.08113211e+00
1.08259504e+00
1.07695644e+00
1.07972969e+00
1.08031965e+00
1.08708911e+00
1.08629414e+00
1.07922689e+00
1.08279185e+00
1.08168473e+00
1.08008533e+00
1.07805948e+00
1.07372401e+00
1.08453313e+00
1.08024833e+00
1.08135065e+00
1.08414008e+00
1.07617568e+00
1.07629766e+00
1.07868848e+00
1.07498064e+00
1.07975804e+00
1.07545803e+00
1.08222858e+00
1.08446265e+00
1.07822559e+00
1.08208640e+00
1.08368021e+00
1.07615350e+00
1.08150100e+00
1.07467217e+00
1.07310015e+00
1.07682393e+00
1.07203246e+00
1.06905374e+00
1.07739377e+00
1.07251826e+00
1.07045043e+00
1.07603978e+00
1.07013257e+00
1.07417258e+00
1.07627260e+00
1.06812586e+00
1.07589457e+00
1.07783767e+00
1.06958142e+00
1.07378074e+00
1.07608071e+00
1.07028097e+00
1.06943830e+00
1.06980955e+00
1.06964120e+00
1.07032652e+00
1.06308308e+00
1.05375604e+00
1.05416070e+00
1.04783250e+00
1.05044211e+00
1.07385479e+00
1.07696801e+00
1.05542473e+00
1.04704917e+00
1.04730876e+00
1.05209696e+00
1.06895151e+00
1.06797124e+00
1.04724230e+00
1.04640645e+00
1.06200938e+00
1.05749606e+00
1.05061535e+00
1.05632803e+00
1.04991780e+00
1.04395263e+00
1.05738757e+00
1.05670864e+00
1.03931099e+00
1.04394884e+00
1.05939317e+00
1.04764226e+00
1.03584615e+00
1.05196492e+00
1.05876546e+00
1.04245984e+00
1.04193545e+00
1.05451119e+00
1.05180577e+00
1.04299685e+00
1.04250109e+00
1.05147312e+00
1.08647993e+00
1.08510861e+00
1.08767815e+00
1.08890359e+00
1.09784587e+00
1.09339515e+00
1.08528448e+00
1.08773879e+00
1.09056720e+00
1.08550178e+00
1.08249797e+00
1.08803109e+00
1.08731338e+00
1.08197867e+00
1.08540471e+00
1.08073224e+00
1.07907037e+00
1.08476097e+00
1.08574460e+00
1.08367689e+00
1.07930557e+00
1.08079480e+00
1.07790721e+00
1.08207512e+00
1.08346407e+00
1.08458052e+00
1.07821301e+00
1.07923240e+00
1.07754296e+00
1.07487136e+00
1.07581825e+00
1.07910884e+00
1.07824791e+00
1.08485448e+00
1.08686340e+00
1.08296915e+00
1.08281206e+00
1.07954950e+00
1.08375300e+00
1.08279380e+00
1.07833540e+00
1.08056777e+00
1.08077372e+00
1.08553992e+00
1.08205646e+00
1.08118717e+00
1.08594315e+00
1.08298006e+00
1.08520156e+00
1.08193079e+00
1.07239239e+00
1.08012529e+00
1.07662553e+00
1.08246455e+00
1.08481733e+00
1.07826031e+00
1.07899479e+00
1.08154336e+00
1.07621950e+00
1.07760611e+00
1.07362380e+00
1.07835352e+00
1.08679713e+00
1.07791950e+00
1.08096511e+00