# vtk DataFile Version 2.0
LBM Flow Field - Timestep 420
ASCII
DATASET STRUCTURED_POINTS
DIMENSIONS 128 128 1
ORIGIN 0.0 0.0 0.0
SPACING 1.0 1.0 1.0
POINT_DATA 16384
SCALARS density double 1
LOOKUP_TABLE default
1.31707753e+00
1.30100061e+00
1.28199202e+00
1.26309789e+00
1.24474334e+00
1.22660068e+00
1.20923420e+00
1.19219915e+00
1.17609461e+00
1.16045724e+00
1.14581763e+00
1.13178705e+00
1.11874006e+00
1.10643743e+00
1.09503708e+00
1.08449665e+00
1.07472993e+00
1.06590726e+00
1.05770462e+00
1.05049035e+00
1.04373831e+00
1.03797530e+00
1.03252992e+00
1.02803165e+00
1.02373139e+00
1.02029940e+00
1.01697655e+00
1.01441548e+00
1.01190553e+00
1.01003455e+00
1.00818333e+00
1.00684363e+00
1.00551217e+00
1.00457063e+00
1.00363808e+00
1.00298769e+00
1.00235254e+00
1.00191044e+00
1.00149028e+00
1.00119438e+00
1.00092468e+00
1.00072974e+00
1.00056180e+00
1.00043558e+00
1.00033408e+00
1.00025397e+00
1.00019431e+00
1.00014465e+00
1.00011045e+00
1.00008050e+00
1.00006128e+00
1.00004380e+00
1.00003315e+00
1.00002331e+00
1.00001746e+00
1.00001213e+00
1.00000895e+00
1.00000618e+00
1.00000446e+00
1.00000308e+00
1.00000216e+00
1.00000150e+00
1.00000102e+00
1.00000071e+00
1.00000047e+00
1.00000033e+00
1.00000021e+00
1.00000015e+00
1.00000009e+00
1.00000006e+00
1.00000004e+00
1.00000003e+00
1.00000002e+00
1.00000001e+00
1.00000001e+00
1.00000000e+00
1.00000000e+00
1.00000000e+00
1.00000000e+00
1.00000000e+00
1.00000000e+00
1.00000000e+00
1.00000000e+00
1.00000000e+00
1.00000000e+00
1.00000000e+00
1.00000000e+00
1.00000000e+00
1.00000000e+00
1.00000000e+00
1.00000000e+00
1.00000000e+00
1.00000000e+00
1.00000000e+00
1.00000000e+00
1.00000000e+00
1.00000000e+00
1.00000000e+00
1.00000000e+00
1.00000000e+00
1.00000000e+00
1.00000000e+00
1.00000000e+00
1.00000000e+00
1.00000000e+00
1.00000000e+00
1.00000000e+00
1.00000000e+00
1.00000000e+00
1.00000000e+00
1.00000000e+00
1.00000000e+00
1.00000000e+00
1.00000000e+00
1.00000000e+00
1.00000000e+00
1.00000000e+00
1.00000000e+00
1.00000000e+00
1.00000000e+00
1.00000000e+00
1.00000000e+00
1.00000000e+00
1.00000000e+00
1.00000000e+00
1.00000000e+00
1.00000000e+00
1.00000000e+00
1.12253080e+00
1.10584412e+00
1.08575105e+00
1.08549103e+00
1.08429357e+00
1.07491878e+00
1.07697594e+00
1.07527728e+00
1.07073522e+00
1.07094083e+00
1.07213391e+00
1.07098314e+00
1.07244781e+00
1.06965171e+00
1.07209493e+00
1.07157010e+00
1.06844243e+00
1.06917688e+00
1.07290835e+00
1.06960253e+00
1.06888110e+00
1.07176914e+00
1.07259544e+00
1.06957023e+00
1.07172526e+00
1.07127930e+00
1.07124243e+00
1.07249314e+00
1.06835454e+00
1.06647464e+00
1.06478955e+00
1.06787649e+00
1.06734407e+00
1.06404113e+00
1.06556187e+00
1.06430320e+00
1.06104895e+00
1.06299745e+00
1.06498127e+00
1.06359883e+00
1.05785640e+00
1.05915700e+00
1.05956951e+00
1.06032227e+00
1.05911040e+00
1.05548067e+00
1.05541046e+00
1.05528690e+00
1.05778397e+00
1.05633513e+00
1.05409969e+00
1.05087129e+00
1.05219757e+00
1.05375921e+00
1.05438699e+00
1.04940781e+00
1.05284343e+00
1.05022554e+00
1.05061899e+00
1.05003680e+00
1.05191722e+00
1.05124442e+00
1.04913409e+00
1.05032807e+00
1.05102181e+00
1.05078316e+00
1.05398883e+00
1.04671103e+00
1.05040927e+00
1.05131357e+00
1.05076400e+00
1.04889495e+00
1.05027676e+00
1.04694594e+00
1.04928710e+00
1.05014288e+00
1.04763337e+00
1.04688705e+00
1.04740057e+00
1.04786846e+00
1.04775090e+00
1.04775849e+00
1.04862966e+00
1.04667271e+00
1.04642590e+00
1.04733440e+00
1.04444702e+00
1.04421548e+00
1.04381949e+00
1.04269735e+00
1.04261141e+00
1.04234345e+00
1.04188815e+00
1.04142428e+00
1.03978287e+00
1.03960573e+00
1.04097636e+00
1.03855673e+00
1.03770623e+00
1.03921494e+00
1.03826496e+00
1.03796379e+00
1.03787154e+00
1.03586380e+00
1.03722887e+00
1.03788966e+00
1.03811547e+00
1.03720638e+00
1.03821296e+00
1.03812823e+00
1.03941666e+00
1.03917943e+00
1.03763203e+00
1.03867425e+00
1.03911447e+00
1.03815656e+00
1.03716073e+00
1.03899328e+00
1.04055256e+00
1.03589683e+00
1.03686973e+00
1.04058252e+00
1.03748858e+00
1.03731248e+00
1.03996817e+00
1.03831517e+00
1.03823239e+00
1.03857343e+00
1.10402538e+00
1.10065739e+00
1.09754816e+00
1.09070810e+00
1.07665387e+00
1.07780145e+00
1.08129815e+00
1.07303817e+00
1.07285599e+00
1.07270450e+00
1.07112519e+00
1.07372979e+00
1.07140973e+00
1.06772535e+00
1.06890993e+00
1.07018996e+00
1.07033170e+00
1.06740705e+00
1.06693228e+00
1.07226287e+00
1.07044564e+00
1.06568070e+00
1.06831778e+00
1.06988967e+00
1.06628969e+00
1.06888980e+00
1.06950578e+00
1.07005623e+00
1.07178376e+00
1.07061684e+00
1.06622566e+00
1.06706690e+00
1.06504777e+00
1.06349176e+00
1.06776218e+00
1.06968022e+00
1.06483490e+00
1.06221825e+00
1.06116303e+00
1.06361059e+00
1.05905715e+00
1.06326160e+00
1.05682359e+00
1.05358324e+00
1.05534141e+00
1.05952862e+00
1.05774607e+00
1.05297677e+00
1.05498522e+00
1.05611050e+00
1.04980823e+00
1.05210480e+00
1.05565760e+00
1.05658084e+00
1.05377532e+00
1.04896712e+00
1.05506004e+00
1.05557373e+00
1.04800915e+00
1.05128098e+00
1.05392421e+00
1.05235697e+00
1.04849332e+00
1.04930338e+00
1.05391886e+00
1.04577664e+00
1.05292415e+00
1.05229720e+00
1.04786578e+00
1.05151525e+00
1.04991093e+00
1.04760643e+00
1.04884756e+00
1.05164139e+00
1.04879472e+00
1.04771684e+00
1.04858522e+00
1.05018886e+00
1.04806080e+00
1.04796175e+00
1.04715300e+00
1.04539758e+00
1.04745017e+00
1.04783292e+00
1.04553494e+00
1.04638739e+00
1.04438094e+00
1.04646467e+00
1.04658372e+00
1.04152319e+00
1.04165430e+00
1.04338701e+00
1.04254231e+00
1.04158059e+00
1.04186385e+00
1.04026481e+00
1.04226567e+00
1.03839080e+00
1.03622442e+00
1.03909819e+00
1.03970296e+00
1.03825308e+00
1.03762052e+00
1.03517752e+00
1.03793451e+00
1.03799937e+00
1.03520097e+00
1.03693339e+00
1.03838938e+00
1.03911170e+00
1.03854582e+00
1.03660935e+00
1.03725868e+00
1.03910492e+00
1.03870699e+00
1.03672633e+00
1.03902521e+00
1.04028416e+00
1.03767802e+00
1.03507407e+00
1.03602313e+00
1.03999217e+00
1.03878623e+00
1.03599667e+00
1.03934294e+00
1.03941668e+00
1.03772434e+00
1.03649023e+00
1.09521754e+00
1.10173940e+00
1.09455769e+00
1.08531635e+00
1.08306448e+00
1.08614838e+00
1.07633753e+00
1.07077982e+00
1.07473400e+00
1.07590880e+00
1.07058678e+00
1.06811053e+00
1.06963810e+00
1.07345125e+00
1.06885577e+00
1.06571078e+00
1.07099597e+00
1.06791986e+00
1.06473606e+00
1.06930287e+00
1.07082377e+00
1.06752840e+00
1.06861063e+00
1.06831809e+00
1.06571919e+00
1.06891655e+00
1.06945935e+00
1.06965066e+00
1.06811167e+00
1.07263911e+00
1.06921768e+00
1.06408484e+00
1.06199385e+00
1.06470992e+00
1.07238564e+00
1.07315815e+00
1.06363427e+00
1.05576894e+00
1.05672004e+00
1.06569995e+00
1.06753455e+00
1.05746114e+00
1.04845043e+00
1.05191615e+00
1.06182030e+00
1.06359736e+00
1.05616925e+00
1.04803850e+00
1.05327796e+00
1.06054633e+00
1.05291972e+00
1.05049907e+00
1.05328683e+00
1.05806467e+00
1.05406843e+00
1.04990001e+00
1.05298982e+00
1.05632590e+00
1.05045614e+00
1.05225921e+00
1.05493128e+00
1.05314668e+00
1.04574743e+00
1.05078687e+00
1.05653296e+00
1.04965146e+00
1.04558083e+00
1.05183690e+00
1.04914878e+00
1.04937636e+00
1.04964484e+00
1.04905580e+00
1.04499359e+00
1.04961239e+00
1.05118865e+00
1.04676513e+00
1.04628368e+00
1.04925909e+00
1.04697171e+00
1.04625921e+00
1.04773653e+00
1.04531472e+00
1.04574987e+00
1.04440183e+00
1.04462822e+00
1.04629847e+00
1.04345167e+00
1.04514715e+00
1.04738705e+00
1.04042987e+00
1.04129259e+00
1.04534176e+00
1.04178208e+00
1.04022659e+00
1.04136491e+00
1.04145370e+00
1.04043979e+00
1.03697276e+00
1.03671708e+00
1.04052209e+00
1.03851745e+00
1.03870767e+00
1.03748913e+00
1.03584841e+00
1.03670148e+00
1.03846426e+00
1.03414882e+00
1.03460174e+00
1.03876509e+00
1.03922238e+00
1.03702662e+00
1.03611035e+00
1.03872479e+00
1.04056395e+00
1.03923798e+00
1.03553509e+00
1.04031196e+00
1.04368802e+00
1.03866743e+00
1.03159973e+00
1.03791078e+00
1.04289058e+00
1.03750046e+00
1.03652082e+00
1.03956685e+00
1.03783841e+00
1.03686988e+00
1.03468603e+00
1.09765359e+00
1.09163424e+00
1.08708678e+00
1.09251208e+00
1.09202683e+00
1.07968771e+00
1.07522554e+00
1.08409640e+00
1.07711672e+00
1.07125935e+00
1.07277404e+00
1.06883703e+00
1.06643707e+00
1.06950709e+00
1.06965877e+00
1.06745994e+00
1.06712072e+00
1.06661401e+00
1.07018883e+00
1.07087287e+00
1.07021593e+00
1.06882530e+00
1.06981950e+00
1.07082638e+00
1.06830043e+00
1.06456149e+00
1.06855421e+00
1.07024108e+00
1.07458566e+00
1.07430656e+00
1.06913541e+00
1.06399809e+00
1.06424595e+00
1.06768623e+00
1.07309471e+00
1.06798574e+00
1.06037497e+00
1.05666553e+00
1.05964666e+00
1.06284070e+00
1.06223732e+00
1.05406169e+00
1.05144042e+00
1.05812285e+00
1.06262610e+00
1.05721997e+00
1.05115822e+00
1.05032302e+00
1.05874534e+00
1.05895839e+00
1.04943765e+00
1.04801291e+00
1.05627431e+00
1.06073414e+00
1.04905314e+00
1.04542453e+00
1.05454741e+00
1.05684841e+00
1.05017066e+00
1.04798538e+00
1.05314529e+00
1.05701918e+00
1.04858419e+00
1.05072140e+00
1.05210109e+00
1.05308870e+00
1.04701964e+00
1.05077957e+00
1.05254662e+00
1.04835200e+00
1.04672277e+00
1.04981201e+00
1.04862709e+00
1.04827959e+00
1.04904203e+00
1.04700947e+00
1.04612419e+00
1.04922629e+00
1.04759996e+00
1.04613674e+00
1.04523760e+00
1.04551698e+00
1.04633913e+00
1.04475738e+00
1.04283314e+00
1.04713712e+00
1.04281183e+00
1.04433361e+00
1.04755175e+00
1.04135002e+00
1.03970741e+00
1.04594317e+00
1.04108348e+00
1.04051185e+00
1.04115181e+00
1.04229958e+00
1.04185663e+00
1.03793341e+00
1.03770941e+00
1.04324846e+00
1.03844555e+00
1.03624665e+00
1.03571848e+00
1.03567006e+00
1.03828072e+00
1.03640747e+00
1.03273634e+00
1.03581006e+00
1.03873652e+00
1.03854174e+00
1.03426580e+00
1.03443609e+00
1.03882780e+00
1.04036013e+00
1.03834488e+00
1.03653275e+00
1.04126920e+00
1.04104838e+00
1.03917962e+00
1.03316021e+00
1.03667302e+00
1.04233017e+00
1.03487206e+00
1.03434525e+00
1.03821390e+00
1.03658962e+00
1.03457283e+00
1.03290291e+00
1.09840114e+00
1.08812827e+00
1.08909409e+00
1.08806805e+00
1.08285711e+00
1.08485122e+00
1.08513877e+00
1.08194287e+00
1.07341248e+00
1.07242801e+00
1.07083831e+00
1.07044613e+00
1.06915563e+00
1.06675097e+00
1.07047628e+00
1.07297592e+00
1.06868315e+00
1.06568076e+00
1.07077915e+00
1.07397621e+00
1.07166019e+00
1.07099844e+00
1.07026355e+00
1.06977100e+00
1.06966674e+00
1.06828998e+00
1.06816293e+00
1.07042325e+00
1.07508047e+00
1.07098535e+00
1.06698462e+00
1.06332724e+00
1.05901333e+00
1.06447948e+00
1.07639464e+00
1.07081847e+00
1.06000476e+00
1.05086336e+00
1.05634871e+00
1.06228747e+00
1.06578040e+00
1.05932231e+00
1.04921668e+00
1.05383792e+00
1.06086987e+00
1.06086456e+00
1.05189060e+00
1.04845052e+00
1.05760266e+00
1.05998908e+00
1.05130581e+00
1.04752665e+00
1.05414157e+00
1.06285491e+00
1.04980995e+00
1.04473698e+00
1.05600856e+00
1.05645091e+00
1.04539011e+00
1.05252038e+00
1.05700194e+00
1.05516325e+00
1.04324424e+00
1.05116823e+00
1.05654031e+00
1.05341385e+00
1.04950981e+00
1.04838361e+00
1.05081544e+00
1.05271720e+00
1.05057132e+00
1.04970424e+00
1.04802547e+00
1.04987697e+00
1.04748423e+00
1.04813616e+00
1.04773365e+00
1.04528387e+00
1.04428065e+00
1.04955745e+00
1.04710310e+00
1.04557572e+00
1.04667200e+00
1.04548463e+00
1.04333096e+00
1.04981654e+00
1.04210175e+00
1.04038116e+00
1.04609913e+00
1.04495908e+00
1.04209511e+00
1.04598077e+00
1.04169283e+00
1.04141475e+00
1.04196229e+00
1.04254615e+00
1.04041923e+00
1.03920222e+00
1.04094759e+00
1.04284967e+00
1.03841320e+00
1.03749271e+00
1.03694075e+00
1.03645773e+00
1.03847049e+00
1.03733639e+00
1.03147650e+00
1.03351979e+00
1.03844774e+00
1.03531007e+00
1.03330991e+00
1.03544253e+00
1.03800858e+00
1.03813277e+00
1.03583308e+00
1.03727408e+00
1.04273687e+00
1.04196246e+00
1.03720597e+00
1.03392607e+00
1.03742693e+00
1.04092608e+00
1.03435170e+00
1.03645591e+00
1.03870743e+00
1.03625395e+00
1.03433647e+00
1.03325858e+00
1.08663424e+00
1.08932765e+00
1.09208417e+00
1.08283271e+00
1.08091778e+00
1.08668824e+00
1.08109334e+00
1.07615595e+00
1.07860505e+00
1.07897491e+00
1.06924084e+00
1.06793327e+00
1.07486236e+00
1.07594081e+00
1.06877646e+00
1.06867205e+00
1.07142208e+00
1.07359019e+00
1.07333340e+00
1.07287521e+00
1.06913441e+00
1.07157168e+00
1.07129886e+00
1.06997121e+00
1.06669928e+00
1.06476833e+00
1.06794435e+00
1.07320471e+00
1.07414396e+00
1.07549953e+00
1.06321474e+00
1.05725655e+00
1.05911253e+00
1.06781767e+00
1.07161358e+00
1.06905024e+00
1.05838312e+00
1.05102438e+00
1.05338295e+00
1.06336898e+00
1.06697352e+00
1.05755831e+00
1.04889395e+00
1.05593410e+00
1.06168157e+00
1.05899094e+00
1.05202101e+00
1.05093603e+00
1.05918172e+00
1.05667932e+00
1.04791540e+00
1.04907218e+00
1.05978000e+00
1.06335489e+00
1.04922652e+00
1.04391290e+00
1.05993252e+00
1.06486044e+00
1.04514506e+00
1.04677357e+00
1.05711460e+00
1.05496765e+00
1.04671174e+00
1.05176878e+00
1.05850190e+00
1.04575594e+00
1.04854154e+00
1.05484371e+00
1.05283740e+00
1.04635249e+00
1.04928082e+00
1.05158972e+00
1.04700543e+00
1.05066108e+00
1.04745843e+00
1.04624562e+00
1.05203352e+00
1.04861442e+00
1.04341232e+00
1.04771460e+00
1.04849396e+00
1.04639212e+00
1.04857469e+00
1.04813511e+00
1.04257294e+00
1.04758073e+00
1.04422130e+00
1.04379398e+00
1.04551746e+00
1.04422125e+00
1.04362436e+00
1.04538785e+00
1.04266689e+00
1.04279138e+00
1.04182573e+00
1.04236806e+00
1.04158491e+00
1.03900288e+00
1.04307057e+00
1.04490521e+00
1.03773156e+00
1.03696514e+00
1.03947934e+00
1.03542126e+00
1.03707452e+00
1.03464348e+00
1.03427052e+00
1.03393805e+00
1.03616852e+00
1.03480906e+00
1.03275196e+00
1.03517656e+00
1.03855962e+00
1.03467518e+00
1.03233908e+00
1.03833732e+00
1.03759108e+00
1.03880897e+00
1.03701795e+00
1.03462013e+00
1.03718988e+00
1.03915704e+00
1.03275159e+00
1.03646046e+00
1.03987593e+00
1.03568892e+00
1.03643333e+00
1.03466422e+00
1.08204255e+00
1.08755390e+00
1.08519582e+00
1.08366187e+00
1.08559528e+00
1.08096442e+00
1.07778142e+00
1.08043091e+00
1.07516159e+00
1.07079681e+00
1.07698613e+00
1.07886976e+00
1.07191328e+00
1.06862586e+00
1.06929581e+00
1.07616662e+00
1.07316874e+00
1.07363837e+00
1.07106343e+00
1.07189063e+00
1.07359934e+00
1.07156323e+00
1.06545555e+00
1.06392252e+00
1.06443825e+00
1.06691915e+00
1.06713701e+00
1.07016466e+00
1.07264277e+00
1.07527209e+00
1.06562640e+00
1.05955288e+00
1.05654220e+00
1.06334904e+00
1.07404986e+00
1.07286241e+00
1.05947908e+00
1.04875607e+00
1.05094026e+00
1.06779927e+00
1.07019104e+00
1.05388551e+00
1.04033999e+00
1.05362558e+00
1.06666366e+00
1.06367357e+00
1.05168291e+00
1.04797416e+00
1.05921503e+00
1.06150105e+00
1.05277734e+00
1.05107318e+00
1.05683240e+00
1.06101469e+00
1.05342680e+00
1.05201241e+00
1.05675142e+00
1.05860413e+00
1.04940848e+00
1.04937831e+00
1.06254116e+00
1.05360219e+00
1.04355619e+00
1.04840904e+00
1.05875543e+00
1.05067368e+00
1.04415754e+00
1.05204668e+00
1.05472386e+00
1.04715732e+00
1.05131314e+00
1.05404288e+00
1.04429331e+00
1.04868063e+00
1.05259708e+00
1.04806929e+00
1.05033489e+00
1.04934247e+00
1.04718215e+00
1.05022089e+00
1.04990648e+00
1.04491173e+00
1.04676391e+00
1.04840897e+00
1.04847640e+00
1.04914187e+00
1.04371722e+00
1.04420200e+00
1.04848469e+00
1.04490136e+00
1.04596511e+00
1.04413022e+00
1.04245717e+00
1.04400098e+00
1.04537791e+00
1.04144621e+00
1.04210229e+00
1.04148796e+00
1.04369340e+00
1.04300675e+00
1.03980820e+00
1.03987942e+00
1.04291164e+00
1.03660552e+00
1.03627671e+00
1.03584280e+00
1.03527823e+00
1.03799308e+00
1.03387576e+00
1.03275902e+00
1.03405188e+00
1.03419379e+00
1.03490526e+00
1.03274641e+00
1.03088026e+00
1.03859182e+00
1.03761381e+00
1.03413281e+00
1.03781137e+00
1.03562058e+00
1.03574783e+00
1.03615176e+00
1.03370601e+00
1.03705008e+00
1.04031108e+00
1.03637086e+00
1.03679955e+00
1.03630153e+00
1.08983417e+00
1.08513344e+00
1.08123207e+00
1.08709411e+00
1.08363546e+00
1.07733287e+00
1.07901105e+00
1.07938446e+00
1.07627928e+00
1.07557550e+00
1.07696437e+00
1.07639211e+00
1.07386414e+00
1.07347011e+00
1.07546822e+00
1.07528183e+00
1.06800146e+00
1.07442237e+00
1.07535306e+00
1.07104895e+00
1.07146089e+00
1.07028538e+00
1.06870124e+00
1.06314959e+00
1.06272170e+00
1.06355007e+00
1.06151032e+00
1.06951800e+00
1.07393857e+00
1.06934739e+00
1.06255502e+00
1.06161861e+00
1.05696148e+00
1.06478653e+00
1.07700322e+00
1.07103638e+00
1.05727737e+00
1.04737248e+00
1.05553090e+00
1.06652360e+00
1.06471293e+00
1.05285053e+00
1.04727457e+00
1.05655959e+00
1.06472956e+00
1.06041752e+00
1.05089626e+00
1.04916203e+00
1.06303945e+00
1.06432900e+00
1.05189884e+00
1.04917155e+00
1.05826333e+00
1.06477298e+00
1.05014727e+00
1.04921601e+00
1.05835507e+00
1.06014325e+00
1.05139327e+00
1.04609714e+00
1.05598358e+00
1.05344031e+00
1.04790936e+00
1.05537372e+00
1.05217031e+00
1.04761272e+00
1.04601398e+00
1.05482789e+00
1.05415390e+00
1.04556979e+00
1.04733139e+00
1.05490633e+00
1.05052766e+00
1.04988656e+00
1.05131082e+00
1.04789982e+00
1.05049898e+00
1.05084474e+00
1.04859173e+00
1.04896293e+00
1.04744388e+00
1.04483366e+00
1.05012052e+00
1.04821283e+00
1.04575229e+00
1.04820849e+00
1.04767940e+00
1.04672797e+00
1.04927078e+00
1.04287682e+00
1.04420341e+00
1.04501591e+00
1.04553325e+00
1.04606455e+00
1.04503092e+00
1.04168369e+00
1.04312944e+00
1.04203736e+00
1.04337005e+00
1.04287203e+00
1.03765257e+00
1.04174689e+00
1.04314401e+00
1.03842632e+00
1.03666362e+00
1.03705874e+00
1.03775328e+00
1.03896078e+00
1.03446777e+00
1.03305909e+00
1.03101321e+00
1.03436579e+00
1.03491163e+00
1.02879607e+00
1.03308762e+00
1.03700535e+00
1.03432907e+00
1.02952191e+00
1.03542340e+00
1.03651441e+00
1.03548095e+00
1.03527882e+00
1.03357999e+00
1.03898750e+00
1.03942316e+00
1.03366492e+00
1.03758807e+00
1.03688062e+00
1.08883313e+00
1.08519215e+00
1.08538216e+00
1.08178797e+00
1.07798453e+00
1.08428846e+00
1.08286416e+00
1.07451110e+00
1.07883364e+00
1.08432785e+00
1.07557684e+00
1.07312737e+00
1.07822484e+00
1.07991373e+00
1.07516074e+00
1.07343255e+00
1.07812474e+00
1.07580658e+00
1.07138597e+00
1.07369438e+00
1.07353927e+00
1.07055801e+00
1.06839568e+00
1.05944198e+00
1.06041929e+00
1.06525560e+00
1.06338178e+00
1.06521848e+00
1.07246859e+00
1.07440731e+00
1.06588573e+00
1.05832330e+00
1.05572669e+00
1.06135910e+00
1.07703792e+00
1.07700622e+00
1.05663215e+00
1.04403569e+00
1.05064518e+00
1.06554961e+00
1.06666280e+00
1.05977799e+00
1.04917658e+00
1.04895183e+00
1.06071132e+00
1.06486490e+00
1.05304804e+00
1.04443967e+00
1.05885756e+00
1.06558312e+00
1.05496139e+00
1.05048834e+00
1.05731853e+00
1.06200146e+00
1.05228620e+00
1.04824084e+00
1.06040352e+00
1.05585072e+00
1.04753478e+00
1.04993766e+00
1.05863833e+00
1.05430388e+00
1.04355119e+00
1.05519831e+00
1.05664296e+00
1.04500918e+00
1.05139037e+00
1.05464515e+00
1.04865730e+00
1.04665846e+00
1.05268211e+00
1.05182971e+00
1.04680977e+00
1.04830400e+00
1.05082098e+00
1.04550817e+00
1.04845957e+00
1.04686574e+00
1.04613679e+00
1.05101060e+00
1.04780006e+00
1.04046352e+00
1.04527642e+00
1.04750026e+00
1.04629113e+00
1.04683477e+00
1.04380978e+00
1.04507746e+00
1.04701943e+00
1.04254213e+00
1.04379563e+00
1.04636082e+00
1.04245601e+00
1.04698177e+00
1.04440045e+00
1.04094240e+00
1.04400274e+00
1.04358759e+00
1.04020063e+00
1.04253365e+00
1.03847222e+00
1.04278207e+00
1.04318652e+00
1.03797832e+00
1.03907348e+00
1.03779977e+00
1.03833581e+00
1.04027925e+00
1.03326841e+00
1.03580276e+00
1.03558359e+00
1.03137588e+00
1.03377493e+00
1.02991629e+00
1.03365356e+00
1.03749082e+00
1.03168868e+00
1.02782003e+00
1.03436001e+00
1.03405386e+00
1.03348175e+00
1.03636779e+00
1.03248684e+00
1.03629317e+00
1.03856851e+00
1.03094552e+00
1.03787815e+00
1.03809613e+00
1.08011240e+00
1.08219319e+00
1.08649429e+00
1.08224946e+00
1.07909415e+00
1.08135282e+00
1.08197464e+00
1.07992220e+00
1.08275287e+00
1.07858798e+00
1.07780248e+00
1.08041756e+00
1.07993470e+00
1.08033559e+00
1.07316160e+00
1.07429059e+00
1.08147594e+00
1.07128184e+00
1.07401281e+00
1.07714307e+00
1.06924811e+00
1.06514129e+00
1.06704090e+00
1.06534410e+00
1.06253875e+00
1.06070277e+00
1.06462710e+00
1.06850587e+00
1.07569861e+00
1.07741062e+00
1.06332037e+00
1.05387397e+00
1.05583684e+00
1.06513233e+00
1.07723714e+00
1.07577328e+00
1.06039211e+00
1.04530084e+00
1.04572155e+00
1.06432477e+00
1.06728857e+00
1.05710524e+00
1.04561829e+00
1.05113290e+00
1.06346549e+00
1.06792087e+00
1.05210956e+00
1.04432246e+00
1.05696626e+00
1.06611207e+00
1.05289598e+00
1.05032550e+00
1.05551353e+00
1.06135563e+00
1.05243614e+00
1.04739035e+00
1.05825195e+00
1.05914033e+00
1.04943112e+00
1.04839238e+00
1.05333098e+00
1.05474047e+00
1.04889260e+00
1.05500848e+00
1.05713931e+00
1.04197541e+00
1.05085276e+00
1.05822286e+00
1.04908189e+00
1.04457460e+00
1.05259902e+00
1.05006349e+00
1.04236148e+00
1.05055926e+00
1.05096751e+00
1.04158420e+00
1.04546675e+00
1.04956539e+00
1.04538589e+00
1.04716699e+00
1.04556061e+00
1.04420974e+00
1.04728600e+00
1.04706046e+00
1.04204417e+00
1.04616340e+00
1.04360896e+00
1.04705704e+00
1.04724673e+00
1.04000099e+00
1.04122583e+00
1.04797833e+00
1.04169488e+00
1.04672413e+00
1.04476633e+00
1.04086488e+00
1.04475991e+00
1.04321068e+00
1.04065323e+00
1.04140377e+00
1.03785607e+00
1.04072076e+00
1.04297739e+00
1.03793056e+00
1.03996788e+00
1.03840635e+00
1.03812302e+00
1.03904355e+00
1.03587907e+00
1.03682578e+00
1.03795573e+00
1.03401328e+00
1.03180124e+00
1.03177805e+00
1.03414143e+00
1.03658925e+00
1.03085118e+00
1.02857249e+00
1.03543573e+00
1.03326302e+00
1.03086838e+00
1.03451114e+00
1.03124236e+00
1.03328449e+00
1.03513992e+00
1.03203457e+00
1.03848246e+00
1.03864351e+00
1.08245686e+00
1.08207606e+00
1.08053575e+00
1.08519144e+00
1.08694674e+00
1.08139820e+00
1.07742756e+00
1.08305713e+00
1.08483920e+00
1.07709582e+00
1.08142706e+00
1.08129414e+00
1.07680798e+00
1.07778423e+00
1.07544994e+00
1.07613815e+00
1.07373694e+00
1.07380977e+00
1.07703864e+00
1.07066195e+00
1.06720707e+00
1.06753766e+00
1.06597538e+00
1.06530046e+00
1.05863942e+00
1.05826909e+00
1.06837069e+00
1.07222678e+00
1.07804150e+00
1.07567993e+00
1.06327727e+00
1.05469197e+00
1.04995259e+00
1.06448118e+00
1.07541378e+00
1.07352786e+00
1.05705835e+00
1.04213615e+00
1.04709493e+00
1.06454505e+00
1.06247221e+00
1.04968728e+00
1.04587570e+00
1.05393595e+00
1.06347327e+00
1.06400542e+00
1.05227622e+00
1.04718733e+00
1.05843463e+00
1.06538658e+00
1.05347774e+00
1.04758714e+00
1.05424515e+00
1.06081202e+00
1.05095793e+00
1.04961501e+00
1.05635085e+00
1.05554047e+00
1.05035795e+00
1.05015310e+00
1.05561552e+00
1.05349900e+00
1.04930877e+00
1.05091355e+00
1.05153483e+00
1.04885679e+00
1.05156929e+00
1.05337589e+00
1.04686629e+00
1.04539665e+00
1.05214280e+00
1.05217868e+00
1.04241054e+00
1.04792150e+00
1.05005747e+00
1.04444011e+00
1.04610851e+00
1.04755248e+00
1.04591733e+00
1.04721484e+00
1.04569692e+00
1.04602157e+00
1.04947759e+00
1.04551676e+00
1.04163505e+00
1.04742337e+00
1.04486703e+00
1.04541438e+00
1.04860160e+00
1.03938618e+00
1.04329761e+00
1.04772686e+00
1.03911280e+00
1.04322010e+00
1.04346462e+00
1.04047989e+00
1.04665929e+00
1.04275535e+00
1.03886161e+00
1.04063121e+00
1.04126682e+00
1.04188308e+00
1.03897473e+00
1.03627536e+00
1.04095363e+00
1.03649504e+00
1.03659589e+00
1.03902578e+00
1.03701396e+00
1.03965461e+00
1.03631311e+00
1.03431319e+00
1.03459811e+00
1.03257328e+00
1.03348167e+00
1.03542727e+00
1.03151709e+00
1.02916178e+00
1.03502013e+00
1.03115481e+00
1.02925201e+00
1.03404003e+00
1.02923994e+00
1.03294835e+00
1.03263745e+00
1.02851989e+00
1.03800412e+00
1.03743083e+00
1.08845359e+00
1.08814732e+00
1.08070674e+00
1.08169077e+00
1.08400320e+00
1.08517905e+00
1.08141026e+00
1.08351407e+00
1.08020563e+00
1.07907557e+00
1.08216797e+00
1.07839330e+00
1.07918663e+00
1.07794392e+00
1.07513671e+00
1.07501967e+00
1.07513222e+00
1.07573568e+00
1.07013521e+00
1.06884495e+00
1.07335190e+00
1.07137879e+00
1.06579515e+00
1.06338453e+00
1.06026614e+00
1.06264362e+00
1.06508647e+00
1.07079524e+00
1.07822222e+00
1.07697171e+00
1.06534065e+00
1.05769602e+00
1.05169058e+00
1.06050395e+00
1.07409042e+00
1.07348044e+00
1.05513493e+00
1.04366858e+00
1.04712576e+00
1.06021601e+00
1.06239795e+00
1.05629672e+00
1.04762922e+00
1.04975725e+00
1.05748871e+00
1.06455524e+00
1.05704426e+00
1.04851678e+00
1.05391084e+00
1.06280369e+00
1.05640441e+00
1.04807340e+00
1.05827390e+00
1.06450602e+00
1.04916237e+00
1.04885330e+00
1.06028065e+00
1.05550557e+00
1.05014684e+00
1.05187142e+00
1.05803172e+00
1.05408476e+00
1.04680698e+00
1.05643349e+00
1.04970910e+00
1.04877490e+00
1.05404923e+00
1.05115138e+00
1.04506234e+00
1.05061725e+00
1.05096990e+00
1.04736627e+00
1.04437358e+00
1.05089606e+00
1.04754300e+00
1.04587583e+00
1.04969007e+00
1.04880202e+00
1.04664506e+00
1.04861986e+00
1.04493662e+00
1.04540596e+00
1.05192383e+00
1.04712280e+00
1.04217693e+00
1.04966139e+00
1.04666431e+00
1.04370895e+00
1.04735180e+00
1.04165411e+00
1.04576444e+00
1.04707549e+00
1.03853514e+00
1.04257098e+00
1.04464879e+00
1.03981800e+00
1.04550699e+00
1.04165258e+00
1.04168697e+00
1.04246648e+00
1.03952885e+00
1.04235318e+00
1.03828117e+00
1.03578697e+00
1.04160177e+00
1.03771499e+00
1.03314193e+00
1.03838847e+00
1.03799935e+00
1.03963520e+00
1.03773711e+00
1.03328532e+00
1.03648187e+00
1.03416510e+00
1.03285197e+00
1.03253244e+00
1.03306674e+00
1.03286862e+00
1.03386718e+00
1.02856032e+00
1.02842051e+00
1.03435166e+00
1.02860740e+00
1.03017542e+00
1.03581945e+00
1.02813031e+00
1.03632805e+00
1.03626781e+00
1.08589014e+00
1.07864991e+00
1.08413044e+00
1.08536980e+00
1.07868586e+00
1.08190631e+00
1.08524083e+00
1.08523235e+00
1.07824734e+00
1.08486619e+00
1.08069317e+00
1.07353726e+00
1.07858706e+00
1.07791179e+00
1.07465924e+00
1.07646518e+00
1.07543016e+00
1.07082029e+00
1.07279691e+00
1.07859971e+00
1.07417603e+00
1.06427714e+00
1.06689100e+00
1.06849270e+00
1.06264175e+00
1.06093430e+00
1.06447903e+00
1.07122577e+00
1.07651751e+00
1.07447581e+00
1.06259773e+00
1.05373203e+00
1.05332256e+00
1.06308119e+00
1.07496450e+00
1.06933797e+00
1.05285403e+00
1.04097860e+00
1.04697317e+00
1.06330089e+00
1.06840968e+00
1.05413736e+00
1.04462714e+00
1.05091087e+00
1.06126010e+00
1.06213206e+00
1.05228319e+00
1.04714278e+00
1.05840275e+00
1.06898831e+00
1.05828616e+00
1.04492860e+00
1.05372788e+00
1.06489402e+00
1.05368742e+00
1.05056400e+00
1.05770029e+00
1.05358419e+00
1.04860425e+00
1.05561813e+00
1.05529750e+00
1.05381217e+00
1.04163677e+00
1.05894786e+00
1.05399090e+00
1.04363083e+00
1.05346582e+00
1.05454020e+00
1.04340034e+00
1.05187167e+00
1.05392696e+00
1.04769922e+00
1.04613596e+00
1.05663784e+00
1.04766492e+00
1.04434205e+00
1.05328346e+00
1.05107323e+00
1.04440923e+00
1.04759264e+00
1.04719669e+00
1.04607490e+00
1.05222588e+00
1.04645519e+00
1.04171202e+00
1.04963550e+00
1.04654888e+00
1.04555627e+00
1.04833030e+00
1.04310572e+00
1.04705667e+00
1.04713942e+00
1.04010354e+00
1.04234611e+00
1.04290597e+00
1.04039222e+00
1.04435288e+00
1.04107091e+00
1.03885166e+00
1.04433404e+00
1.04143498e+00
1.04216514e+00
1.03959482e+00
1.03838139e+00
1.03894734e+00
1.03676317e+00
1.03394242e+00
1.03766755e+00
1.03767927e+00
1.03646656e+00
1.03604591e+00
1.03320878e+00
1.03795910e+00
1.03575036e+00
1.03248424e+00
1.03163749e+00
1.03079643e+00
1.03462489e+00
1.03372894e+00
1.02643751e+00
1.03002720e+00
1.03453620e+00
1.02929977e+00
1.02790295e+00
1.03493400e+00
1.03132647e+00
1.03525867e+00
1.03484983e+00
1.08284520e+00
1.07842419e+00
1.08465668e+00
1.08136608e+00
1.08106828e+00
1.08352947e+00
1.08412461e+00
1.08310215e+00
1.07703951e+00
1.07871091e+00
1.07941112e+00
1.07980934e+00
1.07548252e+00
1.07187064e+00
1.07616010e+00
1.07746962e+00
1.07436096e+00
1.07718528e+00
1.07577258e+00
1.07631285e+00
1.07441848e+00
1.06853636e+00
1.06917745e+00
1.06512329e+00
1.05923979e+00
1.06334466e+00
1.06790675e+00
1.06857277e+00
1.07355483e+00
1.07189589e+00
1.06782607e+00
1.05337800e+00
1.04895113e+00
1.06179949e+00
1.07412849e+00
1.07088716e+00
1.05698935e+00
1.04123709e+00
1.04354028e+00
1.05971553e+00
1.06550054e+00
1.05606087e+00
1.04912278e+00
1.05446110e+00
1.06404824e+00
1.05851885e+00
1.05253147e+00
1.05045573e+00
1.06002470e+00
1.06195564e+00
1.05735945e+00
1.04924597e+00
1.05599784e+00
1.06019010e+00
1.05250790e+00
1.05101778e+00
1.05753837e+00
1.05650095e+00
1.04945561e+00
1.05069567e+00
1.05142715e+00
1.05323852e+00
1.04785909e+00
1.05113460e+00
1.05304205e+00
1.04293411e+00
1.05151609e+00
1.05437161e+00
1.04823545e+00
1.04810619e+00
1.05426609e+00
1.04869476e+00
1.04847583e+00
1.05569357e+00
1.04939666e+00
1.04335344e+00
1.05428883e+00
1.04903048e+00
1.04232747e+00
1.04899685e+00
1.05079250e+00
1.04323075e+00
1.04644497e+00
1.04432441e+00
1.04350915e+00
1.05287523e+00
1.04470181e+00
1.04198729e+00
1.04644231e+00
1.04695538e+00
1.04767501e+00
1.04748310e+00
1.03901920e+00
1.04426809e+00
1.04279420e+00
1.04016003e+00
1.04382516e+00
1.04099122e+00
1.04164874e+00
1.04226587e+00
1.04003953e+00
1.04212036e+00
1.03902082e+00
1.04034154e+00
1.04258612e+00
1.03524347e+00
1.03581814e+00
1.04020032e+00
1.03700613e+00
1.03623799e+00
1.03463318e+00
1.03411369e+00
1.03735940e+00
1.03490236e+00
1.03172374e+00
1.03111514e+00
1.03170828e+00
1.03399746e+00
1.03435010e+00
1.02863573e+00
1.02909306e+00
1.03457565e+00
1.02647256e+00
1.03101561e+00
1.03459594e+00
1.02827395e+00
1.03459165e+00
1.03398402e+00
1.07729447e+00
1.08459338e+00
1.08151210e+00
1.07925676e+00
1.08355448e+00
1.08316131e+00
1.07561660e+00
1.07894247e+00
1.08220298e+00
1.07838589e+00
1.07548143e+00
1.07655589e+00
1.07414490e+00
1.07597664e+00
1.08005850e+00
1.07591581e+00
1.07144044e+00
1.08095970e+00
1.07818233e+00
1.07421254e+00
1.07159300e+00
1.07214132e+00
1.06732888e+00
1.06389009e+00
1.06415824e+00
1.06129158e+00
1.05558211e+00
1.06830053e+00
1.08094605e+00
1.07624018e+00
1.06627503e+00
1.05108297e+00
1.04686351e+00
1.06308684e+00
1.07954243e+00
1.07202907e+00
1.05093294e+00
1.04269603e+00
1.04875682e+00
1.06120770e+00
1.06407875e+00
1.05492907e+00
1.04792046e+00
1.05724030e+00
1.06353407e+00
1.05934976e+00
1.05136151e+00
1.04999180e+00
1.06102741e+00
1.06489124e+00
1.05349537e+00
1.04496187e+00
1.05505591e+00
1.05993871e+00
1.05232542e+00
1.05437536e+00
1.05613303e+00
1.05364638e+00
1.05183254e+00
1.05307891e+00
1.05675562e+00
1.04740308e+00
1.04913468e+00
1.05091323e+00
1.05176566e+00