# vtk DataFile Version 2.0
LBM Flow Field - Timestep 160
ASCII
DATASET STRUCTURED_POINTS
DIMENSIONS 128 128 1
ORIGIN 0.0 0.0 0.0
SPACING 1.0 1.0 1.0
POINT_DATA 16384
SCALARS density double 1
LOOKUP_TABLE default
1.30887151e+00
1.28322101e+00
1.25235470e+00
1.22381213e+00
1.19499961e+00
1.16985828e+00
1.14450448e+00
1.12346962e+00
1.10246973e+00
1.08572828e+00
1.06939156e+00
1.05669726e+00
1.04479341e+00
1.03561277e+00
1.02751372e+00
1.02118120e+00
1.01605075e+00
1.01189380e+00
1.00887245e+00
1.00628923e+00
1.00463220e+00
1.00312620e+00
1.00227350e+00
1.00145999e+00
1.00104225e+00
1.00064111e+00
1.00044273e+00
1.00026497e+00
1.00017278e+00
1.00010292e+00
1.00006153e+00
1.00003729e+00
1.00001997e+00
1.00001239e+00
1.00000596e+00
1.00000368e+00
1.00000166e+00
1.00000095e+00
1.00000044e+00
1.00000021e+00
1.00000011e+00
1.00000004e+00
1.00000002e+00
1.00000001e+00
1.00000000e+00
1.00000000e+00
1.00000000e+00
1.00000000e+00
1.00000000e+00
1.00000000e+00
1.00000000e+00
1.00000000e+00
1.00000000e+00
1.00000000e+00
1.00000000e+00
1.00000000e+00
1.00000000e+00
1.00000000e+00
1.00000000e+00
1.00000000e+00
1.00000000e+00
1.00000000e+00
1.00000000e+00
1.00000000e+00
1.00000000e+00
1.00000000e+00
1.00000000e+00
1.00000000e+00
1.00000000e+00
1.00000000e+00
1.00000000e+00
1.00000000e+00
1.00000000e+00
1.00000000e+00
1.00000000e+00
1.00000000e+00
1.00000000e+00
1.00000000e+00
1.00000000e+00
1.00000000e+00
1.00000000e+00
1.00000000e+00
1.00000000e+00
1.00000000e+00
1.00000000e+00
1.00000000e+00
1.00000000e+00
1.00000000e+00
1.00000000e+00
1.00000000e+00
1.00000000e+00
1.00000000e+00
1.00000000e+00
1.00000000e+00
1.00000000e+00
1.00000000e+00
1.00000000e+00
1.00000000e+00
1.00000000e+00
1.00000000e+00
1.00000000e+00
1.00000000e+00
1.00000000e+00
1.00000000e+00
1.00000000e+00
1.00000000e+00
1.00000000e+00
1.00000000e+00
1.00000000e+00
1.00000000e+00
1.00000000e+00
1.00000000e+00
1.00000000e+00
1.00000000e+00
1.00000000e+00
1.00000000e+00
1.00000000e+00
1.00000000e+00
1.00000000e+00
1.00000000e+00
1.00000000e+00
1.00000000e+00
1.00000000e+00
1.00000000e+00
1.00000000e+00
1.00000000e+00
1.00000000e+00
1.00000000e+00
1.12348585e+00
1.11340262e+00
1.09990046e+00
1.09052687e+00
1.09549712e+00
1.09159665e+00
1.08459361e+00
1.08998805e+00
1.08614201e+00
1.08752860e+00
1.09669458e+00
1.09661027e+00
1.08977530e+00
1.09057384e+00
1.09391371e+00
1.09692714e+00
1.09304613e+00
1.09108307e+00
1.09298185e+00
1.09291602e+00
1.09493465e+00
1.09254389e+00
1.08782316e+00
1.09770822e+00
1.09263576e+00
1.08664143e+00
1.09800718e+00
1.09398117e+00
1.08409275e+00
1.09458506e+00
1.09601521e+00
1.09044322e+00
1.09049435e+00
1.09161743e+00
1.08940043e+00
1.09081258e+00
1.09126327e+00
1.09089033e+00
1.09005439e+00
1.08686297e+00
1.08784619e+00
1.09114047e+00
1.09084437e+00
1.08843403e+00
1.08686370e+00
1.08860608e+00
1.08998930e+00
1.08933839e+00
1.08772191e+00
1.08710956e+00
1.08798446e+00
1.08771358e+00
1.08653035e+00
1.08702282e+00
1.08724467e+00
1.08300678e+00
1.08408057e+00
1.08793073e+00
1.08315189e+00
1.08016631e+00
1.08398636e+00
1.08215768e+00
1.08109446e+00
1.08112139e+00
1.07575841e+00
1.07951061e+00
1.08300632e+00
1.07266879e+00
1.07367524e+00
1.08176864e+00
1.07395489e+00
1.07020981e+00
1.07406137e+00
1.07385443e+00
1.07313611e+00
1.06987918e+00
1.06740687e+00
1.07071123e+00
1.06836236e+00
1.06520385e+00
1.06285688e+00
1.06491684e+00
1.06792445e+00
1.05951188e+00
1.05059810e+00
1.05771858e+00
1.06373664e+00
1.05311086e+00
1.04287978e+00
1.04514751e+00
1.04804841e+00
1.04803140e+00
1.04621862e+00
1.03400667e+00
1.01777169e+00
1.00957260e+00
1.00293314e+00
9.98175196e-01
1.00248297e+00
1.00307527e+00
9.96983608e-01
9.98572816e-01
1.00254157e+00
1.00044637e+00
9.99273920e-01
9.99432468e-01
9.99623296e-01
1.00128886e+00
1.00042219e+00
9.98587719e-01
1.00001438e+00
1.00092712e+00
9.99834758e-01
9.99659145e-01
1.00009425e+00
1.00011032e+00
1.00000955e+00
9.99958800e-01
1.00001564e+00
1.00001998e+00
9.99979594e-01
1.00002500e+00
1.00001211e+00
9.99987316e-01
1.00001640e+00
1.00000464e+00
1.00000905e+00
1.00002052e+00
1.11698732e+00
1.11378299e+00
1.09963113e+00
1.09908620e+00
1.09182133e+00
1.08723265e+00
1.09686876e+00
1.08685995e+00
1.08292033e+00
1.09789664e+00
1.09160168e+00
1.09284157e+00
1.09577031e+00
1.09031946e+00
1.09839492e+00
1.09401847e+00
1.08902421e+00
1.09473194e+00
1.09452939e+00
1.09639976e+00
1.09332689e+00
1.08495522e+00
1.09360796e+00
1.10395193e+00
1.08334734e+00
1.08480754e+00
1.10488396e+00
1.09275701e+00
1.08443945e+00
1.09708757e+00
1.09249783e+00
1.08875291e+00
1.09231178e+00
1.09559044e+00
1.09128239e+00
1.08729825e+00
1.08974874e+00
1.09251852e+00
1.08921342e+00
1.09048615e+00
1.09229044e+00
1.08905211e+00
1.08780284e+00
1.09101923e+00
1.09134185e+00
1.09344580e+00
1.09022445e+00
1.08870487e+00
1.09074333e+00
1.09268457e+00
1.09148825e+00
1.09026083e+00
1.08933114e+00
1.08930828e+00
1.08993112e+00
1.08990322e+00
1.08706268e+00
1.08554628e+00
1.08718870e+00
1.08688529e+00
1.08579945e+00
1.08166656e+00
1.08063104e+00
1.08606089e+00
1.08027040e+00
1.07415299e+00
1.08392523e+00
1.08064031e+00
1.06996030e+00
1.07676128e+00
1.07824644e+00
1.07209733e+00
1.07247606e+00
1.07450583e+00
1.07518238e+00
1.06940310e+00
1.06495302e+00
1.07315223e+00
1.07325832e+00
1.06381646e+00
1.06047199e+00
1.06642399e+00
1.07328325e+00
1.06245342e+00
1.04470053e+00
1.04865319e+00
1.06996333e+00
1.06993044e+00
1.04653424e+00
1.03362916e+00
1.03999086e+00
1.04869932e+00
1.05098569e+00
1.04554120e+00
1.02990041e+00
1.01211941e+00
1.00537355e+00
1.00180506e+00
9.97828597e-01
1.00217791e+00
1.00314164e+00
9.96497426e-01
9.98422446e-01
1.00282072e+00
1.00060040e+00
9.99231694e-01
9.99233229e-01
9.99605913e-01
1.00150688e+00
1.00043249e+00
9.98522142e-01
9.99941172e-01
1.00084542e+00
9.99939547e-01
9.99753259e-01
1.00002639e+00
1.00007654e+00
1.00002210e+00
9.99951532e-01
1.00000665e+00
1.00001328e+00
9.99994335e-01
1.00003728e+00
1.00001219e+00
9.99990245e-01
1.00000648e+00
1.00000131e+00
1.00000719e+00
1.10391770e+00
1.10017411e+00
1.10791553e+00
1.09437607e+00
1.09148446e+00
1.10572284e+00
1.08886380e+00
1.08334318e+00
1.10044902e+00
1.09502114e+00
1.09488793e+00
1.09704868e+00
1.08414499e+00
1.09993260e+00
1.10257373e+00
1.08340324e+00
1.09291987e+00
1.09617126e+00
1.09307065e+00
1.09390330e+00
1.08861767e+00
1.09197451e+00
1.10404682e+00
1.09194423e+00
1.07920018e+00
1.10276280e+00
1.10453200e+00
1.07832247e+00
1.08992565e+00
1.10298766e+00
1.08764023e+00
1.08836406e+00
1.09361481e+00
1.09101498e+00
1.08718990e+00
1.09082366e+00
1.09651006e+00
1.09168014e+00
1.08806885e+00
1.09419558e+00
1.09194058e+00
1.09083904e+00
1.09632476e+00
1.09656198e+00
1.09211009e+00
1.09388722e+00
1.09338093e+00
1.10023426e+00
1.09936684e+00
1.09385483e+00
1.09625344e+00
1.09879549e+00
1.09770945e+00
1.09939435e+00
1.09327988e+00
1.09245637e+00
1.09781731e+00
1.09337067e+00
1.08828725e+00
1.08874119e+00
1.08916429e+00
1.08801622e+00
1.08386340e+00
1.08303852e+00
1.08350189e+00
1.08138763e+00
1.08312258e+00
1.07688514e+00
1.07399041e+00
1.08503511e+00
1.07912672e+00
1.06586453e+00
1.07315789e+00
1.08066866e+00
1.07524039e+00
1.06414431e+00
1.06428887e+00
1.07897395e+00
1.07590042e+00
1.05646908e+00
1.05792314e+00
1.07267987e+00
1.07731154e+00
1.06402299e+00
1.04403908e+00
1.04328652e+00
1.06935619e+00
1.08113273e+00
1.05463549e+00
1.02764131e+00
1.02801009e+00
1.04832591e+00
1.06174979e+00
1.05270596e+00
1.03591978e+00
1.02011466e+00
1.00567898e+00
1.00232975e+00
1.00173370e+00
9.97760098e-01
1.00154168e+00
1.00307178e+00
9.97035232e-01
9.98408399e-01
1.00208712e+00
1.00058238e+00
9.99719430e-01
9.99072764e-01
9.99430118e-01
1.00146715e+00
1.00047078e+00
9.98867485e-01
9.99932577e-01
1.00050373e+00
9.99970498e-01
9.99882253e-01
9.99981537e-01
1.00005580e+00
1.00003153e+00
9.99975181e-01
1.00002186e+00
1.00000146e+00
9.99988929e-01
1.00003176e+00
1.00000544e+00
9.99996166e-01
1.00000457e+00
9.99987584e-01
1.09845106e+00
1.10200982e+00
1.09810958e+00
1.10102743e+00
1.10799655e+00
1.09244096e+00
1.08758862e+00
1.10533458e+00
1.09609837e+00
1.08979288e+00
1.09510844e+00
1.08838164e+00
1.10002678e+00
1.10162347e+00
1.08337046e+00
1.09099310e+00
1.10159747e+00
1.09319071e+00
1.09240182e+00
1.09395908e+00
1.09428026e+00
1.09732041e+00
1.09403043e+00
1.08770262e+00
1.09447879e+00
1.10029663e+00
1.08781915e+00
1.08440704e+00
1.10073696e+00
1.09482626e+00
1.08316982e+00
1.09265801e+00
1.09396170e+00
1.09362757e+00
1.09344305e+00
1.09046313e+00
1.09383603e+00
1.09205365e+00
1.09479842e+00
1.09975706e+00
1.09497753e+00
1.09877501e+00
1.10189944e+00
1.09619372e+00
1.10148828e+00
1.11077263e+00
1.10307177e+00
1.10588822e+00
1.10595303e+00
1.10380664e+00
1.11315738e+00
1.10992375e+00
1.09920466e+00
1.10984237e+00
1.11038877e+00
1.10109993e+00
1.10457759e+00
1.10237861e+00
1.09874265e+00
1.10230155e+00
1.09471939e+00
1.08956471e+00
1.09514398e+00
1.09194115e+00
1.08091739e+00
1.08153258e+00
1.09176298e+00
1.08146569e+00
1.06744657e+00
1.08376899e+00
1.08820559e+00
1.06675341e+00
1.06800726e+00
1.08542766e+00
1.08132551e+00
1.06147666e+00
1.05764253e+00
1.08398913e+00
1.08876997e+00
1.05301577e+00
1.04307080e+00
1.07511740e+00
1.08839040e+00
1.06539169e+00
1.04168219e+00
1.04184491e+00
1.06635791e+00
1.08455304e+00
1.06483759e+00
1.03171808e+00
1.02122243e+00
1.03909414e+00
1.06679687e+00
1.06818248e+00
1.04084651e+00
1.02097737e+00
1.01215457e+00
1.00212727e+00
1.00072416e+00
1.00107146e+00
9.97349792e-01
1.00178976e+00
1.00332383e+00
9.97294577e-01
9.98419604e-01
1.00152211e+00
1.00081841e+00
1.00023344e+00
9.98773634e-01
9.99125425e-01
1.00138260e+00
1.00055673e+00
9.99163578e-01
9.99902162e-01
1.00029801e+00
1.00003187e+00
9.99942241e-01
9.99952767e-01
1.00004013e+00
1.00001637e+00
9.99991863e-01
1.00003741e+00
9.99985961e-01
9.99989629e-01
1.00002780e+00
1.00000663e+00
1.00000778e+00
9.99997548e-01
1.10859522e+00
1.10336152e+00
1.09752535e+00
1.10483722e+00
1.09774811e+00
1.09166368e+00
1.10269838e+00
1.09586288e+00
1.09130752e+00
1.09798228e+00
1.08724934e+00
1.10060416e+00
1.09993208e+00
1.08368613e+00
1.09949840e+00
1.09965678e+00
1.09543752e+00
1.09481519e+00
1.08955857e+00
1.09294817e+00
1.09717548e+00
1.09499402e+00
1.09097194e+00
1.09244917e+00
1.09172469e+00
1.09454013e+00
1.09178786e+00
1.08963070e+00
1.09824699e+00
1.09108218e+00
1.08701298e+00
1.09786068e+00
1.09563700e+00
1.09067263e+00
1.09033100e+00
1.09461778e+00
1.10421298e+00
1.09616613e+00
1.09904332e+00
1.10588212e+00
1.10175537e+00
1.10790152e+00
1.11343088e+00
1.11137824e+00
1.11629433e+00
1.11626736e+00
1.10987119e+00
1.12030692e+00
1.12284070e+00
1.11485466e+00
1.11874341e+00
1.12040734e+00
1.11548883e+00
1.11999440e+00
1.11703540e+00
1.11038228e+00
1.11941433e+00
1.11531884e+00
1.10296195e+00
1.11181593e+00
1.11191636e+00
1.09804247e+00
1.09934465e+00
1.10267090e+00
1.09381181e+00
1.08860635e+00
1.09373626e+00
1.08717870e+00
1.07371661e+00
1.08537447e+00
1.09154566e+00
1.06459113e+00
1.06449980e+00
1.09144841e+00
1.08560125e+00
1.05855504e+00
1.05586008e+00
1.08027185e+00
1.09301786e+00
1.06269295e+00
1.04186934e+00
1.06948820e+00
1.09226207e+00
1.06694967e+00
1.03698448e+00
1.04185357e+00
1.07246078e+00
1.08837226e+00
1.06322890e+00
1.02955707e+00
1.02141245e+00
1.03782443e+00
1.06509812e+00
1.07797784e+00
1.05755675e+00
1.02318009e+00
1.00913941e+00
1.00719135e+00
1.00028062e+00
1.00020918e+00
1.00076845e+00
9.96754700e-01
1.00147374e+00
1.00323787e+00
9.97891403e-01
9.98549909e-01
1.00074971e+00
1.00095195e+00
1.00085119e+00
9.98868508e-01
9.98972915e-01
1.00099842e+00
1.00046277e+00
9.99522862e-01
9.99918060e-01
1.00010414e+00
1.00004474e+00
9.99999845e-01
9.99975095e-01
1.00003384e+00
9.99998245e-01
1.00000526e+00
1.00003520e+00
9.99983328e-01
9.99986825e-01
1.00000694e+00
1.00000177e+00
1.00001909e+00
1.10186391e+00
1.09896430e+00
1.10936511e+00
1.09243931e+00
1.09140463e+00
1.10645167e+00
1.09856426e+00
1.09420304e+00
1.09791376e+00
1.09079012e+00
1.10154061e+00
1.10318727e+00
1.08210534e+00
1.10042001e+00
1.09714073e+00
1.08831639e+00
1.10066426e+00
1.09034447e+00
1.08947835e+00
1.10012005e+00
1.09371665e+00
1.08988767e+00
1.09249842e+00
1.09385590e+00
1.09865403e+00
1.09700825e+00
1.08333607e+00
1.09265226e+00
1.10378270e+00
1.08823498e+00
1.08824325e+00
1.09962270e+00
1.09397086e+00
1.09423480e+00
1.10203983e+00
1.10163455e+00
1.10308612e+00
1.10056769e+00
1.11348706e+00
1.11929415e+00
1.11372381e+00
1.11989365e+00
1.12447045e+00
1.12271664e+00
1.12513760e+00
1.12701447e+00
1.12862275e+00
1.13082279e+00
1.12577229e+00
1.12377326e+00
1.12585003e+00
1.12522895e+00
1.12375948e+00
1.12462185e+00
1.12267662e+00
1.11700717e+00
1.12056445e+00
1.12289980e+00
1.11409204e+00
1.11542384e+00
1.11735027e+00
1.10984982e+00
1.11145993e+00
1.11060048e+00
1.09818805e+00
1.09824050e+00
1.10680688e+00
1.09564942e+00
1.07641531e+00
1.08892277e+00
1.10476167e+00
1.07200486e+00
1.05641688e+00
1.09099974e+00
1.09506469e+00
1.05999708e+00
1.05380824e+00
1.07891160e+00
1.09162991e+00
1.06528591e+00
1.04143358e+00
1.06692905e+00
1.09719068e+00
1.07363533e+00
1.03568787e+00
1.03866636e+00
1.07243218e+00
1.09434240e+00
1.06767922e+00
1.02795900e+00
1.01761019e+00
1.03699780e+00
1.06694490e+00
1.07926070e+00
1.06512758e+00
1.03794872e+00
1.00940220e+00
1.00194118e+00
1.00528459e+00
1.00007154e+00
1.00060899e+00
1.00057663e+00
9.96384324e-01
1.00129135e+00
1.00301753e+00
9.98470469e-01
9.98534874e-01
9.99859966e-01
1.00104865e+00
1.00128477e+00
9.99048742e-01
9.99046954e-01
1.00066698e+00
1.00032008e+00
9.99771421e-01
9.99949912e-01
1.00002455e+00
1.00006083e+00
9.99996110e-01
9.99979999e-01
1.00002683e+00
9.99977552e-01
1.00001283e+00
1.00003800e+00
9.99991284e-01
9.99999825e-01
9.99993729e-01
9.99993245e-01
1.09478033e+00
1.10457183e+00
1.09706642e+00
1.09726902e+00
1.10604634e+00
1.10021926e+00
1.09331004e+00
1.09981810e+00
1.09337743e+00
1.09911188e+00
1.10337148e+00
1.08521140e+00
1.09338401e+00
1.09969258e+00
1.08994800e+00
1.10280686e+00
1.09128227e+00
1.08803556e+00
1.10383618e+00
1.09817362e+00
1.08419640e+00
1.09719612e+00
1.09844505e+00
1.09239481e+00
1.09443782e+00
1.08659981e+00
1.09094873e+00
1.10407518e+00
1.09441085e+00
1.08436368e+00
1.09774613e+00
1.10466272e+00
1.09719645e+00
1.10197004e+00
1.10700271e+00
1.10830954e+00
1.11828434e+00
1.11951756e+00
1.12384468e+00
1.12455913e+00
1.12357314e+00
1.13274261e+00
1.13286335e+00
1.12820981e+00
1.13074232e+00
1.13033975e+00
1.12711029e+00
1.12432490e+00
1.11999497e+00
1.12466645e+00
1.12623568e+00
1.11926901e+00
1.11439540e+00
1.11483977e+00
1.11869618e+00
1.11981590e+00
1.11532229e+00
1.11495725e+00
1.11424899e+00
1.11870527e+00
1.11880501e+00
1.10974458e+00
1.11392662e+00
1.12196887e+00
1.10739877e+00
1.10260020e+00
1.11266717e+00
1.10649963e+00
1.08605698e+00
1.09038657e+00
1.10835764e+00
1.08666794e+00
1.06027019e+00
1.08575980e+00
1.09898990e+00
1.06788716e+00
1.05721417e+00
1.07822785e+00
1.08857325e+00
1.06750007e+00
1.04529972e+00
1.06377234e+00
1.09711716e+00
1.07625059e+00
1.03422047e+00
1.03600720e+00
1.07566142e+00
1.09962427e+00
1.07204234e+00
1.02812133e+00
1.01494525e+00
1.03465802e+00
1.06926190e+00
1.08923286e+00
1.06873765e+00
1.03909646e+00
1.02067071e+00
1.00179189e+00
9.98805545e-01
1.00351922e+00
9.99716528e-01
1.00156778e+00
1.00065264e+00
9.96321212e-01
1.00115267e+00
1.00261888e+00
9.99390360e-01
9.98812572e-01
9.98966921e-01
1.00070933e+00
1.00144373e+00
9.99430576e-01
9.99275342e-01
1.00033320e+00
1.00016611e+00
9.99937473e-01
9.99960349e-01
9.99999287e-01
1.00006428e+00
1.00000024e+00
1.00001070e+00
1.00001142e+00
9.99959375e-01
1.00000740e+00
1.00002209e+00
1.00000416e+00
1.00000615e+00
9.99984144e-01
1.10624395e+00
1.09930285e+00
1.09431737e+00
1.10354728e+00
1.10289643e+00
1.09407216e+00
1.09402831e+00
1.09918669e+00
1.09580548e+00
1.10040896e+00
1.08956914e+00
1.09937520e+00
1.10028053e+00
1.09339458e+00
1.10130634e+00
1.08941313e+00
1.09140291e+00
1.10171247e+00
1.09710646e+00
1.08911308e+00
1.08935804e+00
1.09961833e+00
1.09036189e+00
1.09229966e+00
1.09644084e+00
1.09503101e+00
1.09470883e+00
1.09511431e+00
1.09400149e+00
1.09667698e+00
1.10477593e+00
1.10827421e+00
1.10041653e+00
1.11037493e+00
1.12533142e+00
1.12685758e+00
1.12428735e+00
1.12517479e+00
1.13582810e+00
1.13886092e+00
1.12976468e+00
1.13034453e+00
1.13010380e+00
1.12338221e+00
1.12425107e+00
1.11971798e+00
1.11131353e+00
1.11872712e+00
1.11777177e+00
1.10510108e+00
1.10394457e+00
1.10649208e+00
1.10951686e+00
1.11205927e+00
1.10231430e+00
1.09966786e+00
1.10741194e+00
1.10873726e+00
1.10392854e+00
1.10784023e+00
1.11056831e+00
1.10569880e+00
1.11020071e+00
1.11731279e+00
1.10624573e+00
1.10763348e+00
1.12273559e+00
1.11305316e+00
1.09264830e+00
1.09628273e+00
1.11376116e+00
1.09986760e+00
1.07132114e+00
1.08383812e+00
1.10008513e+00
1.07058989e+00
1.05868749e+00
1.08299368e+00
1.09084678e+00
1.06655980e+00
1.04932980e+00
1.06287185e+00
1.09340226e+00
1.08122989e+00
1.04130684e+00
1.03308548e+00
1.06938921e+00
1.10074249e+00
1.07777750e+00
1.03073336e+00
1.01329685e+00
1.03173225e+00
1.06916406e+00
1.09515728e+00
1.08239222e+00
1.04140636e+00
1.01831320e+00
1.01178425e+00
9.98495559e-01
9.97880415e-01
1.00182504e+00
9.99051960e-01
1.00239898e+00
1.00040531e+00
9.96376312e-01
1.00074687e+00
1.00225780e+00
1.00048114e+00
9.99242432e-01
9.98465117e-01
1.00037118e+00
1.00118551e+00
9.99685955e-01
9.99597123e-01
1.00016441e+00
1.00007852e+00
1.00001285e+00
9.99962702e-01
9.99984352e-01
1.00003660e+00
9.99993366e-01
1.00002566e+00
1.00001290e+00
9.99969394e-01
1.00000075e+00
1.00000898e+00
1.00000737e+00
1.00001119e+00
1.09852581e+00
1.09469420e+00
1.10522789e+00
1.09558858e+00
1.09638968e+00
1.09503590e+00
1.09883274e+00
1.10129813e+00
1.09736329e+00
1.09712913e+00
1.09577621e+00
1.09655890e+00
1.09515412e+00
1.10575942e+00
1.08725003e+00
1.08903559e+00
1.10341005e+00
1.09056668e+00
1.09476073e+00
1.09459241e+00
1.09333643e+00
1.09877110e+00
1.09565990e+00
1.09225678e+00
1.09327704e+00
1.09442962e+00
1.09488719e+00
1.10400148e+00
1.09582859e+00
1.09836822e+00
1.11567318e+00
1.11679696e+00
1.11104672e+00
1.13388831e+00
1.13845733e+00
1.12311030e+00
1.13275015e+00
1.14242397e+00
1.13393831e+00
1.12674475e+00
1.12084018e+00
1.12488550e+00
1.12272314e+00
1.10719601e+00
1.11107102e+00
1.11657246e+00
1.10155075e+00
1.10298532e+00
1.10238529e+00
1.09503339e+00
1.10887666e+00
1.10310180e+00
1.08725054e+00
1.09801295e+00
1.09773497e+00
1.09483753e+00
1.10352479e+00
1.09335189e+00
1.08930396e+00
1.10452485e+00
1.10163648e+00
1.09083464e+00
1.10431327e+00
1.11466910e+00
1.09688521e+00
1.09306029e+00
1.11733612e+00
1.11924584e+00
1.10145153e+00
1.09995671e+00
1.11068241e+00
1.10629690e+00
1.08704877e+00
1.09171783e+00
1.10394726e+00
1.07871764e+00
1.06034464e+00
1.08450302e+00
1.09206424e+00
1.06589373e+00
1.05057315e+00
1.06840383e+00
1.09265171e+00
1.07927998e+00
1.04302753e+00
1.03819854e+00
1.06898057e+00
1.09943525e+00
1.08312126e+00
1.03469892e+00
1.01146745e+00
1.02634787e+00
1.06770037e+00
1.10006540e+00
1.08875445e+00
1.05326115e+00
1.01790989e+00
1.00677882e+00
1.00822085e+00
9.98589866e-01
9.98239970e-01
1.00068088e+00
9.98896933e-01
1.00280334e+00
1.00035935e+00
9.96731940e-01
9.99728548e-01
1.00138975e+00
1.00138891e+00
9.99862522e-01
9.98495523e-01
1.00006503e+00
1.00078471e+00
9.99878422e-01
9.99816665e-01
1.00002537e+00
1.00004622e+00
1.00006200e+00
9.99963009e-01
1.00000383e+00
1.00001108e+00
9.99971589e-01
1.00003519e+00
1.00001532e+00
9.99977003e-01
9.99997362e-01
9.99988208e-01
1.00001085e+00
1.09403482e+00
1.10674461e+00
1.09516475e+00
1.09873822e+00
1.09841651e+00
1.09994388e+00
1.10346043e+00
1.09598854e+00
1.09305233e+00
1.09325969e+00
1.09973126e+00
1.09523346e+00
1.09924980e+00
1.09137312e+00
1.08864486e+00
1.10612289e+00
1.09731486e+00
1.09261759e+00
1.09370162e+00
1.09328151e+00
1.09859761e+00
1.09986242e+00
1.08650732e+00
1.08921544e+00
1.10248555e+00
1.09840186e+00
1.10013018e+00
1.09973975e+00
1.10207727e+00
1.12428850e+00
1.12964175e+00
1.12011287e+00
1.12615482e+00
1.14469665e+00
1.13551665e+00
1.12774679e+00
1.14171372e+00
1.12960219e+00
1.11322336e+00
1.12202957e+00
1.11855526e+00
1.11010297e+00
1.10938144e+00
1.10134955e+00
1.10408258e+00
1.10593521e+00
1.09396869e+00
1.10511163e+00
1.10861988e+00
1.09497753e+00
1.10281460e+00
1.10155318e+00
1.09463172e+00
1.11009806e+00
1.10102246e+00
1.09020386e+00
1.10370209e+00
1.09471929e+00
1.08853545e+00
1.10611580e+00
1.09628483e+00
1.07910300e+00
1.09489561e+00
1.10959992e+00
1.09343189e+00
1.08797889e+00
1.10690482e+00
1.10886052e+00
1.09541518e+00
1.10444062e+00
1.11596026e+00
1.10516812e+00
1.09007614e+00
1.09922225e+00
1.11115044e+00
1.08639120e+00
1.06451919e+00
1.08796399e+00
1.09887739e+00
1.06866632e+00
1.05128119e+00
1.06698980e+00
1.09185172e+00
1.08193263e+00
1.04446854e+00
1.03838764e+00
1.07024997e+00
1.09860269e+00
1.08333840e+00
1.04129151e+00
1.01616439e+00
1.02630947e+00
1.06190015e+00
1.10302519e+00
1.09924980e+00
1.05634649e+00
1.02574481e+00
1.00378198e+00
1.00144926e+00
1.00590122e+00
9.98832831e-01
9.99408381e-01
9.99488053e-01
9.98864187e-01
1.00344753e+00
1.00082394e+00
9.97494436e-01
9.98830026e-01
1.00036780e+00
1.00156317e+00
1.00030042e+00
9.98908256e-01
9.99960152e-01
1.00042268e+00
9.99973752e-01
9.99941637e-01
9.99971366e-01
1.00003780e+00
1.00003513e+00
9.99978923e-01
1.00002636e+00
9.99981498e-01
9.99969221e-01
1.00003236e+00
1.00000976e+00
1.00000423e+00
9.99992447e-01
9.99975204e-01
1.10649474e+00
1.09407315e+00
1.09721226e+00
1.10414965e+00
1.09920374e+00
1.09793203e+00
1.09218398e+00
1.09759384e+00
1.09513135e+00
1.10033274e+00
1.09852419e+00
1.09369008e+00
1.09549286e+00
1.09464137e+00
1.10333869e+00
1.09738549e+00
1.09556640e+00
1.08616695e+00
1.09502702e+00
1.10377433e+00
1.09333744e+00
1.08867169e+00
1.09066508e+00
1.10635043e+00
1.10050701e+00
1.09601435e+00
1.10898788e+00
1.11336730e+00
1.12569544e+00
1.12763937e+00
1.12696413e+00
1.13473050e+00
1.14178666e+00
1.14431308e+00
1.12950010e+00
1.12008207e+00
1.12821224e+00
1.11818173e+00
1.11030336e+00
1.11452237e+00
1.10560905e+00
1.10213670e+00
1.10482447e+00
1.10415517e+00
1.11299182e+00
1.10975384e+00
1.10083131e+00
1.11167867e+00
1.11233346e+00
1.10522573e+00
1.11331907e+00
1.11333946e+00
1.10872572e+00
1.11380685e+00
1.10565989e+00
1.10183624e+00
1.11872781e+00
1.10766564e+00
1.09277986e+00
1.10891665e+00
1.10716311e+00
1.08256721e+00
1.09332774e+00
1.10940568e+00
1.09057817e+00
1.07730846e+00
1.09894078e+00
1.10676941e+00
1.09013089e+00
1.09353050e+00
1.11261460e+00
1.10574519e+00
1.09380046e+00
1.10040923e+00
1.11468289e+00
1.09644187e+00
1.07068389e+00
1.08789910e+00
1.10574922e+00
1.07398013e+00
1.05156566e+00
1.06960885e+00
1.09516744e+00
1.08436279e+00
1.04623291e+00
1.03645338e+00
1.06761700e+00
1.10157463e+00
1.08591520e+00
1.04125565e+00
1.01630955e+00
1.02662221e+00
1.06376085e+00
1.10094152e+00
1.10731763e+00
1.06686981e+00
1.02631506e+00
1.01200936e+00
9.97844255e-01
9.99704480e-01
1.00428738e+00
9.98842215e-01
1.00011042e+00
9.98352517e-01
9.98372898e-01
1.00315234e+00
1.00161851e+00
9.98974260e-01
9.98415219e-01
9.99476614e-01
1.00130866e+00
1.00043018e+00
9.99343375e-01
9.99956753e-01
1.00018078e+00
1.00001618e+00
9.99994756e-01
9.99950586e-01
1.00002433e+00
1.00002308e+00
1.00000100e+00
1.00003186e+00
9.99975677e-01
9.99976332e-01
1.00000285e+00
1.00000527e+00
1.00001958e+00
9.99995611e-01
1.09829089e+00
1.09545107e+00
1.10385116e+00
1.09072137e+00
1.10127666e+00
1.09452930e+00
1.10007442e+00
1.10169196e+00
1.09488967e+00
1.10642091e+00
1.09217293e+00
1.09380878e+00
1.09912316e+00
1.09644516e+00
1.09253457e+00
1.09667940e+00
1.09075018e+00
1.09391737e+00
1.10873823e+00
1.08649073e+00
1.09054667e+00
1.10233621e+00
1.10268120e+00
1.09966285e+00
1.10009080e+00
1.11128958e+00
1.12024392e+00
1.12454018e+00
1.13305291e+00
1.13710757e+00
1.14068344e+00
1.13944170e+00
1.13518613e+00
1.12898520e+00
1.11447885e+00
1.11548599e+00
1.12723781e+00
1.10433527e+00
1.09682466e+00
1.10905079e+00
1.11191885e+00
1.11503884e+00
1.11257794e+00
1.10865752e+00
1.11939384e+00
1.11449134e+00
1.11591352e+00
1.12416978e+00
1.11370246e+00
1.11308791e+00
1.12266447e+00
1.11463189e+00
1.11072412e+00
1.11913444e+00
1.11929485e+00
1.11190247e+00
1.11916490e+00
1.11241035e+00
1.09594784e+00
1.11534242e+00
1.12828202e+00
1.09272633e+00
1.08565999e+00
1.11183808e+00
1.10102790e+00
1.08331785e+00
1.09489577e+00
1.09801150e+00
1.07921619e+00
1.08972690e+00
1.11013324e+00
1.09914696e+00
1.08666043e+00
1.10232290e+00
1.11673141e+00
1.10349199e+00
1.07701580e+00
1.08942051e+00
1.10976526e+00
1.08516302e+00
1.05431664e+00
1.06559820e+00
1.09586791e+00
1.08884543e+00
1.05074404e+00
1.03803675e+00
1.06722167e+00
1.09964567e+00
1.09243970e+00
1.04618341e+00
1.01494524e+00
1.02342159e+00
1.06184033e+00
1.10680136e+00
1.10713783e+00
1.07327241e+00
1.03130929e+00
1.01095355e+00
1.00621674e+00
9.96584867e-01
9.99854180e-01
1.00270895e+00
1.00026143e+00
1.00108479e+00
9.97289623e-01
9.97726955e-01
1.00184730e+00
1.00185884e+00
1.00038195e+00
9.98669485e-01
9.99206049e-01
1.00081782e+00
1.00031141e+00
9.99716854e-01
9.99978971e-01
1.00003084e+00
1.00007391e+00
1.00000202e+00
9.99932695e-01
1.00002573e+00
9.99995486e-01
9.99999598e-01
1.00004045e+00
9.99997413e-01
9.99980435e-01
9.99985403e-01
9.99998667e-01
1.00002482e+00
1.09206832e+00
1.10551838e+00
1.09233765e+00
1.10541694e+00
1.09673394e+00
1.09522771e+00
1.10556105e+00
1.09252607e+00
1.10050552e+00
1.09569443e+00
1.09006919e+00
1.10028591e+00
1.09735741e+00
1.09445258e+00
1.09757917e+00
1.09641595e+00
1.09238691e+00
1.10700029e+00
1.09260648e+00
1.08868894e+00
1.10352930e+00
1.09628609e+00
1.09846097e+00
1.10949056e+00
1.11533678e+00
1.11829809e+00
1.13299178e+00
1.14039762e+00
1.14451091e+00
1.13813595e+00
1.13095859e+00
1.13384971e+00
1.12678064e+00
1.11799725e+00
1.10886177e+00
1.11218950e+00
1.11494723e+00
1.09732452e+00
1.11571867e+00
1.12991139e+00
1.11022369e+00
1.10907218e+00
1.12289689e+00
1.12124815e+00
1.12477905e+00
1.11072698e+00
1.11102601e+00
1.12275830e+00
1.11262877e+00
1.11083916e+00
1.11765727e+00
1.10864972e+00
1.10794776e+00
1.11690886e+00
1.10883043e+00
1.09649822e+00
1.11207013e+00
1.12177406e+00
1.09387835e+00
1.09957669e+00
1.12241391e+00
1.10006886e+00
1.09382043e+00
1.12062162e+00
1.10042375e+00
1.07924597e+00
1.10151124e+00
1.11108143e+00
1.07948721e+00
1.07487256e+00
1.10222100e+00
1.10083693e+00
1.08135588e+00
1.09080246e+00
1.11181525e+00
1.10602755e+00
1.08398701e+00
1.09110802e+00
1.11288130e+00
1.09474734e+00
1.06310009e+00
1.06532555e+00
1.09329254e+00
1.09519362e+00
1.05689812e+00
1.03428957e+00
1.06410883e+00
1.09971144e+00
1.09456470e+00
1.05511555e+00
1.01871077e+00
1.02096440e+00
1.05822423e+00
1.10902514e+00
1.12037796e+00
1.07325413e+00
1.03425321e+00
1.01039363e+00
1.00455073e+00
1.00358193e+00
9.96202727e-01
9.99908463e-01
1.00118567e+00
1.00138120e+00
1.00255481e+00
9.98056067e-01
9.97366145e-01
1.00002325e+00
1.00152082e+00
1.00107393e+00
9.99191057e-01
9.99332720e-01
1.00040553e+00
1.00018223e+00
9.99921274e-01
9.99928062e-01
9.99998403e-01
1.00009827e+00
9.99984577e-01
9.99972889e-01
1.00002890e+00
9.99965319e-01
9.99992128e-01
1.00002933e+00
1.00000638e+00
9.99999585e-01
9.99972732e-01
9.99995420e-01
1.10598840e+00
1.09628215e+00
1.09854047e+00
1.10231799e+00
1.08934136e+00
1.10625675e+00
1.09217605e+00
1.09469340e+00
1.09709630e+00
1.09322767e+00
1.10295347e+00
1.10270333e+00
1.09646743e+00
1.09361629e+00
1.09592720e+00
1.09575887e+00
1.09982766e+00
1.09298662e+00
1.09256139e+00
1.09906356e+00
1.09385442e+00
1.10778939e+00
1.11488768e+00
1.11861418e+00
1.11963871e+00
1.13906074e+00
1.14869142e+00
1.13687054e+00
1.13668563e+00
1.12976176e+00
1.13125741e+00
1.12602195e+00
1.10780679e+00
1.10815119e+00
1.11023240e+00
1.11526367e+00
1.12185068e+00
1.11228407e+00
1.11905597e+00
1.12643819e+00
1.11544309e+00
1.12147509e+00
1.12510563e+00
1.10760050e+00
1.11245301e+00
1.11476974e+00
1.10870379e+00
1.11000292e+00
1.10330160e+00
1.09890268e+00
1.10937253e+00
1.10271302e+00
1.09585573e+00
1.10263539e+00
1.09571859e+00
1.08361414e+00
1.10466830e+00
1.11020817e+00
1.07901633e+00
1.08568962e+00
1.11699514e+00
1.09828169e+00
1.08478036e+00
1.10952862e+00
1.10798287e+00
1.08804804e+00
1.09712964e+00
1.10497061e+00
1.09070852e+00
1.08278067e+00
1.09605590e+00
1.09411455e+00
1.07941558e+00
1.08702705e+00
1.10566816e+00
1.10183735e+00
1.08561092e+00
1.09099319e+00
1.11089380e+00
1.09964432e+00
1.07178493e+00
1.07325808e+00
1.09178461e+00
1.09447169e+00
1.06521815e+00
1.04034612e+00
1.05894470e+00
1.09832929e+00
1.09717637e+00
1.05609513e+00
1.02421651e+00
1.01919654e+00
1.05621767e+00
1.10565584e+00
1.12816114e+00
1.08821087e+00
1.03360631e+00
1.01283057e+00
1.00193395e+00
1.00275835e+00
1.00246686e+00
9.96900276e-01
9.98547520e-01
9.99008086e-01
1.00167196e+00
1.00312958e+00
9.99716640e-01
9.98092553e-01
9.98886377e-01
1.00076568e+00
1.00108380e+00
9.99661035e-01
9.99591310e-01
1.00014244e+00
1.00012800e+00
1.00000783e+00
9.99910190e-01
9.99983850e-01
1.00007018e+00
9.99979382e-01
1.00000721e+00
1.00003310e+00
9.99974594e-01
9.99980324e-01
9.99998455e-01
1.00002763e+00
1.00000739e+00
9.99967990e-01
1.09891445e+00
1.09179750e+00
1.10313162e+00
1.09111312e+00
1.10498411e+00
1.09351763e+00
1.09311100e+00
1.10610595e+00
1.09391600e+00
1.10579475e+00
1.09317458e+00
1.09449046e+00
1.09663758e+00
1.09359294e+00
1.10011929e+00
1.09651828e+00
1.09042645e+00
1.09560129e+00
1.10348041e+00
1.09674497e+00
1.11264939e+00
1.11668968e+00
1.10887095e+00
1.13101610e+00
1.14027293e+00
1.15045944e+00
1.13603260e+00
1.13177580e+00
1.13831421e+00
1.12652232e+00
1.11471210e+00
1.11099549e+00
1.10762631e+00
1.11736997e+00
1.12339442e+00
1.11541156e+00
1.11570601e+00
1.11954213e+00
1.13070475e+00
1.12516664e+00
1.10935894e+00
1.11020651e+00
1.12112822e+00
1.10378993e+00
1.10098152e+00
1.10712408e+00
1.10344508e+00
1.10475339e+00
1.10705656e+00
1.09867538e+00
1.10508997e+00
1.09577673e+00
1.08876128e+00
1.10898387e+00
1.10250588e+00
1.07515781e+00
1.08742976e+00
1.10195157e+00
1.08468380e+00
1.08456853e+00
1.09639975e+00
1.09083489e+00
1.08308019e+00
1.09977414e+00
1.10140198e+00