# vtk DataFile Version 2.0
LBM Flow Field - Timestep 1060
ASCII
DATASET STRUCTURED_POINTS
DIMENSIONS 128 128 1
ORIGIN 0.0 0.0 0.0
SPACING 1.0 1.0 1.0
POINT_DATA 16384
SCALARS density double 1
LOOKUP_TABLE default
1.32188780e+00
1.31176730e+00
1.29970099e+00
1.28766534e+00
1.27576577e+00
1.26392070e+00
1.25228217e+00
1.24072563e+00
1.22943568e+00
1.21825871e+00
1.20739625e+00
1.19668074e+00
1.18631452e+00
1.17613142e+00
1.16631891e+00
1.15672683e+00
1.14751347e+00
1.13855778e+00
1.12997671e+00
1.12168912e+00
1.11376126e+00
1.10615990e+00
1.09889444e+00
1.09198440e+00
1.08537955e+00
1.07915381e+00
1.07319788e+00
1.06763859e+00
1.06231120e+00
1.05739116e+00
1.05266463e+00
1.04834901e+00
1.04418977e+00
1.04043782e+00
1.03680788e+00
1.03357471e+00
1.03043299e+00
1.02767124e+00
1.02497491e+00
1.02263627e+00
1.02034190e+00
1.01837849e+00
1.01644304e+00
1.01480853e+00
1.01319024e+00
1.01184077e+00
1.01049984e+00
1.00939470e+00
1.00829378e+00
1.00739587e+00
1.00650048e+00
1.00577654e+00
1.00505528e+00
1.00447596e+00
1.00390066e+00
1.00344044e+00
1.00298615e+00
1.00262314e+00
1.00226803e+00
1.00198370e+00
1.00170899e+00
1.00148784e+00
1.00127752e+00
1.00110670e+00
1.00094736e+00
1.00081636e+00
1.00069688e+00
1.00059715e+00
1.00050849e+00
1.00043315e+00
1.00036800e+00
1.00031155e+00
1.00026413e+00
1.00022220e+00
1.00018800e+00
1.00015715e+00
1.00013269e+00
1.00011021e+00
1.00009285e+00
1.00007665e+00
1.00006441e+00
1.00005286e+00
1.00004429e+00
1.00003615e+00
1.00003019e+00
1.00002452e+00
1.00002039e+00
1.00001650e+00
1.00001364e+00
1.00001101e+00
1.00000905e+00
1.00000728e+00
1.00000595e+00
1.00000478e+00
1.00000387e+00
1.00000311e+00
1.00000250e+00
1.00000200e+00
1.00000160e+00
1.00000128e+00
1.00000101e+00
1.00000081e+00
1.00000064e+00
1.00000051e+00
1.00000040e+00
1.00000032e+00
1.00000024e+00
1.00000019e+00
1.00000015e+00
1.00000012e+00
1.00000009e+00
1.00000007e+00
1.00000005e+00
1.00000004e+00
1.00000003e+00
1.00000003e+00
1.00000002e+00
1.00000001e+00
1.00000001e+00
1.00000001e+00
1.00000001e+00
1.00000001e+00
1.00000000e+00
1.00000000e+00
1.00000000e+00
1.00000000e+00
1.00000000e+00
1.00000000e+00
-4.05783165e+201
2.22138341e+202
-8.12455010e+202
-6.81696629e+202
-7.91985534e+202
1.65805436e+202
1.37067122e+202
-9.63738856e+200
-7.54173147e+202
-1.80871498e+203
-5.18432288e+202
-8.81054710e+204
-3.26353530e+204
-1.33225842e+205
-5.88391055e+205
9.70563249e+205
-4.80865583e+204
-2.17470269e+205
1.61303866e+207
8.81009706e+206
-3.09675886e+206
3.69352945e+205
1.89901540e+205
-3.31154041e+205
-1.02651721e+205
-4.36293030e+205
-2.34019503e+205
8.41013305e+204
2.84775027e+205
-8.26064253e+205
7.28301359e+205
4.16574443e+206
1.75217536e+207
-2.86090354e+207
-2.32771723e+207
-2.13811814e+207
4.63992845e+206
-3.46647607e+206
-4.39211136e+206
2.40726189e+206
5.67483044e+205
-9.35359685e+204
2.52730896e+205
-3.46901526e+206
2.42268705e+206
2.78521885e+206
1.08339839e+207
-6.24688809e+207
1.17790415e+208
-2.57171489e+207
6.24877421e+207
-1.43828404e+208
6.79630464e+207
1.21780518e+207
-1.48209057e+205
-4.18236958e+205
-8.83359046e+205
-1.26425973e+206
1.48865452e+205
-6.98080551e+205
-4.96988585e+205
-2.36806899e+206
-7.10850317e+206
-2.93905219e+206
-2.91816983e+206
-8.60488788e+204
2.91834911e+205
-1.88750083e+205
-4.08371163e+205
4.36366974e+204
-1.37786248e+207
-7.33924141e+206
3.20741598e+206
-2.24954880e+205
1.42305682e+205
1.26885121e+205
-1.85474740e+205
9.23880491e+204
-4.48717725e+203
1.11981671e+204
2.90868378e+203
-1.12182999e+204
2.36492425e+203
4.24292725e+203
2.44231281e+203
-3.75284789e+203
8.06799121e+202
1.77085470e+202
5.11125096e+202
-4.43787972e+202
1.23402558e+202
-3.95838391e+202
-1.19820274e+203
-3.60019739e+203
-2.25890157e+203
-3.80642372e+202
1.08623237e+203
-6.59546412e+201
4.86400053e+202
1.10495141e+201
-3.12899430e+203
3.69566243e+203
-1.13869015e+203
3.15451403e+201
-3.79207251e+201
-4.20003941e+201
5.48785765e+201
5.14554314e+200
3.74573478e+202
-7.41349907e+202
3.54400139e+202
2.21240857e+201
-1.56624401e+200
5.95500277e+199
-1.20062446e+199
-9.02249026e+197
-3.90335807e+198
1.35746588e+198
2.14575007e+198
2.06057675e+197
1.56531840e+198
-6.82268678e+197
4.24127145e+197
8.27115648e+196
-1.29294632e+196
-4.35884724e+195
2.31479381e+195
-1.27212840e+194
-2.25208557e+199
1.11462341e+204
1.20470665e+204
-8.16204992e+204
-1.56249563e+202
-1.20457504e+203
3.41086149e+202
-2.71651228e+202
-2.01936738e+203
-7.87588555e+203
-9.32580572e+203
-1.55359397e+205
-1.24301292e+205
2.21658198e+205
-5.26346802e+205
2.70020042e+205
-7.23119635e+205
1.13869883e+206
3.75820061e+206
-5.08440368e+207
3.44822273e+206
-3.13909613e+205
-2.68403630e+205
1.04255195e+206
1.22912630e+206
-1.01227000e+206
3.36502368e+205
-4.62918531e+205
-1.43189940e+206
-2.02536556e+206
4.07114866e+206
-1.31318608e+206
-8.19370346e+204
-1.19127334e+207
-1.19584043e+207
1.23026641e+208
7.08603830e+206
8.16046280e+205
-1.65403739e+206
1.39488738e+206
6.47751165e+205
2.95316284e+206
7.26633822e+206
5.82980058e+206
9.25250548e+206
-1.13757234e+207
7.31857300e+206
1.20776600e+207
-9.63333121e+207
-7.55836792e+208
-5.30180013e+207
2.49229982e+208
8.77961306e+207
-8.83094421e+206
-4.55769578e+206
-4.36646837e+205
-1.24010588e+206
1.69283257e+206
3.34660023e+204
-1.74780084e+205
3.04076501e+206
-3.03164792e+206
1.17456477e+207
6.02238652e+206
2.74038184e+206
4.40880996e+205
-1.90519175e+206
-1.42538799e+206
-3.95772372e+206
-1.52466012e+205
-1.05005387e+207
6.19149289e+207
-4.55280627e+206
-3.74399002e+206
-2.37740560e+205
-6.30198625e+204
5.28571378e+204
1.39768993e+205
-3.22731703e+202
-3.63446877e+204
5.33407693e+204
9.52434404e+203
-9.61535351e+203
-6.47489637e+204
1.96591045e+204
4.74812394e+204
-3.39596748e+202
-1.60638520e+203
-2.99625547e+203
-1.17140692e+203
-3.62622965e+204
9.42166809e+203
6.50137683e+203
4.17020460e+203
1.55994425e+203
-2.85786990e+203
1.25980287e+201
-5.06252523e+202
-7.74864683e+202
2.78617414e+202
-8.48952635e+203
1.67126506e+204
-7.66106259e+203
-8.68482603e+201
-4.12000713e+201
-6.65588842e+201
1.04023103e+202
-7.25025596e+201
8.11799089e+201
-1.67632188e+202
4.65890266e+201
3.45505873e+201
-1.24541206e+201
8.78840984e+200
-1.93995495e+200
5.62915277e+199
-7.07476965e+198
-1.21343172e+198
1.98315364e+198
-2.07428623e+198
1.89334140e+198
-2.52186167e+198
3.36903480e+197
6.66119258e+197
-3.39126613e+197
1.35493933e+196
-3.28835299e+196
-7.29927387e+196
-1.97788629e+203
-7.63039603e+204
2.77498554e+205
-8.07511261e+204
9.35581151e+202
-9.39770086e+202
2.12436875e+203
3.98845257e+202
-3.99570412e+203
-4.36140266e+203
5.09193541e+204
1.43011306e+206
3.82376112e+206
1.41964999e+207
-1.76756055e+207
1.38231555e+207
-1.07181500e+207
1.21148823e+207
-6.51966552e+206
5.37921654e+206
1.65716336e+207
-4.64705651e+206
-5.85095632e+206
-5.34625156e+206
-5.18864548e+206
-4.19546745e+206
-4.88430194e+206
6.63558374e+206
-9.92963699e+206
-4.01048787e+205
8.83002514e+206
-9.51309709e+206
1.41944926e+207
4.44104423e+206
1.19399448e+206
-1.76057812e+207
-3.56805080e+207
-1.01271485e+206
-1.08869144e+206
-5.18856207e+205
-1.83857980e+206
-3.26637166e+206
-7.99297180e+206
-1.00920362e+207
-3.80707790e+206
1.22027711e+207
-7.60208957e+206
6.88901562e+207
2.12167819e+208
1.40427822e+209
5.62595485e+208
-3.24860914e+208
-2.43746827e+208
9.99440529e+206
-2.91535447e+207
7.47345593e+206
9.21364282e+204
1.21796856e+206
1.09603476e+207
1.76484643e+206
1.54084455e+206
8.22817772e+204
6.89207861e+206
-4.74975412e+206
3.23782512e+206
4.07682575e+205
1.30092541e+205
3.35090074e+206
4.85198546e+206
4.58358240e+207
3.28407311e+207
4.54504556e+207
1.95000606e+207
1.45439150e+206
-2.08619459e+206
1.19539238e+206
-1.02550806e+206
6.44549789e+204
1.52656902e+205
1.03829788e+205
5.39849423e+204
1.22227268e+204
1.02340809e+205
9.78631546e+204
-2.02812865e+205
4.61091887e+204
-5.84391259e+203
2.13161265e+203
3.39344102e+203
6.84940004e+202
-3.00078842e+204
1.12043465e+205
-3.32865586e+204
-1.32090272e+203
3.23757354e+203
-1.22401302e+203
-2.66477797e+202
2.67116472e+203
-6.17823231e+201
9.93373793e+202
-1.38700819e+203
2.32727199e+202
2.95377124e+203
1.36311316e+204
7.89547884e+201
-8.70059353e+201
1.07411396e+201
1.51533411e+202
-1.07190733e+202
-2.02049680e+202
-5.94896740e+201
-3.06807626e+201
-2.97105913e+201
1.87805113e+201
-9.20169702e+200
1.79854180e+200
9.08946999e+198
-8.24844280e+198
8.46783028e+198
-1.24161828e+198
-2.87634595e+198
-4.63412423e+197
1.38590288e+198
4.91368867e+198
5.54682553e+196
-7.28879729e+196
3.35975957e+196
1.40283133e+197
-8.33439843e+203
-6.41369086e+204
1.26894093e+203
1.14000684e+204
-7.28202802e+201
-1.08892465e+203
7.62722992e+202
-3.48567720e+204
-9.83259364e+204
3.17591698e+205
1.61486220e+206
4.75230130e+206
1.65900177e+207
2.28137589e+207
-5.93971508e+207
1.46017358e+207
-3.80808306e+207
1.00863889e+208
6.00739306e+207
2.67268254e+207
9.75836797e+206
-2.93871287e+205
8.29101615e+206
1.15715188e+207
2.85477541e+206
-1.47846221e+207
-3.61115085e+206
-3.27498391e+207
-7.75633875e+207
-8.50169932e+206
-5.27106713e+206
-1.63331653e+207
-1.82870437e+207
2.56187751e+206
2.36655643e+207
1.36518699e+207
7.82852130e+205
-1.38039652e+207
1.46433216e+206
-9.28213916e+206
5.40873021e+206
-8.26575205e+205
2.50451739e+206
7.97685269e+206
-9.60355540e+206
2.60725310e+206
-2.42882700e+206
1.88986123e+207
-1.83368270e+208
-1.49184002e+209
-7.99815452e+208
-1.75654550e+208
2.82026506e+208
-1.54212491e+208
5.41715944e+206
-1.28878961e+207
-1.04807662e+207
-5.64917281e+206
2.32212284e+208
1.39238690e+208
-4.18776493e+207
6.62115876e+206
-2.48338619e+206
4.73203672e+206
1.15627612e+207
-1.34121139e+206
5.27061035e+206
1.15418605e+207
9.87333200e+206
-6.27339907e+207
-8.65216408e+207
-6.82570410e+207
-7.99607662e+206
4.42258950e+207
4.77482597e+205
6.87267526e+206
-8.71964467e+205
7.84022497e+205
1.23530078e+205
-4.41399124e+205
9.82726637e+204
5.74864670e+205
4.44753496e+205
7.29410882e+205
2.81350202e+204
4.02370766e+204
1.83861360e+203
2.34102935e+204
-3.51940123e+203
-7.40877046e+203
6.48795502e+203
4.11113400e+203
-2.67116502e+204
-2.19103617e+202
2.52964211e+203
-2.77285800e+203
-2.02832443e+203
-3.79623408e+202
1.43073339e+202
1.69420166e+203
-2.55642140e+203
6.15097316e+203
-4.43821935e+204
6.56369045e+203
-1.38953917e+202
-1.64840385e+201
1.10652799e+202
-2.12775393e+201
5.40892164e+202
6.78814928e+200
1.81831175e+202
-3.68311633e+203
-3.31988907e+203
5.76841255e+202
-4.50277412e+200
3.01383715e+199
3.69897163e+199
-3.57548368e+199
5.89240044e+198
-3.87116100e+198
-4.61057332e+198
5.04942431e+197
-9.96175083e+198
-7.31407691e+197
5.42770467e+198
-1.95373665e+196
1.98158050e+196
-3.44260678e+196
-3.14107698e+203
1.06893513e+204
-5.71454198e+203
5.01608390e+202
8.32514956e+202
-7.78837517e+201
-2.03221427e+204
-2.04575130e+204
6.02547240e+204
2.06515433e+206
4.06434936e+206
6.15179201e+207
2.69932651e+208
2.82690939e+208
-1.51705259e+209
1.93564139e+209
-1.36765970e+207
-5.23551951e+207
-1.45671632e+208
-1.78423677e+207
1.36606066e+207
1.70585191e+207
-1.60709177e+207
1.18158137e+207
4.26654273e+206
-1.06480043e+207
2.42059117e+207
5.84902810e+207
1.70728206e+208
4.10474366e+207
4.77978646e+207
8.43867716e+206
1.90401453e+207
1.44224924e+206
2.49656590e+206
9.79645035e+207
3.16433103e+207
-6.32999903e+206
-2.23780547e+207
-9.93322647e+206
1.47192887e+207
5.60805028e+207
3.74911437e+207
3.34947285e+206
2.08430692e+207
2.76579867e+207
1.08480975e+207
-1.46501760e+208
2.18956315e+208
1.94482041e+209
2.48332344e+208
1.51900242e+208
-2.16209826e+208
-4.64613142e+208
3.15840382e+208
-3.20677384e+207
4.02689364e+205
9.88627518e+206
6.53381965e+207
-7.92861987e+208
5.65659928e+207
-1.61531878e+207
-7.35104695e+206
-6.39770067e+206
-2.08734928e+207
-6.19342045e+206
-6.46822825e+206
-3.12574539e+207
-1.92619201e+207
1.42544649e+207
1.37043888e+207
2.82525816e+207
-4.83783973e+207
-3.16048224e+207
-7.84718623e+206
2.39228730e+206
-2.86458293e+206
-1.23033986e+206
7.69454067e+205
9.26915209e+204
-3.19151158e+205
-7.85261441e+205
-6.20593030e+205
-5.27592497e+205
2.58052308e+204
1.80047162e+205
6.82907387e+204
4.25595949e+204
-9.83951727e+204
2.90763707e+204
6.13630128e+203
-2.77339435e+204
-5.18300920e+203
-1.61173531e+203
-2.56446265e+202
8.44899590e+203
-2.76374472e+203
-1.10650907e+204
-4.57148069e+203
9.02302017e+203
-3.25239181e+203
1.41605889e+204
5.14301657e+203
-4.44149398e+203
-1.68691476e+202
-1.38834878e+201
1.74295057e+202
-1.64341252e+202
-9.41462747e+201
-6.45862471e+201
3.30003603e+201
2.62915090e+202
1.20842493e+204
2.98664211e+202
-2.90991261e+200
-6.26796075e+199
1.31192736e+200
-8.98254770e+199
7.45723328e+198
-1.96164471e+199
-4.98808464e+199
1.50064034e+199
4.28873961e+197
-1.34215823e+199
1.40800211e+199
-8.74315547e+196
-5.40695217e+196
3.14742772e+196
5.89397296e+202
-5.84837172e+202
5.35118965e+202
-4.22647972e+203
-1.74862424e+204
-7.57146327e+203
5.11781800e+203
4.62514624e+204
8.58442152e+205
6.40095770e+205
4.90897119e+207
1.73913558e+208
-2.54830958e+208
3.51497180e+209
-8.76248697e+209
3.76203991e+209
-1.03973704e+208
-6.55017178e+208
1.08968454e+209
-8.27817438e+208
-1.40312899e+208
8.04930046e+207
2.05477256e+207
-1.41893813e+207
1.74038711e+208
1.66504496e+208
1.48856667e+208
2.40015912e+208
-8.28427220e+206
1.17031685e+208
-2.64099610e+206
-1.24122893e+208
-1.13836575e+208
-6.80295074e+205
9.05011697e+207
-1.02005352e+208
-2.28295149e+207
8.22143503e+207
-3.32437266e+207
-5.77823806e+207
2.44165651e+207
-7.12816373e+206
-1.81051507e+208
6.20746171e+207
-5.67208198e+207
-6.96207403e+207
-2.91703358e+208
2.33230368e+208
-2.36559689e+208
-9.34190571e+208
1.08681474e+208
-8.32517221e+207
3.10281523e+208
-2.32747185e+208
1.29159896e+208
3.05319905e+208
-3.15832941e+208
5.53431644e+207
-1.10745377e+208
2.28956143e+208
2.47578592e+208
1.13025604e+207
5.59074752e+207
5.65120537e+206
1.03769067e+206
-1.79110082e+206
1.96514957e+207
8.94252543e+206
1.40833480e+207
3.77558209e+207
-3.00302619e+207
2.73056306e+207
1.60889759e+207
3.04334951e+207
1.68306196e+207
-2.39664682e+206
1.05850067e+206
2.60446680e+206
2.18408637e+206
-1.83365827e+206
-6.45425334e+204
3.62478421e+205
4.46169599e+206
4.63316095e+205
-4.78442723e+205
-5.62770562e+204
7.07688850e+204
8.70981286e+203
1.27043578e+204
3.91577770e+204
1.39181030e+204
3.98881053e+204
-6.18249285e+204
7.58338229e+203
-4.34333252e+203
-6.07031237e+202
8.20837396e+202
-3.33237664e+203
2.99106725e+204
-5.26112107e+203
2.44958648e+202
-8.95460569e+202
-4.37208178e+202
6.33039999e+202
2.23044191e+202
-1.42216206e+202
-1.14116294e+202
-4.15285426e+201
5.98488545e+201
8.31469909e+201
2.12539927e+201
6.11566558e+202
-3.32650407e+203
-3.57615934e+203
6.82332773e+200
-2.75563085e+196
2.80316060e+200
-2.29154272e+200
-6.88853407e+199
1.79200832e+200
-8.23792683e+199
-2.64070418e+198
5.96336957e+198
-1.00392322e+199
5.10007487e+198
-2.45229979e+196
-2.86221340e+196
5.66091691e+195
-4.48888612e+202
-9.87536895e+203
-2.92929866e+203
2.33469498e+204
3.55123031e+204
2.17198366e+204
1.14422647e+205
9.39794569e+205
2.14066440e+206
1.21578533e+206
2.50569168e+208
-1.85333350e+208
2.10569085e+208
2.12977662e+209
-1.91460213e+209
4.97742708e+208
3.32943624e+208
-1.49627776e+209
4.87012369e+209
-4.43329176e+209
2.96881146e+209
1.87152932e+209
7.86013972e+208
-1.00796494e+209
-8.67849643e+208
-4.37835376e+208
-4.62190282e+208
-3.88341342e+208
-1.27540516e+208
-9.31274252e+207
-5.97451231e+206
1.82187586e+208
1.33795110e+208
-2.79500540e+207
-4.02264247e+207
1.68768522e+208
-2.49486602e+208
-7.88188390e+208
4.47691985e+208
-4.07172002e+208
-4.87494598e+207
-8.57226653e+207
-8.97110257e+207
4.11625957e+208
-8.00523306e+208
3.05418101e+208
1.88482584e+208
8.58223912e+206
-2.61406330e+208
-5.74819815e+205
5.44605638e+208
2.50222607e+208
6.79494749e+208
5.50952393e+211
8.23743648e+211
-1.79953002e+210
-9.45577343e+208
4.36186278e+209
3.85174051e+209
1.67813725e+209
-2.13363610e+208
-6.69579185e+208
-1.07090719e+208
-1.96611609e+209
1.08809023e+209
8.18749485e+207
-3.40341391e+208
-1.86155648e+208
-1.02469599e+207
-2.34382001e+207
-1.10281538e+207
-7.84154542e+206
-7.77543269e+207
-2.15560044e+207
-4.98754271e+207
-7.76921426e+206
-6.03780379e+206
-7.99030965e+206
9.32132231e+206
-5.91871498e+205
-5.11901599e+207
-5.99403076e+207
-4.81278607e+206
9.18541104e+206
1.19233792e+206
2.48249857e+205
-4.28856575e+204
-8.07476192e+203
-4.44606599e+204
7.11801192e+204
-1.22555674e+205
2.93012256e+203
-5.26343871e+204
1.43738502e+204
3.30910856e+203
1.13636776e+203
-3.32273609e+203
8.56727353e+202
-2.62427038e+203
-8.69646131e+203
-6.19874192e+200
2.04135229e+203
-1.71993979e+202
4.21589872e+202
1.01393519e+201
-2.31533189e+202
1.39968941e+202
7.48836899e+201
-7.51704475e+201
-5.08619472e+201
-3.55819457e+201
-8.61271822e+200
4.16463688e+201
2.30609334e+201
-6.63959212e+200
-4.57393420e+199
7.41262590e+199
-8.67686508e+199
9.60073467e+199
4.30488281e+199
7.13405441e+199
2.63857793e+198
-1.21665841e+199
-1.70900946e+199
7.45978922e+198
-4.26549631e+197
3.51985139e+196
5.27237312e+196
1.95204300e+203
3.22340619e+204
-1.79731834e+204
-7.51449831e+204
-3.27269433e+205
-1.13300857e+205
-9.48032637e+204
-1.69861240e+206
9.10070646e+205
1.07309777e+207
3.49569344e+208
4.85795381e+209
2.71832716e+209
-8.85323822e+208
-2.59453696e+209
3.69692707e+208
8.94602259e+207
-7.77522551e+208
-1.23548499e+209
-1.51177429e+209
1.01293729e+210
-5.61557086e+209
4.13627723e+209
-1.58436994e+210
-1.19573748e+209
-1.61496409e+209
7.07841971e+208
-3.43773822e+208
-1.73515168e+208
-2.80313751e+208
-4.42269914e+206
-2.82886067e+208
-2.80492024e+208
-3.33220715e+208
1.03231179e+208
-3.09207838e+207
1.68887678e+209
-3.93148202e+208
3.34476365e+208
-1.30467324e+209
6.87146044e+208
4.50077992e+208
-7.10953727e+208
2.04207206e+209
-1.77576355e+209
-4.13913845e+208
-1.19148694e+208
-4.70793958e+208
3.05418947e+208
6.09607888e+207
-1.31141476e+208
4.34163944e+208
-6.30775007e+208
-2.91382286e+211
-2.13138937e+212
-2.90356752e+211
2.80996950e+209
5.01639189e+210
8.09121399e+210
1.78325187e+210
1.12571199e+210
1.05329700e+210
-1.85832344e+209
-7.86961103e+209
2.89842624e+209
2.28854935e+209
8.95647623e+208
5.61149064e+207
8.19927632e+207
4.44203730e+206
7.17692778e+207
-1.11256301e+209
-1.51664507e+209
-5.46485993e+206
-1.23947159e+207
-5.09673474e+206
-9.19368375e+206
5.35589666e+207
5.96628247e+206
-2.38492199e+206
1.73557760e+208
-1.65975155e+206
-1.06558966e+207
-1.00957839e+206
-2.02582208e+206
1.31971996e+204
-1.17470148e+205
6.63767561e+204
-1.12629724e+205
7.65723919e+204
2.07980860e+205
4.08413201e+204
8.90119191e+203
-4.87425847e+203
1.76780912e+202
4.26489292e+203
-1.37902634e+203
5.06321850e+203
-2.80086471e+203
-1.41662282e+203
4.39500636e+202
-2.26353009e+203
4.41476268e+202
-9.52433019e+201
-3.40235837e+202
-6.22528294e+201
1.19382876e+202
2.21131806e+201
-9.66538963e+201
1.03479914e+201
-1.25777141e+201
5.96569983e+199
-9.01578735e+200
1.60198546e+200
1.38933045e+201
-5.99239218e+200
7.69389729e+199
1.11981218e+200
-1.72974511e+200
-1.37639661e+200
-6.39166416e+199
4.95250148e+199
5.48780784e+198
5.59562460e+197
2.33499825e+198
1.80296585e+198
3.11904125e+196
-3.53507473e+196
-3.88589364e+203
6.52548637e+204
2.75609644e+204
-3.62480116e+205
7.33992745e+205
5.72599562e+205
1.26678140e+206
3.10505322e+205
1.15231983e+206
1.89700306e+207
-1.98791437e+209
-1.10281034e+210
-2.80972461e+209
1.80919418e+209
2.45269851e+209
-3.18941652e+209
9.82510853e+208
3.75234069e+208
-7.49466293e+209
8.73963561e+209
3.42915836e+209
-9.97075369e+209
7.23274917e+209
7.81279636e+209
1.87434604e+210
-1.03605145e+210
7.70028137e+208
2.45804225e+209
4.19363414e+208
1.69415249e+208
-3.46702894e+207
7.10081883e+208
3.97234883e+208
4.38929324e+208
1.94202698e+208
-1.24459454e+209
5.45826380e+208
-5.71414528e+208
-4.33098121e+208
-1.96333305e+208
3.67662933e+208
-6.33274605e+208
-6.37621039e+208
1.07350011e+209
6.53285260e+208
1.72397018e+208
-5.50101951e+208
-1.53788246e+209
1.43432389e+209
-2.45924391e+208
8.21479222e+208
2.34074202e+209
-2.75266946e+209
-2.17943114e+210
8.29977485e+211
5.51391318e+211
9.29037016e+208
-4.54048693e+210
-1.93830735e+211
-9.01110454e+210
-8.86592403e+209
1.26107239e+209
-1.03212639e+210
-1.31310876e+210
-6.31054522e+209
4.14220889e+209
2.53124639e+209
-1.71000394e+208
-1.69007022e+208
-7.24034184e+207
1.86767395e+208
5.94715258e+208
4.03942657e+209
6.21227101e+208
2.32351693e+207
5.72279806e+207
-7.62660441e+207
2.95812340e+207
-2.38455811e+207
-4.71602836e+207
-2.12199387e+207
2.21337325e+207
4.82872134e+206
5.84279969e+206
-1.48084441e+205
-1.80597215e+205
1.11663318e+205
1.58863765e+205
5.59507722e+204
-2.53398866e+205
1.88118770e+205
1.82794748e+204
-3.94217791e+204
-1.19949806e+204
9.02708873e+203
2.29936697e+203
-7.65463379e+203
9.41741224e+203
-5.65840991e+203
-8.79229118e+203
7.84544518e+202
-3.58970441e+203
-6.77973042e+202
1.05417833e+203
6.80821042e+202
6.69992159e+201
-1.55448550e+202
2.76078104e+202
-6.45475926e+201
-2.09546142e+201
1.31777323e+201
1.62626560e+200
3.98263368e+200
-4.87218094e+201
-8.88241738e+200
-3.40195357e+200
2.65656955e+199
1.17584215e+200
3.10012213e+200
1.03461812e+199
8.85453508e+199
-6.75497276e+199
-8.15942835e+199
-5.12317668e+198
1.53369306e+198
-5.82219765e+197
-4.33180667e+197
7.40409624e+196
7.12057212e+204
1.89763255e+205
1.72811893e+206
5.81638281e+206
7.71059108e+205
5.50522901e+206
-1.17978494e+206
-2.24001024e+206
-1.46483987e+206
1.51944888e+207
2.62160589e+209
4.69615564e+209
1.33802327e+209
-1.81342731e+209
-1.33926823e+208
-3.46595319e+209
7.73316961e+209
-4.91225681e+209
-4.65613001e+209
1.71355729e+210
3.93314002e+209
-7.44562735e+210
1.02838955e+211
-4.40023977e+209
1.82142798e+209
1.62825482e+208
-3.31070698e+209
3.33972752e+209
-1.73057804e+209
1.86946449e+208
-2.44607128e+208
-5.88700555e+208
-1.12154271e+209
-2.49502468e+209
-1.34144887e+208
1.66000688e+209
1.26864708e+209
-2.77313278e+209
5.63101877e+208
6.66420491e+209
4.06715142e+209
1.60012256e+208
1.91027701e+210
3.31345708e+210
8.81858504e+210
1.28531786e+210
-1.44592794e+208
-8.60774396e+208
2.74826912e+209
2.23017057e+209
5.91837654e+208
-1.70358098e+209
3.73702660e+209
-9.55151691e+208
1.32587275e+210
-2.51716636e+210
9.06123945e+209
1.07744526e+210
2.84047369e+209
-2.32366137e+210
-2.97052438e+211
-1.96866505e+211
3.38191330e+210
1.21166467e+210
-2.64287157e+210
-5.41342450e+209
7.01959696e+209
-5.85685382e+208
-2.30835665e+208
-6.82194081e+207
6.83802367e+207
-1.75222974e+208
7.14493308e+209
-2.63528223e+209
-1.18492466e+209
7.04149744e+206
1.31721246e+208
-1.22913859e+208
1.24718004e+208
1.33302196e+208
3.02391067e+207
-5.45012033e+207
1.55054276e+207
3.49776326e+206
1.85665384e+206
-4.91031494e+205
-2.31366434e+205
3.11419153e+205
3.99459374e+205
-6.46950530e+205
2.99975384e+205
2.37799700e+204
-3.35469961e+204
1.28909860e+204
-2.04924654e+203
-9.34326092e+203
6.75326780e+202
1.94708665e+203
7.52059209e+202
2.28102398e+203
2.07103260e+204
2.23230694e+203
-3.61728132e+202
-5.99782830e+202
-1.25077492e+203
2.00781197e+202
1.80563245e+202
-6.57386544e+201
1.45571668e+201
-2.13923437e+201
-3.54990998e+201
3.63659932e+201
-8.15818158e+199
2.43535412e+201
9.15195761e+200
-6.67384816e+200
-9.73185221e+199
-2.57810450e+199
1.26544668e+200
2.33605397e+200
3.16134789e+199
1.37074683e+200
-6.68715240e+199
6.10551600e+198
-1.58512422e+198
-1.26328754e+197
-3.41229881e+197
-2.15981156e+197
-6.31090999e+204
1.63742212e+206
-2.32078241e+205
-6.11028661e+206
-4.56197460e+206
-1.36330145e+207
4.03925038e+206
-9.46656112e+206
-1.45894444e+207
2.54099176e+207
-1.61508373e+208
-2.19547676e+209
2.00855609e+208
-1.47977508e+208
2.38438790e+209
1.02166584e+209
-1.74936766e+209
-6.57220766e+209
-7.57850351e+208
6.03633902e+210
1.05173364e+211
-5.52721192e+211
1.44775035e+211
1.59987792e+210
-9.82441447e+208
-3.29499948e+210
-5.07953844e+209
8.99161386e+209
2.21912460e+209
-1.14227033e+209
-1.79904997e+207
-1.40864573e+209
-1.65841864e+208
1.10012917e+209
5.82413842e+208
-1.53618907e+209
1.78003945e+208
2.20402598e+209
-2.27516203e+210
7.04896180e+209
-3.19767432e+208
-1.86140016e+210
-3.00265470e+209
-8.47993338e+210
-1.08504187e+211
5.70395500e+210
9.30908538e+208
1.10066849e+209
-8.81357695e+209
-2.78780562e+209
2.86762670e+209
-6.47708990e+209
3.69779932e+209
3.96585590e+208
3.94182528e+208
-2.41408476e+210
-1.74624835e+210
2.92149704e+210
3.06825512e+210
7.73371771e+211
3.58253824e+211
-2.89278288e+211
-3.64037264e+210
6.19817135e+210
-5.48159429e+210
-9.16241084e+209
1.02921447e+210
9.75167556e+208
5.76824993e+207
4.63004991e+208
5.48541013e+208
-5.34648541e+208
9.23785980e+209
-3.00658826e+210
9.12096604e+209
1.26120142e+208
5.09047950e+207
-7.62952484e+207
-9.89189461e+207
-4.45029282e+208
-5.23853806e+208
-9.97927502e+206
5.14160950e+206
-5.74967284e+206
-9.16628909e+205
-7.79311364e+205
-3.47008205e+205
1.14041668e+205
-5.51371152e+204
-2.05096573e+205
1.22069039e+205
4.59971528e+204
-2.73124390e+204
6.73218240e+204
8.72438796e+204
1.03500831e+204
3.11514124e+203
-3.66900720e+203
-8.33177587e+203
1.10510931e+203
-6.51487329e+203
-8.95194966e+203
-1.07094136e+203
2.75796996e+201
6.10243609e+202
-1.00943671e+202
-1.46130992e+202
6.66861011e+201
-2.91847320e+201
7.25893399e+200
-1.75614626e+201
2.72139481e+201
-3.37559382e+200
-6.02129264e+200
2.90356485e+200
-4.96132514e+200
-1.27137851e+200
7.63524214e+199
-1.89455818e+200
-4.90956281e+200
-1.03150606e+200
-5.40287676e+199
4.61118522e+199
2.60341840e+199
2.36482035e+197
-1.89268233e+197
1.09895547e+198
3.35886314e+197
1.29659010e+205
-1.09515630e+206
4.74378706e+207
8.86014109e+207
-3.92480211e+208
-4.23451295e+206
-1.30037838e+207
-2.03159098e+207
7.19638044e+205
3.99437873e+206
-2.38803161e+207
-3.96904169e+208
-8.26706481e+209
-5.03308717e+210
-4.80336256e+209
1.09662487e+208
-4.94550352e+208
2.90946073e+209
3.09639844e+209
-1.89347074e+211
1.04502133e+212
-2.25372706e+211
-2.75423956e+210
-3.33235882e+210
3.17531093e+210
4.10472180e+210
-1.52994842e+210
7.70989785e+208
-1.47572529e+210
-2.22608215e+210
8.54805324e+209
9.48514905e+209
9.60992560e+209
9.83447202e+209
7.69423495e+209
7.01253987e+209
4.69158801e+209
1.24218895e+210
9.52635723e+209
-4.47109080e+209
1.69488447e+208
-9.33202503e+209
-2.79878117e+210
8.06520387e+210
-4.11847971e+210
-1.57667995e+210
7.45756235e+209
-1.60149926e+209
2.53314898e+209
6.03515913e+209
6.16477493e+209
-4.38074775e+209
-1.44368413e+209
-4.01362701e+209
-2.56115845e+210
-2.47241468e+210
4.14789110e+210
7.77510759e+210
1.59320455e+210
1.25848733e+211
-1.70009052e+212
1.14203714e+212
-2.98685203e+211
5.65858174e+210
-1.36950232e+210
-1.62408771e+210
1.42944668e+210
1.27600269e+209
-3.96590583e+208
-1.33777725e+209
1.76867668e+208
1.00607597e+209
-1.14948654e+209
-1.47008839e+209
8.99807248e+209
7.35327147e+207
-5.81235826e+208
1.51038169e+209
-9.93019572e+208
3.71615534e+208
1.13016645e+209
1.16279093e+208
-1.69774602e+207
9.93484933e+206
1.28763593e+206
1.10401055e+205
-2.98329911e+205
1.43588923e+205
7.86374299e+204
-9.28666688e+204
7.15568297e+203
-1.34673301e+204
2.05112881e+204
-5.32665686e+203
-2.62950895e+205
-1.85914888e+204
-2.53927662e+204
1.07390058e+204
2.98582807e+202
-1.68268890e+204
5.48266024e+203
-7.97350966e+203
1.69543772e+203
-1.96173446e+203
1.27994395e+203
7.22328988e+202
3.34666058e+200
2.20407915e+202
-5.43384288e+201
-5.68674245e+201
3.99527305e+200
1.54638281e+202
-4.06733972e+201
-4.76956096e+201
-1.90959545e+201
-2.09617504e+201
-1.67642611e+201
3.56849963e+200
-4.05256152e+200
1.33559301e+200
8.42926317e+199
8.33144862e+199
-2.11924107e+200
1.48498174e+200
3.18616326e+197
-1.44127931e+198
2.37847840e+197
-1.59129299e+197
7.94335914e+205
-1.06415427e+206
-4.34312645e+208
1.38123784e+209
-4.32927156e+208
1.13627302e+207
1.05623133e+207
-2.53017329e+207
7.33436694e+207
-1.88796826e+208
-1.57054839e+209
1.59870602e+209
-5.09905877e+210
7.33546309e+210
3.63253785e+210
-1.03537178e+210
9.97052568e+209
4.53605389e+210
-1.35179492e+211
-1.84425362e+211
-6.40840322e+210
-3.04560833e+211
-3.95174352e+210
-1.43417754e+211
1.19032542e+210
6.63514475e+210
-1.79016676e+211
1.13368457e+210
1.15496179e+210
3.57909985e+210
2.70331773e+210
-1.31665305e+210
-1.32160140e+210
-2.29855116e+210
-1.08644641e+211
-1.86059475e+211
-1.62710422e+211
-2.06002154e+211
-1.64701121e+211
-2.98734684e+210
-5.64083613e+209
5.43500457e+210
-8.66365788e+210
-5.32277202e+210
3.53685566e+209
-1.77198838e+210
7.72018307e+209
-6.42616450e+209
-1.24299172e+209
-2.78688073e+209
1.98307098e+209
-1.03926814e+210
5.75977554e+209
4.54986455e+209
1.73208971e+210
8.05656709e+210
1.76755017e+210
-3.67347836e+210
1.94507732e+211
5.03359021e+211
3.06043653e+210
6.81790818e+211
-1.12859427e+212
6.71014838e+211
-1.14169043e+211
-1.00659183e+210
4.33205499e+210
-1.30140946e+211
8.19433918e+210
-3.07195344e+209
2.10607138e+209
-1.37509172e+208
1.66736120e+209
-2.10921233e+209
-8.30699755e+208
1.47683754e+208
-2.79572783e+209
5.92182591e+209
-2.90751584e+209
-6.93244035e+207
-4.05631452e+208
-1.51837941e+208
2.44953059e+206
6.27949293e+206
-8.98234871e+206
4.16550838e+206
-1.58618619e+206
4.03306146e+205
2.03505630e+205
-1.63104139e+205
1.36835210e+204
7.36861965e+203
-7.30968225e+204
-4.75709472e+204
7.99448025e+204
5.18248925e+204
7.96364345e+203
7.10382269e+203
1.22225844e+204
3.72254857e+204
2.00715599e+204
-1.02173958e+204
2.17977449e+202
-6.78812529e+202
2.87814626e+203
6.53425384e+202
-2.16968723e+203
9.78102812e+202
-4.65915459e+201
1.54010229e+202
1.68168695e+202
-2.36732638e+202
-5.45739761e+201
3.94409298e+201
5.16632144e+201
1.87123031e+201
1.05840246e+201
-1.19918849e+201
-5.09223724e+200
9.31677762e+199
1.65952734e+200
-4.48692560e+195
-1.41643139e+200
6.54485850e+199
-4.19524228e+198
-1.15513643e+195
3.55902705e+197
1.61272598e+197
-2.04455918e+205
-7.30565872e+205
-3.97826304e+208
9.19720743e+207
4.35480170e+207
2.70524068e+206
-6.24532090e+207
-3.98603244e+208
-8.87271259e+207
3.10594990e+207
-6.90435808e+208
1.16517859e+209
-4.89011377e+209
2.71957934e+210
-5.76886776e+210
4.48288422e+210
6.38162616e+209
3.63665226e+211
-5.49195501e+211
2.81671349e+211
8.86445521e+209
1.34147317e+211
1.51549658e+211
3.74463253e+211
5.18392755e+210
2.52579853e+210