# vtk DataFile Version 2.0
LBM Flow Field - Timestep 190
ASCII
DATASET STRUCTURED_POINTS
DIMENSIONS 128 128 1
ORIGIN 0.0 0.0 0.0
SPACING 1.0 1.0 1.0
POINT_DATA 16384
SCALARS density double 1
LOOKUP_TABLE default
1.31067598e+00
1.28688287e+00
1.25893516e+00
1.23175494e+00
1.20571119e+00
1.18103774e+00
1.15779358e+00
1.13650813e+00
1.11662896e+00
1.09919245e+00
1.08290300e+00
1.06934762e+00
1.05656968e+00
1.04657015e+00
1.03699180e+00
1.02998776e+00
1.02314610e+00
1.01847884e+00
1.01384088e+00
1.01087120e+00
1.00790272e+00
1.00608888e+00
1.00430602e+00
1.00323636e+00
1.00223806e+00
1.00162683e+00
1.00110869e+00
1.00077094e+00
1.00052242e+00
1.00034368e+00
1.00023319e+00
1.00014411e+00
1.00009793e+00
1.00005697e+00
1.00003833e+00
1.00002133e+00
1.00001383e+00
1.00000759e+00
1.00000456e+00
1.00000255e+00
1.00000137e+00
1.00000080e+00
1.00000038e+00
1.00000023e+00
1.00000010e+00
1.00000006e+00
1.00000002e+00
1.00000001e+00
1.00000001e+00
1.00000000e+00
1.00000000e+00
1.00000000e+00
1.00000000e+00
1.00000000e+00
1.00000000e+00
1.00000000e+00
1.00000000e+00
1.00000000e+00
1.00000000e+00
1.00000000e+00
1.00000000e+00
1.00000000e+00
1.00000000e+00
1.00000000e+00
1.00000000e+00
1.00000000e+00
1.00000000e+00
1.00000000e+00
1.00000000e+00
1.00000000e+00
1.00000000e+00
1.00000000e+00
1.00000000e+00
1.00000000e+00
1.00000000e+00
1.00000000e+00
1.00000000e+00
1.00000000e+00
1.00000000e+00
1.00000000e+00
1.00000000e+00
1.00000000e+00
1.00000000e+00
1.00000000e+00
1.00000000e+00
1.00000000e+00
1.00000000e+00
1.00000000e+00
1.00000000e+00
1.00000000e+00
1.00000000e+00
1.00000000e+00
1.00000000e+00
1.00000000e+00
1.00000000e+00
1.00000000e+00
1.00000000e+00
1.00000000e+00
1.00000000e+00
1.00000000e+00
1.00000000e+00
1.00000000e+00
1.00000000e+00
1.00000000e+00
1.00000000e+00
1.00000000e+00
1.00000000e+00
1.00000000e+00
1.00000000e+00
1.00000000e+00
1.00000000e+00
1.00000000e+00
1.00000000e+00
1.00000000e+00
1.00000000e+00
1.00000000e+00
1.00000000e+00
1.00000000e+00
1.00000000e+00
1.00000000e+00
1.00000000e+00
1.00000000e+00
1.00000000e+00
1.00000000e+00
1.00000000e+00
1.00000000e+00
1.00000000e+00
1.00000000e+00
1.13015798e+00
1.10788806e+00
1.09352507e+00
1.09840744e+00
1.09569243e+00
1.09543226e+00
1.08362564e+00
1.08181160e+00
1.09032912e+00
1.08429261e+00
1.09348233e+00
1.10188414e+00
1.10462967e+00
1.11165361e+00
1.12605042e+00
1.13694206e+00
1.13615175e+00
1.14176138e+00
1.13814563e+00
1.13685006e+00
1.13294484e+00
1.12080164e+00
1.11304610e+00
1.11596425e+00
1.11360286e+00
1.11588539e+00
1.11951554e+00
1.12118691e+00
1.12608719e+00
1.13056074e+00
1.12605495e+00
1.12081363e+00
1.11962637e+00
1.11702171e+00
1.10850843e+00
1.11144745e+00
1.11865652e+00
1.11233558e+00
1.10325732e+00
1.11525530e+00
1.12016132e+00
1.11799132e+00
1.11380343e+00
1.11596731e+00
1.11458508e+00
1.10950383e+00
1.10802643e+00
1.11317338e+00
1.10797539e+00
1.10739806e+00
1.10860285e+00
1.10712334e+00
1.11072242e+00
1.10801272e+00
1.10613376e+00
1.11125179e+00
1.10568545e+00
1.11216372e+00
1.10648776e+00
1.09919436e+00
1.10965210e+00
1.11012203e+00
1.10035749e+00
1.10364209e+00
1.10286407e+00
1.09916183e+00
1.10119604e+00
1.09574494e+00
1.09025524e+00
1.09202552e+00
1.09083607e+00
1.08718340e+00
1.08871526e+00
1.08661430e+00
1.08512371e+00
1.09227690e+00
1.09681870e+00
1.08885760e+00
1.09041057e+00
1.09632676e+00
1.08986758e+00
1.08180219e+00
1.08565748e+00
1.08513511e+00
1.08172935e+00
1.08068813e+00
1.08272505e+00
1.09021101e+00
1.09004885e+00
1.08573672e+00
1.09046546e+00
1.09164438e+00
1.08395354e+00
1.07836985e+00
1.07505299e+00
1.07414334e+00
1.06841640e+00
1.06159463e+00
1.06184718e+00
1.06516258e+00
1.05912021e+00
1.05271000e+00
1.05266237e+00
1.05467087e+00
1.05589372e+00
1.04901021e+00
1.04095058e+00
1.03931990e+00
1.04521469e+00
1.04722963e+00
1.04543780e+00
1.03249844e+00
1.01741679e+00
1.00730331e+00
1.00100232e+00
1.00251946e+00
1.00089307e+00
1.00160692e+00
1.00014806e+00
9.97090030e-01
1.00102568e+00
1.00132970e+00
1.00090158e+00
9.99956141e-01
9.98083525e-01
9.99932684e-01
1.00057458e+00
1.00060262e+00
1.11506727e+00
1.10221453e+00
1.10664119e+00
1.09983838e+00
1.09468861e+00
1.08933286e+00
1.08887734e+00
1.08899794e+00
1.08348230e+00
1.09454404e+00
1.09465347e+00
1.10001491e+00
1.11272237e+00
1.12628204e+00
1.13347343e+00
1.13570036e+00
1.14330855e+00
1.13973552e+00
1.13352619e+00
1.12504143e+00
1.11816025e+00
1.11455172e+00
1.11744338e+00
1.12011875e+00
1.12068097e+00
1.12465446e+00
1.12607010e+00
1.12760012e+00
1.12676438e+00
1.11901712e+00
1.11205628e+00
1.11813603e+00
1.11979910e+00
1.11244058e+00
1.10740206e+00
1.11304004e+00
1.11803279e+00
1.12436906e+00
1.11860497e+00
1.12092180e+00
1.11528598e+00
1.10885925e+00
1.10461086e+00
1.10859627e+00
1.10489569e+00
1.10492912e+00
1.10171218e+00
1.10077118e+00
1.09719033e+00
1.10221948e+00
1.10585144e+00
1.10601724e+00
1.10498494e+00
1.09916953e+00
1.09614775e+00
1.10076191e+00
1.09478229e+00
1.09705276e+00
1.09781406e+00
1.08818675e+00
1.09134680e+00
1.09084788e+00
1.08931393e+00
1.09390173e+00
1.09552680e+00
1.08891489e+00
1.08950532e+00
1.09060024e+00
1.09294901e+00
1.09286173e+00
1.09075411e+00
1.08646281e+00
1.08420112e+00
1.08789847e+00
1.08597236e+00
1.08457175e+00
1.08954595e+00
1.08711340e+00
1.08226439e+00
1.09262071e+00
1.09364438e+00
1.08446549e+00
1.08606964e+00
1.08978038e+00
1.08345338e+00
1.07826089e+00
1.08178508e+00
1.08856117e+00
1.08556022e+00
1.08055633e+00
1.08927382e+00
1.09411439e+00
1.08401080e+00
1.07700484e+00
1.08266873e+00
1.07912856e+00
1.06899540e+00
1.06002877e+00
1.06344506e+00
1.07311760e+00
1.06508835e+00
1.04803538e+00
1.04258898e+00
1.05347848e+00
1.06571362e+00
1.06043587e+00
1.04386672e+00
1.03192451e+00
1.03395944e+00
1.04690174e+00
1.05161467e+00
1.04544441e+00
1.02753282e+00
1.01208165e+00
1.00249208e+00
9.98920252e-01
1.00287938e+00
1.00066867e+00
1.00205289e+00
9.98977530e-01
9.96966953e-01
1.00178416e+00
1.00202803e+00
1.00186172e+00
9.99062652e-01
9.97306986e-01
9.98867343e-01
9.99811464e-01
1.09721066e+00
1.10673942e+00
1.11534279e+00
1.09114281e+00
1.09842524e+00
1.09808061e+00
1.09110241e+00
1.08161139e+00
1.09589587e+00
1.09997872e+00
1.09621360e+00
1.12048848e+00
1.12356174e+00
1.13484002e+00
1.13864588e+00
1.14103607e+00
1.13401497e+00
1.12304478e+00
1.12467257e+00
1.11372449e+00
1.11565106e+00
1.11715133e+00
1.11919668e+00
1.13326762e+00
1.12785441e+00
1.13134610e+00
1.13133795e+00
1.12318276e+00
1.11961456e+00
1.11017147e+00
1.10987380e+00
1.10895997e+00
1.11193815e+00
1.11140560e+00
1.11671638e+00
1.12752614e+00
1.12713615e+00
1.11612375e+00
1.11186974e+00
1.11681933e+00
1.11613282e+00
1.10268337e+00
1.09711272e+00
1.10345666e+00
1.09721620e+00
1.09539753e+00
1.09847568e+00
1.10279948e+00
1.10300544e+00
1.10085178e+00
1.09818353e+00
1.10360797e+00
1.09744028e+00
1.09326164e+00
1.09594313e+00
1.09401022e+00
1.08721183e+00
1.09186015e+00
1.08999698e+00
1.08150616e+00
1.08301717e+00
1.08653740e+00
1.08182614e+00
1.08318744e+00
1.08637626e+00
1.08380022e+00
1.08195741e+00
1.08982748e+00
1.09244471e+00
1.08890505e+00
1.08988472e+00
1.09201846e+00
1.08635084e+00
1.08725465e+00
1.08385789e+00
1.07999116e+00
1.08377414e+00
1.08130503e+00
1.07715375e+00
1.08807258e+00
1.09059304e+00
1.08262245e+00
1.08755391e+00
1.09355764e+00
1.08532726e+00
1.07824316e+00
1.08456801e+00
1.08731387e+00
1.07849452e+00
1.07519864e+00
1.08872554e+00
1.09671055e+00
1.07990338e+00
1.07165389e+00
1.08890385e+00
1.08943117e+00
1.06762581e+00
1.05468732e+00
1.06306523e+00
1.08160968e+00
1.07392212e+00
1.04545650e+00
1.03644002e+00
1.05317601e+00
1.07396942e+00
1.06927053e+00
1.04145463e+00
1.02682891e+00
1.02717128e+00
1.04470773e+00
1.05929858e+00
1.05380434e+00
1.03602235e+00
1.01712858e+00
1.00828004e+00
9.99824892e-01
9.99877164e-01
1.00103439e+00
9.99553796e-01
1.00174352e+00
9.98208091e-01
9.98081336e-01
1.00059081e+00
1.00169538e+00
1.00293900e+00
1.00016759e+00
9.98166942e-01
9.97354268e-01
1.10414505e+00
1.11378814e+00
1.09589654e+00
1.10181095e+00
1.10124453e+00
1.09547233e+00
1.09230141e+00
1.10279881e+00
1.10293404e+00
1.09769845e+00
1.12478576e+00
1.12785080e+00
1.13530371e+00
1.13977503e+00
1.13820798e+00
1.12876679e+00
1.11858732e+00
1.12318110e+00
1.11563275e+00
1.10726495e+00
1.11366225e+00
1.12450999e+00
1.13318813e+00
1.13399069e+00
1.12809331e+00
1.13065093e+00
1.12449664e+00
1.12065617e+00
1.11598195e+00
1.10596183e+00
1.10771892e+00
1.11475001e+00
1.11957587e+00
1.12133184e+00
1.11388698e+00
1.12047381e+00
1.11957929e+00
1.11031836e+00
1.11128291e+00
1.10941609e+00
1.10121983e+00
1.09700021e+00
1.09918096e+00
1.10685726e+00
1.10152093e+00
1.10609963e+00
1.11399834e+00
1.11029146e+00
1.10661249e+00
1.10388517e+00
1.10116236e+00
1.10828064e+00
1.09800451e+00
1.09251199e+00
1.09917016e+00
1.09424367e+00
1.08693031e+00
1.09153511e+00
1.09284599e+00
1.08845762e+00
1.09088428e+00
1.09678391e+00
1.08789638e+00
1.08229828e+00
1.08978009e+00
1.09157866e+00
1.08935917e+00
1.08946208e+00
1.08735564e+00
1.08951771e+00
1.09115939e+00
1.08876020e+00
1.09127094e+00
1.09257185e+00
1.08238838e+00
1.07881583e+00
1.08505142e+00
1.08059068e+00
1.07429905e+00
1.08257698e+00
1.08513953e+00
1.08162503e+00
1.08778717e+00
1.09329054e+00
1.08443005e+00
1.07888925e+00
1.08886395e+00
1.08888724e+00
1.07019680e+00
1.06767256e+00
1.08911148e+00
1.09925227e+00
1.07473967e+00
1.06391248e+00
1.09121449e+00
1.10493695e+00
1.07527633e+00
1.04578403e+00
1.05716580e+00
1.08649690e+00
1.08572316e+00
1.04868975e+00
1.02875980e+00
1.04633608e+00
1.07878729e+00
1.08269635e+00
1.04680340e+00
1.02121082e+00
1.02364113e+00
1.03985729e+00
1.06324868e+00
1.06213768e+00
1.04087644e+00
1.02133467e+00
1.00936283e+00
1.00664619e+00
9.99439626e-01
1.00004065e+00
1.00005450e+00
1.00040186e+00
1.00268797e+00
9.98809665e-01
9.97752223e-01
9.98145911e-01
1.00049901e+00
1.00280849e+00
1.00170773e+00
9.99986109e-01
1.10985737e+00
1.10105453e+00
1.09486551e+00
1.10008463e+00
1.09651827e+00
1.10415575e+00
1.09872881e+00
1.10794256e+00
1.10998478e+00
1.12307452e+00
1.12932982e+00
1.13778117e+00
1.14167975e+00
1.13253233e+00
1.13070098e+00
1.12166580e+00
1.11809976e+00
1.10980117e+00
1.10688594e+00
1.11727281e+00
1.12678134e+00
1.12882508e+00
1.12676483e+00
1.12702050e+00
1.12694085e+00
1.12426949e+00
1.11915820e+00
1.11566842e+00
1.11045508e+00
1.11377459e+00
1.12443601e+00
1.11836222e+00
1.11367243e+00
1.12016939e+00
1.12058847e+00
1.11705159e+00
1.10578853e+00
1.09687145e+00
1.10407578e+00
1.10290497e+00
1.09959213e+00
1.10405182e+00
1.11010480e+00
1.11688838e+00
1.11251882e+00
1.11588924e+00
1.12069275e+00
1.11164612e+00
1.11055620e+00
1.11373592e+00
1.10294437e+00
1.10337356e+00
1.09940285e+00
1.09372159e+00
1.09722472e+00
1.09648546e+00
1.09490641e+00
1.10066188e+00
1.10175203e+00
1.09736342e+00
1.09514414e+00
1.10002465e+00
1.09904879e+00
1.10291260e+00
1.10010096e+00
1.09234873e+00
1.09397582e+00
1.09269765e+00
1.08519086e+00
1.09672960e+00
1.09618128e+00
1.07973245e+00
1.08505263e+00
1.09448933e+00
1.08792845e+00
1.08718170e+00
1.08638858e+00
1.07776158e+00
1.08064807e+00
1.08710280e+00
1.07743652e+00
1.07282152e+00
1.08924014e+00
1.09529679e+00
1.07965285e+00
1.07303833e+00
1.09165094e+00
1.09463685e+00
1.06758933e+00
1.05862240e+00
1.08691837e+00
1.10178118e+00
1.07359603e+00
1.05397661e+00
1.08429890e+00
1.10983940e+00
1.08484020e+00
1.05181964e+00
1.05595933e+00
1.08839935e+00
1.08788114e+00
1.04936603e+00
1.02741054e+00
1.04531908e+00
1.08103399e+00
1.08735446e+00
1.05304323e+00
1.01636956e+00
1.01823734e+00
1.04188431e+00
1.06683433e+00
1.07435734e+00
1.04942512e+00
1.02530436e+00
1.00716917e+00
1.00338126e+00
1.00359167e+00
9.99196493e-01
1.00027585e+00
9.99387549e-01
1.00031857e+00
1.00285209e+00
1.00141877e+00
9.99438967e-01
9.97532882e-01
9.98357819e-01
1.00037930e+00
1.00223168e+00
1.09751648e+00
1.09737242e+00
1.10931620e+00
1.09248356e+00
1.10477953e+00
1.10078511e+00
1.10410459e+00
1.11257612e+00
1.11678020e+00
1.13638347e+00
1.13880067e+00
1.14525176e+00
1.13310166e+00
1.13673845e+00
1.12105874e+00
1.11254964e+00
1.11041174e+00
1.11089937e+00
1.11543652e+00
1.11579502e+00
1.13037506e+00
1.12612717e+00
1.12802077e+00
1.12558494e+00
1.11518785e+00
1.11610287e+00
1.10967372e+00
1.11197510e+00
1.12028454e+00
1.12228808e+00
1.12607250e+00
1.12211763e+00
1.12323994e+00
1.12076850e+00
1.11271301e+00
1.10400708e+00
1.10023487e+00
1.09779958e+00
1.10368194e+00
1.10166351e+00
1.10525517e+00
1.11328206e+00
1.11981597e+00
1.11902797e+00
1.11268500e+00
1.11378961e+00
1.11864560e+00
1.10665934e+00
1.09938169e+00
1.10455106e+00
1.09477605e+00
1.09482056e+00
1.10254216e+00
1.09722123e+00
1.09875429e+00
1.10379390e+00
1.09850265e+00
1.09768131e+00
1.09920573e+00
1.09972969e+00
1.10200106e+00
1.09865080e+00
1.09488401e+00
1.09840715e+00
1.09245657e+00
1.08928530e+00
1.09837895e+00
1.09649808e+00
1.08690720e+00
1.08593599e+00
1.08800709e+00
1.08478621e+00
1.09304751e+00
1.09298530e+00
1.08313501e+00
1.08629884e+00
1.09556164e+00
1.08547136e+00
1.08050342e+00
1.09136718e+00
1.08408034e+00
1.06671084e+00
1.07954778e+00
1.09546416e+00
1.07928208e+00
1.06610657e+00
1.08739870e+00
1.10120783e+00
1.07213305e+00
1.05282256e+00
1.07769694e+00
1.10005052e+00
1.07932250e+00
1.05409797e+00
1.07444447e+00
1.10894063e+00
1.08760206e+00
1.05364492e+00
1.05802543e+00
1.09074011e+00
1.09387732e+00
1.05403434e+00
1.02819608e+00
1.04296898e+00
1.08134243e+00
1.08977312e+00
1.05524353e+00
1.02008431e+00
1.01086553e+00
1.03548223e+00
1.06815001e+00
1.08113339e+00
1.06326612e+00
1.03235021e+00
1.01329010e+00
1.00081553e+00
1.00210798e+00
1.00215885e+00
9.99246910e-01
9.99900724e-01
9.97145617e-01
9.99207961e-01
1.00181368e+00
1.00267915e+00
1.00163695e+00
9.99018421e-01
9.97879458e-01
9.98678036e-01
1.09496319e+00
1.10317427e+00
1.09754241e+00
1.09968526e+00
1.10589629e+00
1.10250983e+00
1.11501193e+00
1.12282801e+00
1.13742803e+00
1.13844233e+00
1.14189355e+00
1.13774216e+00
1.12922247e+00
1.12151108e+00
1.11150733e+00
1.11663111e+00
1.11085905e+00
1.11458278e+00
1.12082700e+00
1.13434231e+00
1.13080352e+00
1.11792297e+00
1.11612571e+00
1.11400877e+00
1.10673146e+00
1.10893456e+00
1.11084961e+00
1.11741242e+00
1.12373123e+00
1.12694669e+00
1.12912057e+00
1.12422730e+00
1.12095987e+00
1.11295707e+00
1.10775895e+00
1.10404159e+00
1.10138780e+00
1.10519433e+00
1.11210935e+00
1.10881787e+00
1.11295917e+00
1.11491772e+00
1.11671436e+00
1.11007302e+00
1.10089552e+00
1.10102059e+00
1.10072121e+00
1.08781642e+00
1.08762665e+00
1.09801681e+00
1.09332265e+00
1.09121857e+00
1.10006338e+00
1.09514557e+00
1.09525536e+00
1.09944388e+00
1.09730321e+00
1.09654912e+00
1.09402540e+00
1.09017816e+00
1.09267389e+00
1.08634121e+00
1.08504219e+00
1.09031408e+00
1.08464290e+00
1.08769201e+00
1.09129419e+00
1.07942852e+00
1.08219652e+00
1.08845060e+00
1.08816539e+00
1.08356261e+00
1.08191540e+00
1.08496499e+00
1.08950411e+00
1.09138895e+00
1.09599791e+00
1.08885313e+00
1.08133235e+00
1.09376779e+00
1.09027157e+00
1.06694652e+00
1.07322115e+00
1.09450649e+00
1.07897782e+00
1.05842275e+00
1.07671761e+00
1.10168786e+00
1.08026706e+00
1.05710834e+00
1.07297631e+00
1.09188714e+00
1.07528492e+00
1.05900932e+00
1.07424603e+00
1.10112179e+00
1.08932375e+00
1.05435844e+00
1.06109940e+00
1.09336163e+00
1.09639729e+00
1.05502335e+00
1.02666808e+00
1.04584485e+00
1.08450204e+00
1.09664123e+00
1.05647586e+00
1.01920149e+00
1.01273390e+00
1.03008393e+00
1.06852607e+00
1.08462880e+00
1.06948917e+00
1.03694140e+00
1.01665482e+00
1.00661833e+00
9.99233082e-01
1.00205288e+00
1.00150723e+00
1.00070230e+00
1.00101758e+00
9.97882030e-01
9.97614013e-01
9.99101740e-01
1.00120887e+00
1.00258258e+00
1.00127114e+00
9.98791879e-01
1.10525646e+00
1.10014511e+00
1.09614402e+00
1.10507494e+00
1.10636260e+00
1.11839465e+00
1.12122987e+00
1.13538173e+00
1.14194046e+00
1.14025952e+00
1.14134594e+00
1.12823222e+00
1.11731448e+00
1.11257124e+00
1.11866785e+00
1.11122941e+00
1.11718528e+00
1.12761223e+00
1.13291877e+00
1.12670922e+00
1.11278321e+00
1.11455482e+00
1.11035551e+00
1.10956860e+00
1.10554636e+00
1.10743484e+00
1.11421419e+00
1.12251652e+00
1.12528147e+00
1.12818822e+00
1.11803905e+00
1.11281989e+00
1.11522837e+00
1.10881401e+00
1.11049856e+00
1.11068570e+00
1.10735645e+00
1.11867024e+00
1.12156945e+00
1.11135899e+00
1.11610439e+00
1.11388290e+00
1.10578408e+00
1.09571363e+00
1.08936102e+00
1.09649092e+00
1.09015021e+00
1.08183926e+00
1.09242079e+00
1.09758944e+00
1.08807342e+00
1.08858557e+00
1.09870220e+00
1.09915139e+00
1.09450574e+00
1.09117459e+00
1.08901701e+00
1.08975469e+00
1.08831422e+00
1.08466046e+00
1.08835728e+00
1.08175737e+00
1.07840152e+00
1.08893982e+00
1.08154337e+00
1.07594469e+00
1.08617024e+00
1.08309566e+00
1.08546375e+00
1.08768983e+00
1.08182547e+00
1.08189541e+00
1.08921594e+00
1.08608128e+00
1.07714494e+00
1.08367626e+00
1.09705950e+00
1.08604702e+00
1.07689643e+00
1.09732887e+00
1.09810499e+00
1.06818636e+00
1.06627859e+00
1.09248792e+00
1.08433809e+00
1.05922587e+00
1.06669727e+00
1.09191445e+00
1.08249838e+00
1.06086109e+00
1.07377850e+00
1.09072417e+00
1.07259389e+00
1.05252739e+00
1.07345826e+00
1.10186815e+00
1.08677438e+00
1.05619721e+00
1.06093519e+00
1.09397147e+00
1.09974088e+00
1.06060104e+00
1.02727500e+00
1.04397473e+00
1.08549669e+00
1.09688642e+00
1.06291316e+00
1.01793404e+00
1.01218049e+00
1.03267376e+00
1.06672323e+00
1.09296271e+00
1.07603796e+00
1.04289137e+00
1.01682997e+00
1.00684811e+00
1.00185547e+00
9.97130326e-01
1.00077902e+00
1.00109539e+00
1.00227117e+00
1.00227604e+00
9.99958199e-01
9.97929022e-01
9.97610074e-01
9.99066881e-01
1.00117707e+00
1.00198044e+00
1.10345454e+00
1.09823798e+00
1.10370569e+00
1.10573387e+00
1.12099962e+00
1.12013146e+00
1.13410689e+00
1.14222702e+00
1.13820344e+00
1.14304364e+00
1.12846196e+00
1.12042180e+00
1.11723527e+00
1.11977612e+00
1.11129201e+00
1.11552078e+00
1.13013677e+00
1.12933900e+00
1.12719310e+00
1.11782504e+00
1.11611941e+00
1.10710700e+00
1.10484388e+00
1.10576790e+00
1.10889065e+00
1.11680782e+00
1.11955664e+00
1.12414165e+00
1.11819492e+00
1.11374025e+00
1.11266967e+00
1.11237237e+00
1.10980694e+00
1.10436174e+00
1.10767515e+00
1.11628895e+00
1.11599882e+00
1.12292176e+00
1.11810242e+00
1.10758448e+00
1.11482248e+00
1.10752924e+00
1.09487857e+00
1.09727999e+00
1.09578423e+00
1.09882381e+00
1.09586292e+00
1.09133470e+00
1.10374686e+00
1.10396941e+00
1.09713089e+00
1.10108966e+00
1.10002514e+00
1.09161837e+00
1.08952598e+00
1.08759165e+00
1.09137200e+00
1.08985096e+00
1.08329841e+00
1.08246225e+00
1.09401215e+00
1.08839117e+00
1.07996997e+00
1.09108848e+00
1.09023412e+00
1.08026295e+00
1.09146064e+00
1.08824388e+00
1.08052530e+00
1.08975277e+00
1.08767856e+00
1.07865120e+00
1.09095860e+00
1.09327736e+00
1.07037357e+00
1.07580458e+00
1.09551823e+00
1.08271576e+00
1.06906601e+00
1.08880163e+00
1.09887379e+00
1.07551836e+00
1.06682365e+00
1.08635748e+00
1.08337217e+00
1.06388655e+00
1.06869649e+00
1.08403372e+00
1.07612735e+00
1.06303345e+00
1.07644033e+00
1.08908645e+00
1.07192504e+00
1.05415874e+00
1.06703423e+00
1.10101072e+00
1.08622731e+00
1.05250482e+00
1.06135883e+00
1.09527902e+00
1.10340577e+00
1.06313940e+00
1.03035575e+00
1.04062401e+00
1.08705443e+00
1.10175438e+00
1.06485405e+00
1.02189720e+00
1.00491998e+00
1.02962751e+00
1.06612407e+00
1.09693872e+00
1.08752093e+00
1.04978479e+00
1.02165672e+00
1.00631299e+00
1.00513006e+00
1.00034707e+00
9.97324847e-01
9.98713016e-01
9.98425283e-01
1.00033904e+00
1.00259309e+00
1.00216461e+00
1.00061318e+00
9.98078259e-01
9.97618260e-01
9.99514773e-01
1.09693818e+00
1.10174697e+00
1.10728309e+00
1.11675108e+00
1.12187414e+00
1.12862788e+00
1.14650859e+00
1.14016678e+00
1.14653483e+00
1.13390383e+00
1.12232815e+00
1.11837177e+00
1.10991357e+00
1.11452865e+00
1.11627768e+00
1.12987878e+00
1.13262330e+00
1.12636914e+00
1.11762564e+00
1.11344572e+00
1.10705940e+00
1.10444741e+00
1.10952559e+00
1.11053202e+00
1.11310405e+00
1.12297205e+00
1.11850908e+00
1.11782601e+00
1.11534954e+00
1.10834031e+00
1.10557828e+00
1.10216565e+00
1.10611264e+00
1.10785432e+00
1.11030907e+00
1.11852087e+00
1.11393175e+00
1.11243129e+00
1.11099075e+00
1.10532459e+00
1.11351138e+00
1.10412109e+00
1.09240910e+00
1.10660827e+00
1.10816049e+00
1.10285862e+00
1.10893856e+00
1.10812029e+00
1.11191300e+00
1.10771826e+00
1.09748318e+00
1.10199739e+00
1.09748310e+00
1.09321211e+00
1.09868852e+00
1.08808379e+00
1.08840586e+00
1.09776773e+00
1.09127400e+00
1.08799702e+00
1.09808375e+00
1.09434079e+00
1.08976373e+00
1.09824570e+00
1.09674974e+00
1.08560819e+00
1.09340310e+00
1.09145866e+00
1.08210440e+00
1.09466519e+00
1.09376334e+00
1.07637527e+00
1.08647748e+00
1.09469051e+00
1.07251001e+00
1.07461438e+00
1.09269207e+00
1.07858984e+00
1.06098922e+00
1.07752617e+00
1.09660547e+00
1.08105683e+00
1.06618117e+00
1.08329708e+00
1.08374046e+00
1.06362918e+00
1.06989825e+00
1.08633440e+00
1.07267746e+00
1.05771980e+00
1.07453358e+00
1.09276508e+00
1.07308584e+00
1.05001756e+00
1.06375575e+00
1.09393051e+00
1.09051899e+00
1.05608758e+00
1.05841039e+00
1.09149357e+00
1.10460427e+00
1.06995776e+00
1.03417599e+00
1.04273222e+00
1.08057547e+00
1.10405170e+00
1.07132977e+00
1.02664674e+00
1.00875187e+00
1.02273812e+00
1.06324908e+00
1.09805155e+00
1.09520169e+00
1.05612336e+00
1.02328220e+00
1.00724337e+00
1.00158526e+00
1.00565990e+00
1.00206345e+00
9.99521127e-01
9.99331799e-01
9.97184087e-01
9.98393621e-01
1.00023728e+00
1.00158043e+00
1.00202953e+00
1.00012149e+00
9.98229689e-01
1.10241763e+00
1.10370166e+00
1.10974177e+00
1.12713382e+00
1.13113546e+00
1.14170378e+00
1.14395364e+00
1.14618304e+00
1.13611909e+00
1.12103417e+00
1.11469152e+00
1.11034237e+00
1.11666770e+00
1.12065348e+00
1.13055935e+00
1.13067285e+00
1.12595573e+00
1.11521783e+00
1.11434917e+00
1.11290666e+00
1.10608655e+00
1.10795753e+00
1.11062924e+00
1.11597118e+00
1.12035693e+00
1.12630908e+00
1.11563199e+00
1.10611601e+00
1.10554187e+00
1.10344270e+00
1.10217121e+00
1.10722595e+00
1.10335729e+00
1.10603881e+00
1.10997498e+00
1.11494662e+00
1.10737898e+00
1.10817531e+00
1.10704242e+00
1.10227459e+00
1.10801988e+00
1.10704131e+00
1.09787902e+00
1.11427694e+00
1.11464282e+00
1.10392443e+00
1.10895372e+00
1.10725412e+00
1.10393136e+00
1.10066994e+00
1.09253223e+00
1.10059752e+00
1.09420283e+00
1.09009716e+00
1.10478944e+00
1.09740034e+00
1.09218591e+00
1.10269577e+00
1.09881213e+00
1.09354676e+00
1.10058665e+00
1.09639762e+00
1.09163224e+00
1.09406100e+00
1.09255063e+00
1.08842825e+00
1.09582996e+00
1.09003358e+00
1.08038367e+00
1.09117572e+00
1.08773955e+00
1.07330430e+00
1.08420824e+00
1.09765247e+00
1.07708407e+00
1.06667192e+00
1.08593846e+00
1.08529345e+00
1.06389715e+00
1.06725898e+00
1.08581369e+00
1.07838874e+00
1.06739084e+00
1.08436690e+00
1.08530855e+00
1.06055636e+00
1.06622764e+00
1.08658541e+00
1.07684521e+00
1.05568742e+00
1.06878552e+00
1.08943898e+00
1.08003592e+00
1.05261512e+00
1.06006164e+00
1.08841539e+00
1.08541695e+00
1.05798241e+00
1.05440237e+00
1.08977960e+00
1.10574730e+00
1.07588029e+00
1.03703271e+00
1.04269526e+00
1.08103046e+00
1.10018378e+00
1.07687190e+00
1.03038173e+00
1.01099161e+00
1.02287238e+00
1.06093592e+00
1.10164822e+00
1.10123092e+00
1.06476312e+00
1.02639704e+00
1.00987044e+00
9.99259718e-01
9.98121977e-01
1.00225389e+00
1.00175865e+00
1.00214757e+00
1.00192902e+00
9.99041119e-01
9.97595347e-01
9.97612993e-01
9.99995658e-01
1.00172751e+00
1.00129832e+00
1.10371659e+00
1.11358850e+00
1.12049277e+00
1.13153207e+00
1.14197836e+00
1.14731541e+00
1.14017892e+00
1.13452814e+00
1.12281253e+00
1.11874889e+00
1.11009477e+00
1.11575709e+00
1.12528857e+00
1.13016150e+00
1.12961526e+00
1.12604641e+00
1.11902752e+00
1.11233350e+00
1.11099402e+00
1.10204240e+00
1.11159450e+00
1.11668120e+00
1.12192494e+00
1.12050262e+00
1.11507615e+00
1.11612325e+00
1.10925130e+00
1.10283113e+00
1.10690055e+00
1.10302146e+00
1.10168932e+00
1.10557999e+00
1.10432836e+00
1.10666297e+00
1.10769854e+00
1.10739270e+00
1.10109034e+00
1.10408363e+00
1.10659053e+00
1.10194272e+00
1.10369682e+00
1.10525977e+00
1.10298378e+00
1.11060958e+00
1.10561067e+00
1.09545984e+00
1.10032987e+00
1.10069110e+00
1.09410766e+00
1.09100937e+00
1.09026638e+00
1.10381389e+00
1.09827012e+00
1.08917354e+00
1.09990703e+00
1.10210012e+00
1.09650967e+00
1.10317939e+00
1.09921971e+00
1.09225907e+00
1.09583114e+00
1.09058023e+00
1.08676967e+00
1.09513901e+00
1.08767563e+00
1.08095082e+00
1.09094457e+00
1.08310975e+00
1.07187150e+00
1.08607624e+00
1.08523679e+00
1.07082927e+00
1.07632633e+00
1.08769011e+00
1.07556751e+00
1.06495927e+00
1.08630000e+00
1.08855913e+00
1.06460095e+00
1.06440701e+00
1.08090717e+00
1.07143894e+00
1.06552095e+00
1.08273676e+00
1.08672442e+00
1.06469265e+00
1.06384118e+00
1.08217001e+00
1.07926145e+00
1.05767303e+00
1.06426780e+00
1.08740466e+00
1.08016694e+00
1.05688845e+00
1.05718708e+00
1.08427168e+00
1.08469867e+00
1.05972848e+00
1.05360304e+00
1.08177709e+00
1.10395517e+00
1.07969507e+00
1.04390704e+00
1.04108156e+00
1.08040967e+00
1.10450199e+00
1.07700306e+00
1.03347720e+00
1.01003610e+00
1.02154992e+00
1.05770013e+00
1.10225195e+00
1.10882191e+00
1.07039252e+00
1.03244890e+00
1.01281049e+00
1.00551778e+00
9.98401643e-01
9.96824046e-01
9.99541667e-01
9.99220453e-01
1.00108888e+00
1.00200467e+00
1.00180516e+00
9.99771796e-01
9.97681387e-01
9.98288079e-01
1.00014634e+00
1.10827399e+00
1.11712430e+00
1.13059778e+00
1.14448088e+00
1.14467299e+00
1.14105579e+00
1.13764536e+00
1.12464834e+00
1.11713452e+00
1.11161098e+00
1.11589540e+00
1.12407351e+00
1.12853805e+00
1.13481031e+00
1.12182837e+00
1.12095028e+00
1.11278005e+00
1.10814825e+00
1.11211770e+00
1.11049296e+00
1.11757192e+00
1.11494649e+00
1.11919067e+00
1.11840935e+00
1.11825359e+00
1.10998796e+00
1.10290156e+00
1.10422959e+00
1.10885818e+00
1.10354849e+00
1.10395413e+00
1.10436159e+00
1.10527391e+00
1.10675595e+00
1.10434919e+00
1.10376351e+00
1.09886285e+00
1.10442720e+00
1.10321186e+00
1.09893776e+00
1.10145386e+00
1.09775946e+00
1.09625309e+00
1.10003174e+00
1.09427552e+00
1.08999542e+00
1.09651866e+00
1.09565519e+00
1.09408601e+00
1.09303200e+00
1.09315669e+00
1.10189359e+00
1.09578997e+00
1.09119923e+00
1.10466276e+00
1.10064566e+00
1.08511680e+00
1.09147457e+00
1.09521447e+00
1.08781238e+00
1.09196370e+00
1.08804719e+00
1.08230613e+00
1.08889534e+00
1.08060902e+00
1.07215595e+00
1.08928703e+00
1.08720157e+00
1.06851791e+00
1.08101402e+00
1.08476294e+00
1.06267967e+00
1.06634822e+00
1.08667609e+00
1.07776632e+00
1.06121613e+00
1.07794733e+00
1.08135507e+00
1.06408443e+00
1.07377348e+00
1.08509354e+00
1.06431917e+00
1.05921312e+00
1.07795871e+00
1.08515046e+00
1.06865776e+00
1.06341867e+00
1.07977347e+00
1.07837750e+00
1.06035493e+00
1.06042808e+00
1.08292782e+00
1.08012527e+00
1.05783567e+00
1.06023347e+00
1.08237026e+00
1.08361332e+00
1.05595327e+00
1.05139903e+00
1.08085268e+00
1.10366736e+00
1.08237771e+00
1.04605246e+00
1.04191879e+00
1.07453737e+00
1.10660508e+00
1.08467010e+00
1.03843631e+00
1.01249627e+00
1.01908361e+00
1.05540674e+00
1.10053320e+00
1.11581025e+00
1.07595691e+00
1.03363540e+00
1.01073997e+00
1.00533388e+00
1.00588864e+00
1.00039236e+00
9.99377038e-01
9.99345263e-01
9.97189272e-01
9.98583340e-01
1.00075568e+00
1.00217188e+00
1.00125248e+00
9.99208429e-01
9.98481512e-01
1.12001858e+00
1.12549596e+00
1.14275483e+00
1.14386460e+00
1.14310303e+00
1.13690484e+00
1.13061862e+00
1.12018971e+00
1.11110078e+00
1.11596195e+00
1.12466117e+00
1.13198295e+00
1.13010519e+00
1.12071029e+00
1.11676270e+00
1.12057565e+00
1.11312481e+00
1.10520920e+00
1.11157593e+00
1.11717326e+00
1.11745334e+00
1.12249118e+00
1.12207878e+00
1.11342536e+00
1.10483712e+00
1.10560254e+00
1.10863748e+00
1.10716277e+00
1.10689081e+00
1.10090223e+00
1.10490210e+00
1.10153476e+00
1.10565078e+00
1.10562342e+00
1.10014012e+00
1.10228008e+00
1.10192302e+00
1.10549107e+00
1.09977933e+00
1.09031346e+00
1.09607292e+00
1.09445635e+00
1.09448216e+00
1.09632701e+00
1.08896007e+00
1.08924775e+00
1.09792125e+00
1.09233236e+00
1.09485040e+00
1.09654573e+00
1.09814216e+00
1.10425353e+00
1.09432299e+00
1.08388865e+00
1.09357207e+00
1.09138031e+00
1.08118997e+00
1.08761700e+00
1.08791188e+00
1.07920375e+00
1.08321825e+00
1.08349238e+00
1.08111639e+00
1.08759248e+00
1.08220164e+00
1.07295352e+00
1.08175013e+00
1.08301203e+00
1.06723120e+00
1.07902816e+00
1.09127715e+00
1.06797921e+00
1.06446374e+00
1.08335941e+00
1.07429661e+00
1.05947914e+00
1.07885574e+00
1.08322382e+00
1.06361126e+00
1.07020174e+00
1.08329052e+00
1.06808720e+00
1.05863751e+00
1.07337011e+00
1.08234780e+00
1.06937809e+00
1.06154816e+00
1.08017683e+00
1.07841215e+00
1.05828978e+00
1.06110212e+00
1.08229261e+00
1.07939708e+00
1.05651600e+00
1.05618502e+00
1.08022550e+00
1.08605649e+00
1.05882154e+00
1.04447315e+00
1.07366283e+00
1.10261616e+00
1.08720744e+00
1.05065792e+00
1.04262807e+00
1.07214936e+00
1.10367663e+00
1.08998028e+00
1.04411160e+00
1.01427902e+00
1.01676961e+00
1.05337803e+00
1.10211032e+00
1.12142521e+00
1.08704896e+00
1.03734073e+00
1.01109163e+00
1.00032480e+00
1.00026628e+00
1.00361710e+00
1.00042062e+00
1.00170857e+00
1.00160076e+00
9.99271460e-01
9.97243715e-01
9.98012980e-01
1.00084705e+00
1.00160395e+00
1.00093484e+00
1.12540089e+00
1.13535615e+00
1.14668378e+00
1.14499970e+00
1.14122099e+00
1.12967475e+00
1.12057159e+00
1.11392816e+00
1.11659224e+00
1.12428668e+00
1.12787453e+00
1.12993357e+00
1.12446362e+00
1.12579458e+00
1.11702473e+00
1.10824663e+00
1.10910600e+00
1.11461405e+00
1.11759646e+00
1.11955238e+00
1.11814829e+00
1.11617249e+00
1.11412769e+00
1.10846553e+00
1.10813748e+00
1.11139213e+00
1.10394608e+00
1.10895963e+00
1.10769092e+00
1.09842679e+00
1.10231847e+00
1.10562038e+00
1.10619196e+00
1.09934201e+00
1.10156339e+00
1.10698704e+00
1.09471311e+00
1.09671555e+00
1.10071917e+00
1.08641672e+00
1.09817063e+00
1.09656782e+00
1.09119200e+00
1.09311560e+00
1.09066091e+00
1.09293745e+00
1.10445305e+00
1.09074333e+00
1.09162530e+00
1.09405799e+00
1.09073336e+00
1.09100449e+00
1.08812489e+00
1.08516857e+00
1.09246257e+00
1.08591661e+00
1.07845097e+00
1.08462783e+00
1.08180156e+00
1.07718303e+00
1.08727373e+00
1.07996404e+00
1.07287562e+00
1.08452186e+00
1.08204199e+00