# vtk DataFile Version 2.0
LBM Flow Field - Timestep 650
ASCII
DATASET STRUCTURED_POINTS
DIMENSIONS 128 128 1
ORIGIN 0.0 0.0 0.0
SPACING 1.0 1.0 1.0
POINT_DATA 16384
SCALARS density double 1
LOOKUP_TABLE default
1.31963199e+00
1.30669498e+00
1.29136238e+00
1.27603398e+00
1.26106775e+00
1.24611198e+00
1.23169738e+00
1.21731209e+00
1.20361189e+00
1.18997264e+00
1.17712207e+00
1.16437569e+00
1.15247898e+00
1.14073897e+00
1.12986786e+00
1.11921186e+00
1.10940579e+00
1.09987517e+00
1.09114311e+00
1.08274449e+00
1.07506809e+00
1.06777664e+00
1.06111429e+00
1.05487833e+00
1.04916985e+00
1.04391631e+00
1.03908779e+00
1.03472820e+00
1.03069672e+00
1.02713309e+00
1.02381111e+00
1.02094143e+00
1.01824054e+00
1.01596367e+00
1.01379769e+00
1.01201727e+00
1.01030466e+00
1.00893202e+00
1.00759757e+00
1.00655368e+00
1.00552958e+00
1.00474600e+00
1.00397243e+00
1.00339148e+00
1.00281672e+00
1.00239099e+00
1.00197123e+00
1.00166265e+00
1.00136149e+00
1.00114017e+00
1.00092802e+00
1.00077089e+00
1.00062422e+00
1.00051381e+00
1.00041429e+00
1.00033755e+00
1.00027126e+00
1.00021856e+00
1.00017519e+00
1.00013948e+00
1.00011157e+00
1.00008773e+00
1.00007004e+00
1.00005439e+00
1.00004332e+00
1.00003325e+00
1.00002639e+00
1.00002004e+00
1.00001583e+00
1.00001191e+00
1.00000934e+00
1.00000699e+00
1.00000542e+00
1.00000404e+00
1.00000310e+00
1.00000230e+00
1.00000174e+00
1.00000129e+00
1.00000096e+00
1.00000072e+00
1.00000052e+00
1.00000039e+00
1.00000028e+00
1.00000021e+00
1.00000015e+00
1.00000011e+00
1.00000008e+00
1.00000006e+00
1.00000004e+00
1.00000003e+00
1.00000002e+00
1.00000001e+00
1.00000001e+00
1.00000001e+00
1.00000000e+00
1.00000000e+00
1.00000000e+00
1.00000000e+00
1.00000000e+00
1.00000000e+00
1.00000000e+00
1.00000000e+00
1.00000000e+00
1.00000000e+00
1.00000000e+00
1.00000000e+00
1.00000000e+00
1.00000000e+00
1.00000000e+00
1.00000000e+00
1.00000000e+00
1.00000000e+00
1.00000000e+00
1.00000000e+00
1.00000000e+00
1.00000000e+00
1.00000000e+00
1.00000000e+00
1.00000000e+00
1.00000000e+00
1.00000000e+00
1.00000000e+00
1.00000000e+00
1.00000000e+00
1.00000000e+00
1.00000000e+00
1.00000000e+00
1.00000000e+00
1.11475059e+00
1.09177864e+00
1.07392750e+00
1.06537163e+00
1.06134578e+00
1.05536781e+00
1.04822008e+00
1.04064325e+00
1.04526800e+00
1.04067989e+00
1.03606627e+00
1.04233245e+00
1.03565426e+00
1.03664688e+00
1.03309190e+00
1.03436993e+00
1.03251265e+00
1.03129691e+00
1.03679895e+00
1.02186528e+00
1.03434951e+00
1.03606748e+00
1.03336411e+00
1.02733341e+00
1.03172413e+00
1.03088892e+00
1.02960976e+00
1.03378057e+00
1.03454347e+00
1.03176859e+00
1.03094310e+00
1.03007472e+00
1.03229662e+00
1.03719903e+00
1.03934748e+00
1.03040251e+00
1.02176828e+00
1.03144064e+00
1.04658854e+00
1.04674513e+00
1.03859460e+00
1.03766109e+00
1.04320949e+00
1.04255356e+00
1.03620309e+00
1.03157294e+00
1.03379896e+00
1.03924665e+00
1.03693451e+00
1.03294869e+00
1.03384357e+00
1.03574968e+00
1.03635946e+00
1.03608746e+00
1.03289755e+00
1.03305851e+00
1.03589819e+00
1.03266611e+00
1.03421922e+00
1.03219417e+00
1.03181842e+00
1.03269869e+00
1.03188454e+00
1.03312296e+00
1.02762698e+00
1.03478135e+00
1.03150547e+00
1.02894721e+00
1.03384735e+00
1.03079872e+00
1.02827722e+00
1.03035938e+00
1.02893185e+00
1.02981012e+00
1.03097306e+00
1.02896625e+00
1.03001686e+00
1.02925180e+00
1.02880064e+00
1.02902629e+00
1.02844651e+00
1.03132878e+00
1.02875305e+00
1.02681269e+00
1.02844474e+00
1.02879064e+00
1.02977797e+00
1.02711523e+00
1.02688116e+00
1.02711803e+00
1.02704173e+00
1.02613969e+00
1.02721954e+00
1.02534084e+00
1.02537083e+00
1.02469203e+00
1.02646735e+00
1.02698262e+00
1.02552299e+00
1.02576017e+00
1.02634814e+00
1.02657323e+00
1.02600217e+00
1.02440776e+00
1.02395387e+00
1.02566373e+00
1.02547451e+00
1.02522089e+00
1.02396769e+00
1.02546386e+00
1.02499931e+00
1.02560914e+00
1.02470259e+00
1.02286369e+00
1.02309185e+00
1.02415687e+00
1.02344559e+00
1.02339469e+00
1.02300217e+00
1.02260606e+00
1.02323376e+00
1.02144428e+00
1.02290025e+00
1.02175772e+00
1.02165880e+00
1.02227044e+00
1.02164570e+00
1.02149674e+00
1.09111759e+00
1.08483089e+00
1.08017917e+00
1.06188982e+00
1.05355793e+00
1.05312949e+00
1.05439729e+00
1.04694185e+00
1.04144217e+00
1.03525865e+00
1.04593245e+00
1.04038114e+00
1.03097550e+00
1.03916877e+00
1.03289514e+00
1.03286759e+00
1.03404883e+00
1.02996533e+00
1.02957756e+00
1.03714514e+00
1.03095771e+00
1.02730283e+00
1.03620024e+00
1.03399358e+00
1.02643195e+00
1.03056827e+00
1.03455969e+00
1.03149484e+00
1.03074210e+00
1.03347093e+00
1.03378510e+00
1.03146368e+00
1.03463822e+00
1.03645650e+00
1.03432714e+00
1.02977141e+00
1.02728592e+00
1.03205050e+00
1.03790156e+00
1.03867579e+00
1.03615539e+00
1.04298005e+00
1.04197275e+00
1.03310987e+00
1.03308062e+00
1.03810695e+00
1.03862068e+00
1.03325742e+00
1.03286818e+00
1.03488581e+00
1.03554543e+00
1.03525100e+00
1.03247079e+00
1.03474005e+00
1.03479907e+00
1.03234061e+00
1.03491459e+00
1.03343927e+00
1.03135662e+00
1.03457216e+00
1.03215663e+00
1.03373862e+00
1.02945148e+00
1.03369915e+00
1.03307330e+00
1.02641079e+00
1.03443348e+00
1.03094114e+00
1.03006682e+00
1.03354787e+00
1.02754254e+00
1.02938332e+00
1.03190296e+00
1.02858909e+00
1.03014288e+00
1.02946809e+00
1.02991211e+00
1.02967980e+00
1.02789146e+00
1.03034158e+00
1.02707825e+00
1.02919528e+00
1.02918011e+00
1.02852631e+00
1.02963922e+00
1.02780092e+00
1.02735420e+00
1.02840904e+00
1.02950763e+00
1.02801361e+00
1.02737169e+00
1.02723265e+00
1.02789013e+00
1.02616969e+00
1.02721815e+00
1.02512811e+00
1.02631259e+00
1.02753939e+00
1.02657911e+00
1.02598254e+00
1.02461240e+00
1.02532089e+00
1.02602977e+00
1.02530125e+00
1.02558299e+00
1.02485063e+00
1.02483220e+00
1.02441218e+00
1.02436813e+00
1.02599979e+00
1.02426820e+00
1.02292642e+00
1.02446567e+00
1.02449604e+00
1.02324559e+00
1.02300975e+00
1.02283643e+00
1.02469955e+00
1.02362844e+00
1.02206387e+00
1.02349326e+00
1.02090375e+00
1.02283219e+00
1.02242450e+00
1.02164697e+00
1.02171636e+00
1.02055485e+00
1.02084525e+00
1.07538016e+00
1.07517562e+00
1.07382398e+00
1.06306470e+00
1.06022244e+00
1.05873034e+00
1.04573826e+00
1.03962753e+00
1.04797406e+00
1.04603424e+00
1.03768975e+00
1.03481958e+00
1.04089000e+00
1.03197469e+00
1.03481977e+00
1.03489221e+00
1.02944796e+00
1.03775404e+00
1.02943868e+00
1.03175339e+00
1.03116492e+00
1.03520819e+00
1.02901608e+00
1.03081115e+00
1.03394062e+00
1.03091783e+00
1.02870548e+00
1.03144704e+00
1.03306446e+00
1.03183714e+00
1.03282371e+00
1.03725669e+00
1.03477371e+00
1.03318767e+00
1.03127326e+00
1.02943310e+00
1.03370742e+00
1.03523979e+00
1.02999805e+00
1.03577214e+00
1.04474368e+00
1.04204801e+00
1.03119379e+00
1.03227096e+00
1.04023877e+00
1.03616660e+00
1.03538509e+00
1.03469000e+00
1.03460198e+00
1.03555544e+00
1.03308296e+00
1.03408860e+00
1.03458893e+00
1.03448452e+00
1.03417565e+00
1.03212910e+00
1.03238682e+00
1.03430799e+00
1.03368518e+00
1.03268831e+00
1.03180515e+00
1.03328826e+00
1.03187667e+00
1.03027035e+00
1.03378570e+00
1.02828922e+00
1.03048236e+00
1.03546555e+00
1.02695446e+00
1.02979120e+00
1.03387377e+00
1.02987296e+00
1.02933561e+00
1.02853609e+00
1.02935430e+00
1.03027817e+00
1.02926325e+00
1.02862671e+00
1.02769380e+00
1.02978744e+00
1.02790107e+00
1.02863695e+00
1.02910576e+00
1.02762871e+00
1.02815259e+00
1.02773467e+00
1.02793409e+00
1.02706693e+00
1.02866135e+00
1.02685979e+00
1.02754775e+00
1.02891586e+00
1.02693333e+00
1.02450914e+00
1.02838696e+00
1.02719429e+00
1.02638349e+00
1.02665762e+00
1.02422419e+00
1.02538099e+00
1.02527696e+00
1.02714469e+00
1.02629534e+00
1.02395832e+00
1.02578553e+00
1.02767735e+00
1.02544875e+00
1.02431119e+00
1.02273142e+00
1.02567350e+00
1.02475403e+00
1.02396612e+00
1.02330725e+00
1.02484399e+00
1.02541023e+00
1.02415241e+00
1.02245862e+00
1.02339790e+00
1.02217090e+00
1.02088978e+00
1.02315874e+00
1.02214036e+00
1.02266659e+00
1.02059652e+00
1.02199051e+00
1.02246661e+00
1.02257189e+00
1.02208401e+00
1.06899347e+00
1.06768171e+00
1.06213884e+00
1.06235203e+00
1.06681804e+00
1.05370860e+00
1.04533715e+00
1.05202304e+00
1.04368743e+00
1.03901561e+00
1.04177599e+00
1.03830719e+00
1.04043344e+00
1.03527918e+00
1.03449288e+00
1.03201054e+00
1.03614365e+00
1.03377821e+00
1.03002386e+00
1.03403501e+00
1.02695126e+00
1.03037549e+00
1.03131904e+00
1.03246667e+00
1.02823716e+00
1.03303851e+00
1.02911408e+00
1.02548024e+00
1.03177343e+00
1.03485477e+00
1.03498946e+00
1.03493512e+00
1.03508032e+00
1.03546001e+00
1.03414178e+00
1.03337737e+00
1.02876898e+00
1.02531788e+00
1.03348931e+00
1.04338678e+00
1.04025004e+00
1.03465384e+00
1.03467124e+00
1.03794697e+00
1.03907508e+00
1.03247586e+00
1.03282339e+00
1.03877467e+00
1.03559805e+00
1.03364026e+00
1.03260623e+00
1.03618503e+00
1.03703145e+00
1.03279462e+00
1.03219461e+00
1.03427004e+00
1.03309361e+00
1.03233262e+00
1.03565971e+00
1.03142577e+00
1.03048300e+00
1.03153411e+00
1.03478997e+00
1.03180871e+00
1.03105764e+00
1.03529124e+00
1.02641564e+00
1.03123245e+00
1.03186671e+00
1.02903895e+00
1.03218883e+00
1.03008024e+00
1.02868309e+00
1.03107163e+00
1.02988307e+00
1.02813128e+00
1.02921311e+00
1.03055453e+00
1.03037252e+00
1.02692049e+00
1.02680078e+00
1.02842080e+00
1.03084046e+00
1.02918202e+00
1.02733713e+00
1.02625338e+00
1.02807675e+00
1.02672074e+00
1.03022936e+00
1.02876061e+00
1.02591855e+00
1.02671340e+00
1.02657998e+00
1.02628032e+00
1.02783755e+00
1.02553225e+00
1.02536080e+00
1.02737688e+00
1.02549137e+00
1.02633962e+00
1.02453045e+00
1.02628692e+00
1.02569694e+00
1.02585977e+00
1.02568505e+00
1.02619914e+00
1.02391504e+00
1.02589206e+00
1.02486297e+00
1.02660225e+00
1.02312238e+00
1.02438244e+00
1.02587237e+00
1.02575130e+00
1.02499397e+00
1.02298154e+00
1.02197228e+00
1.02382728e+00
1.02329465e+00
1.02220290e+00
1.02162116e+00
1.02126883e+00
1.02350043e+00
1.02210358e+00
1.02237557e+00
1.02274680e+00
1.02071429e+00
1.02247507e+00
1.07110759e+00
1.05747868e+00
1.06463080e+00
1.06386186e+00
1.05221837e+00
1.05874948e+00
1.05807254e+00
1.04233254e+00
1.04464664e+00
1.04757467e+00
1.03855289e+00
1.04114951e+00
1.03666725e+00
1.03003439e+00
1.04279225e+00
1.03817361e+00
1.02526344e+00
1.03322382e+00
1.04103788e+00
1.02825874e+00
1.03119298e+00
1.03134825e+00
1.03149112e+00
1.03262669e+00
1.03029122e+00
1.02950854e+00
1.02919903e+00
1.02920073e+00
1.03075214e+00
1.03031275e+00
1.03680737e+00
1.03718837e+00
1.03451334e+00
1.03582926e+00
1.03492914e+00
1.03031337e+00
1.02703572e+00
1.02910293e+00
1.03758573e+00
1.03882096e+00
1.03092702e+00
1.03641354e+00
1.04184137e+00
1.03602816e+00
1.03040714e+00
1.03502737e+00
1.03866998e+00
1.03682292e+00
1.03033329e+00
1.03417059e+00
1.03675806e+00
1.03535219e+00
1.03279854e+00
1.03381707e+00
1.03335916e+00
1.03395766e+00
1.03555828e+00
1.03118421e+00
1.03032959e+00
1.03333926e+00
1.03136357e+00
1.03200009e+00
1.03073923e+00
1.03390779e+00
1.02844721e+00
1.03197628e+00
1.03272979e+00
1.02590296e+00
1.03149498e+00
1.03199644e+00
1.02962742e+00
1.03019996e+00
1.02961999e+00
1.02775503e+00
1.02941219e+00
1.03125415e+00
1.03182526e+00
1.02870192e+00
1.02808481e+00
1.02767312e+00
1.02936800e+00
1.03075848e+00
1.02925161e+00
1.02886649e+00
1.02860522e+00
1.02795722e+00
1.02848218e+00
1.02715068e+00
1.02867362e+00
1.02952200e+00
1.02874594e+00
1.02918913e+00
1.02594376e+00
1.02507046e+00
1.02762878e+00
1.02705765e+00
1.02772200e+00
1.02609257e+00
1.02350288e+00
1.02593294e+00
1.02632198e+00
1.02739193e+00
1.02319823e+00
1.02362682e+00
1.02663475e+00
1.02661655e+00
1.02438633e+00
1.02422655e+00
1.02219280e+00
1.02442428e+00
1.02355608e+00
1.02503231e+00
1.02541500e+00
1.02311324e+00
1.02391192e+00
1.02512473e+00
1.02456090e+00
1.02307450e+00
1.02056507e+00
1.02267188e+00
1.02526199e+00
1.02323569e+00
1.02237023e+00
1.01962130e+00
1.02173784e+00
1.02328832e+00
1.02247927e+00
1.02006313e+00
1.06158357e+00
1.07085668e+00
1.06269737e+00
1.05668002e+00
1.05428593e+00
1.05278008e+00
1.05176558e+00
1.05152866e+00
1.04667650e+00
1.05057220e+00
1.04100619e+00
1.03531143e+00
1.04420891e+00
1.04128646e+00
1.03035501e+00
1.03527376e+00
1.03683551e+00
1.03621849e+00
1.03603038e+00
1.02822573e+00
1.03514079e+00
1.03049675e+00
1.03094014e+00
1.03030800e+00
1.03264580e+00
1.03242845e+00
1.02713073e+00
1.02989642e+00
1.03416052e+00
1.03413021e+00
1.03347250e+00
1.03608316e+00
1.03660884e+00
1.03485662e+00
1.03196707e+00
1.03076975e+00
1.03537230e+00
1.03772470e+00
1.03581434e+00
1.03448820e+00
1.03218299e+00
1.03901239e+00
1.03795873e+00
1.03365154e+00
1.03642929e+00
1.03756687e+00
1.03303916e+00
1.03244580e+00
1.03627478e+00
1.03923740e+00
1.03450048e+00
1.03200223e+00
1.03317956e+00
1.03680140e+00
1.03599159e+00
1.02871385e+00
1.03223541e+00
1.03657400e+00
1.03234433e+00
1.03443840e+00
1.03093108e+00
1.03439709e+00
1.03022561e+00
1.03440553e+00
1.03494709e+00
1.02487023e+00
1.03264762e+00
1.03164795e+00
1.03228999e+00
1.03257961e+00
1.02988456e+00
1.02832950e+00
1.03107689e+00
1.02988478e+00
1.02962550e+00
1.03016308e+00
1.03067985e+00
1.02993054e+00
1.02828220e+00
1.02847278e+00
1.02536497e+00
1.02844265e+00
1.03019759e+00
1.03068762e+00
1.02831895e+00
1.02567390e+00
1.02473475e+00
1.02826766e+00
1.03010966e+00
1.02850378e+00
1.02611774e+00
1.02797458e+00
1.02655091e+00
1.02611110e+00
1.02810158e+00
1.02624483e+00
1.02484304e+00
1.02702561e+00
1.02831277e+00
1.02755101e+00
1.02253130e+00
1.02298801e+00
1.02480164e+00
1.02643450e+00
1.02557131e+00
1.02343589e+00
1.02391859e+00
1.02633303e+00
1.02557169e+00
1.02538386e+00
1.02203830e+00
1.02272896e+00
1.02511462e+00
1.02413615e+00
1.02508128e+00
1.02286429e+00
1.02384796e+00
1.02577958e+00
1.02495465e+00
1.02275469e+00
1.02257765e+00
1.02134563e+00
1.02415729e+00
1.02240377e+00
1.02288306e+00
1.02022549e+00
1.01970749e+00
1.02391085e+00
1.05097658e+00
1.06602371e+00
1.05451226e+00
1.05761008e+00
1.05701957e+00
1.05016216e+00
1.04808787e+00
1.06172460e+00
1.05069233e+00
1.04386636e+00
1.04511340e+00
1.04283389e+00
1.03893138e+00
1.03997149e+00
1.03683341e+00
1.03532418e+00
1.04066002e+00
1.03712165e+00
1.02641647e+00
1.03668654e+00
1.04038631e+00
1.02720498e+00
1.03352281e+00
1.03076582e+00
1.03024977e+00
1.03071963e+00
1.03513058e+00
1.03363935e+00
1.03414413e+00
1.03551873e+00
1.03396065e+00
1.03687005e+00
1.03504294e+00
1.03426599e+00
1.03394924e+00
1.03596398e+00
1.03998534e+00
1.03705543e+00
1.02988839e+00
1.03470732e+00
1.04119988e+00
1.03994822e+00
1.03041241e+00
1.03210962e+00
1.04083609e+00
1.03492431e+00
1.03237103e+00
1.03837339e+00
1.03584134e+00
1.03294301e+00
1.03261780e+00
1.03709283e+00
1.03479446e+00
1.02939900e+00
1.03245293e+00
1.03431884e+00
1.03351405e+00
1.03354224e+00
1.03039812e+00
1.03085529e+00
1.03312337e+00
1.03171722e+00
1.03036930e+00
1.02668450e+00
1.03367829e+00
1.03156319e+00
1.02963302e+00
1.03227019e+00
1.02872434e+00
1.02880564e+00
1.03479375e+00
1.02911132e+00
1.02624659e+00
1.02836814e+00
1.03007260e+00
1.03138857e+00
1.03029106e+00
1.03004406e+00
1.02504271e+00
1.02810722e+00
1.02775017e+00
1.02987696e+00
1.02911176e+00
1.02742296e+00
1.02688750e+00
1.02859516e+00
1.02647426e+00
1.02524254e+00
1.02529516e+00
1.02808876e+00
1.02989970e+00
1.03014628e+00
1.02506742e+00
1.02349697e+00
1.02602906e+00
1.02747113e+00
1.02678018e+00
1.02661441e+00
1.02510053e+00
1.02508778e+00
1.02515694e+00
1.02624315e+00
1.02369560e+00
1.02445354e+00
1.02597993e+00
1.02583168e+00
1.02625202e+00
1.02501042e+00
1.02112069e+00
1.02314369e+00
1.02542592e+00
1.02619361e+00
1.02405936e+00
1.01998280e+00
1.02442805e+00
1.02696284e+00
1.02586114e+00
1.02216395e+00
1.02098455e+00
1.02198496e+00
1.02429920e+00
1.02173181e+00
1.02014953e+00
1.01950907e+00
1.02228788e+00
1.02438721e+00
1.02010500e+00
1.01907715e+00
1.06749560e+00
1.04908346e+00
1.04905724e+00
1.06371969e+00
1.05600950e+00
1.05612470e+00
1.05442651e+00
1.04844476e+00
1.04595594e+00
1.05238219e+00
1.04349271e+00
1.04990400e+00
1.04701500e+00
1.03722159e+00
1.04684409e+00
1.03876782e+00
1.03233105e+00
1.03813474e+00
1.03922923e+00
1.04163620e+00
1.02569071e+00
1.03144982e+00
1.04037209e+00
1.03096232e+00
1.03625742e+00
1.03366819e+00
1.03291193e+00
1.03523736e+00
1.03681479e+00
1.03631100e+00
1.03396365e+00
1.03616127e+00
1.03533808e+00
1.03800097e+00
1.03915171e+00
1.03486799e+00
1.03293784e+00
1.03483573e+00
1.03922936e+00
1.04376962e+00
1.03551976e+00
1.03081119e+00
1.03721244e+00
1.03976994e+00
1.03565806e+00
1.03143599e+00
1.03734937e+00
1.03967449e+00
1.03277800e+00
1.03392582e+00
1.03233476e+00
1.03385980e+00
1.03525081e+00
1.03420891e+00
1.03155957e+00
1.03356982e+00
1.03016675e+00
1.03184615e+00
1.03699753e+00
1.03006342e+00
1.02859550e+00
1.02831879e+00
1.03520183e+00
1.03289376e+00
1.02862267e+00
1.03317997e+00
1.02589576e+00
1.02863327e+00
1.03471149e+00
1.02943924e+00
1.02840070e+00
1.02960901e+00
1.02956878e+00
1.03019218e+00
1.02905390e+00
1.02852275e+00
1.02803028e+00
1.03231614e+00
1.02964199e+00
1.02926635e+00
1.02660347e+00
1.02804555e+00
1.03091258e+00
1.03080368e+00
1.02873323e+00
1.02610020e+00
1.02599546e+00
1.02632893e+00
1.02952217e+00
1.03004422e+00
1.02696647e+00
1.02681081e+00
1.02776496e+00
1.02799835e+00
1.02631470e+00
1.02567342e+00
1.02612673e+00
1.02871811e+00
1.02890621e+00
1.02650133e+00
1.02232720e+00
1.02386904e+00
1.02528517e+00
1.02745124e+00
1.02674331e+00
1.02323284e+00
1.02385995e+00
1.02666907e+00
1.02543507e+00
1.02314875e+00
1.02012751e+00
1.02365919e+00
1.02567488e+00
1.02573324e+00
1.02408020e+00
1.02270690e+00
1.02300326e+00
1.02426602e+00
1.02387196e+00
1.02336503e+00
1.02085396e+00
1.02094841e+00
1.02418729e+00
1.02282713e+00
1.02283172e+00
1.02155686e+00
1.02095684e+00
1.02131752e+00
1.05867293e+00
1.05727642e+00
1.05847421e+00
1.05188059e+00
1.05351147e+00
1.05868108e+00
1.05266062e+00
1.04933907e+00
1.04971368e+00
1.05066750e+00
1.04445766e+00
1.04876150e+00
1.04295232e+00
1.04570832e+00
1.04328711e+00
1.03606524e+00
1.04587976e+00
1.04150345e+00
1.03247120e+00
1.03868995e+00
1.03364880e+00
1.04128831e+00
1.03606963e+00
1.03015366e+00
1.03958700e+00
1.04193659e+00
1.03784520e+00
1.03294283e+00
1.03317909e+00
1.03463964e+00
1.04027110e+00
1.04004741e+00
1.03636910e+00
1.03250674e+00
1.03267121e+00
1.03575623e+00
1.03777815e+00
1.03840821e+00
1.03578124e+00
1.03493157e+00
1.03352413e+00
1.04078778e+00
1.04313504e+00
1.03079875e+00
1.02958418e+00
1.03777541e+00
1.04185367e+00
1.03313398e+00
1.02853999e+00
1.03502888e+00
1.03676823e+00
1.03453594e+00
1.03212662e+00
1.03379697e+00
1.03197315e+00
1.03208067e+00
1.03655632e+00
1.03364586e+00
1.02976042e+00
1.03005934e+00
1.03297352e+00
1.03520859e+00
1.02869261e+00
1.03180338e+00
1.02955124e+00
1.03142425e+00
1.03404004e+00
1.02596753e+00
1.03082554e+00
1.03070196e+00
1.02908276e+00
1.03154584e+00
1.02939620e+00
1.02494150e+00
1.02852484e+00
1.03330229e+00
1.03267046e+00
1.02873750e+00
1.02520110e+00
1.02738522e+00
1.02842679e+00
1.03032442e+00
1.02975350e+00
1.02842805e+00
1.02948707e+00
1.02630838e+00
1.02838832e+00
1.02685564e+00
1.02665322e+00
1.02920695e+00
1.03003336e+00
1.02878279e+00
1.02574549e+00
1.02360051e+00
1.02603818e+00
1.02936472e+00
1.02970782e+00
1.02735964e+00
1.02357566e+00
1.02499799e+00
1.02614052e+00
1.02686908e+00
1.02464638e+00
1.02283716e+00
1.02475007e+00
1.02697144e+00
1.02684415e+00
1.02383983e+00
1.01953180e+00
1.02390963e+00
1.02484649e+00
1.02584002e+00
1.02259286e+00
1.02174699e+00
1.02486463e+00
1.02612890e+00
1.02329883e+00
1.02199627e+00
1.02129566e+00
1.02366715e+00
1.02400493e+00
1.02124760e+00
1.02210341e+00
1.02022990e+00
1.02103296e+00
1.02183056e+00
1.02261147e+00
1.02386587e+00
1.04883991e+00
1.05089696e+00
1.06176666e+00
1.05182043e+00
1.04887445e+00
1.05731519e+00
1.05267430e+00
1.04858085e+00
1.05171785e+00
1.04994123e+00
1.04838738e+00
1.04535483e+00
1.04205622e+00
1.05149934e+00
1.04313355e+00
1.04054553e+00
1.04381131e+00
1.04082051e+00
1.04141693e+00
1.04245893e+00
1.03724998e+00
1.03695704e+00
1.03613372e+00
1.04343517e+00
1.03904375e+00
1.03399345e+00
1.03715375e+00
1.03930069e+00
1.03824500e+00
1.03654796e+00
1.03536443e+00
1.03645248e+00
1.03564939e+00
1.03795233e+00
1.03562905e+00
1.03430551e+00
1.03589430e+00
1.03804008e+00
1.03411042e+00
1.03544581e+00
1.03701798e+00
1.03969460e+00
1.03464741e+00
1.03277570e+00
1.03981708e+00
1.03531034e+00
1.03238403e+00
1.03384517e+00
1.03640287e+00
1.03465042e+00
1.02998481e+00
1.03306738e+00
1.03441009e+00
1.03629910e+00
1.03561617e+00
1.02759642e+00
1.03180917e+00
1.03571113e+00
1.03216481e+00
1.03451338e+00
1.03001575e+00
1.03220134e+00
1.02916690e+00
1.03407163e+00
1.03493335e+00
1.02342638e+00
1.03028764e+00
1.02987964e+00
1.03079249e+00
1.03142029e+00
1.03012933e+00
1.02865498e+00
1.02958857e+00
1.02910609e+00
1.02956257e+00
1.02877340e+00
1.02917705e+00
1.02908571e+00
1.02804911e+00
1.02897193e+00
1.02524932e+00
1.02850540e+00
1.03166231e+00
1.03012638e+00
1.02913370e+00
1.02314926e+00
1.02503589e+00
1.02757762e+00
1.03001049e+00
1.02939239e+00
1.02565750e+00
1.02608972e+00
1.02732498e+00
1.02674360e+00
1.02793139e+00
1.02673394e+00
1.02630726e+00
1.02853887e+00
1.02736924e+00
1.02543989e+00
1.02228956e+00
1.02371601e+00
1.02570206e+00
1.02754943e+00
1.02599666e+00
1.02579594e+00
1.02500387e+00
1.02675437e+00
1.02368222e+00
1.02517057e+00
1.02265175e+00
1.02214687e+00
1.02350305e+00
1.02589246e+00
1.02677253e+00
1.02376088e+00
1.02160783e+00
1.02469411e+00
1.02433787e+00
1.02362690e+00
1.02122464e+00
1.02037490e+00
1.02241374e+00
1.02271835e+00
1.02383280e+00
1.02040788e+00
1.01847200e+00
1.02176969e+00
1.05584783e+00
1.05510789e+00
1.04901698e+00
1.05646549e+00
1.05785494e+00
1.04776851e+00
1.04858215e+00
1.05508207e+00
1.05108639e+00
1.04459652e+00
1.04890101e+00
1.04675054e+00
1.04642475e+00
1.04295305e+00
1.04553182e+00
1.04959940e+00
1.03542251e+00
1.04338110e+00
1.04465308e+00
1.03518207e+00
1.04205172e+00
1.04235892e+00
1.03592472e+00
1.04184330e+00
1.03463279e+00
1.03592750e+00
1.04350367e+00
1.04027245e+00
1.03539902e+00
1.03713717e+00
1.03958743e+00
1.03670818e+00
1.03379237e+00
1.03650702e+00
1.03796178e+00
1.03700075e+00
1.03843531e+00
1.03556360e+00
1.03295074e+00
1.04006845e+00
1.03705378e+00
1.03340531e+00
1.03394516e+00
1.03759057e+00
1.03821123e+00
1.03194099e+00
1.03393565e+00
1.03840893e+00
1.03395041e+00
1.03372005e+00
1.03003665e+00
1.03849650e+00
1.03729737e+00
1.03022200e+00
1.03045638e+00
1.03416282e+00
1.03172330e+00
1.03384682e+00
1.03256026e+00
1.02998744e+00
1.02898110e+00
1.03234370e+00
1.03345399e+00
1.02562004e+00
1.03101618e+00
1.03265379e+00
1.02851111e+00
1.03075658e+00
1.02773970e+00
1.02582075e+00
1.03233250e+00
1.03186666e+00
1.02613508e+00
1.02653381e+00
1.02773465e+00
1.03043322e+00
1.03084350e+00
1.02919909e+00
1.02382029e+00
1.02680488e+00
1.02824670e+00
1.03090913e+00
1.03032126e+00
1.02694345e+00
1.02653062e+00
1.02711727e+00
1.02863718e+00
1.02624480e+00
1.02566695e+00
1.02989019e+00
1.02867363e+00
1.02838164e+00
1.02602065e+00
1.02347805e+00
1.02531995e+00
1.02779571e+00
1.03027915e+00
1.02878964e+00
1.02326157e+00
1.02471908e+00
1.02631272e+00
1.02754141e+00
1.02155143e+00
1.02208893e+00
1.02577564e+00
1.02887408e+00
1.02620319e+00
1.02357550e+00
1.02092301e+00
1.02489328e+00
1.02402844e+00
1.02476294e+00
1.02292171e+00
1.02212235e+00
1.02520850e+00
1.02566786e+00
1.02375816e+00
1.02359320e+00
1.02100360e+00
1.02173966e+00
1.02407871e+00
1.02341714e+00
1.02504899e+00
1.01907762e+00
1.02000181e+00
1.02276807e+00
1.02422264e+00
1.02061114e+00
1.06357001e+00
1.05870420e+00
1.04547198e+00
1.05339432e+00
1.05522751e+00
1.04737355e+00
1.05152367e+00
1.05490808e+00
1.04569106e+00
1.04746192e+00
1.05062614e+00
1.04418354e+00
1.04953869e+00
1.04541243e+00
1.04575126e+00
1.04324033e+00
1.04091951e+00
1.04773218e+00
1.03788928e+00
1.04035052e+00
1.04305603e+00
1.03887130e+00
1.04063473e+00
1.03995972e+00
1.03680232e+00
1.04387656e+00
1.03829878e+00
1.03536054e+00
1.04263671e+00
1.04018219e+00
1.03498428e+00
1.03692346e+00
1.03837437e+00
1.03826171e+00
1.03718238e+00
1.03732638e+00
1.03353419e+00
1.03755650e+00
1.03952546e+00
1.03689249e+00
1.02851979e+00
1.03421428e+00
1.04349131e+00
1.03695862e+00
1.03204935e+00
1.03279359e+00
1.03695217e+00
1.03805193e+00
1.03128209e+00
1.03624147e+00
1.03410881e+00
1.03281423e+00
1.03378871e+00
1.03517182e+00
1.03251815e+00
1.03339298e+00
1.03126880e+00
1.02994460e+00
1.03363287e+00
1.03220848e+00
1.03000129e+00
1.02658361e+00
1.03328820e+00
1.03351714e+00
1.02995013e+00
1.03539703e+00
1.02737688e+00
1.02658463e+00
1.03334176e+00
1.03123241e+00
1.02807834e+00
1.02926241e+00
1.02815029e+00
1.03098986e+00
1.02859345e+00
1.02932242e+00
1.02791656e+00
1.03109162e+00
1.02965070e+00
1.02772407e+00
1.02733842e+00
1.02779712e+00
1.03061963e+00
1.03260596e+00
1.02833088e+00
1.02387994e+00
1.02614870e+00
1.02763204e+00
1.02975187e+00
1.03199717e+00
1.02664074e+00
1.02564843e+00
1.02621120e+00
1.02722572e+00
1.02677289e+00
1.02551897e+00
1.02707089e+00
1.02965344e+00
1.02709624e+00
1.02720325e+00
1.02242440e+00
1.02314748e+00
1.02421461e+00
1.02711943e+00
1.02817521e+00
1.02526082e+00
1.02217363e+00
1.02315113e+00
1.02469705e+00
1.02545739e+00
1.02070209e+00
1.02151073e+00
1.02433545e+00
1.02623418e+00
1.02665305e+00
1.02221538e+00
1.02163041e+00
1.02387277e+00
1.02527493e+00
1.02493344e+00
1.02147617e+00
1.01816848e+00
1.02245808e+00
1.02375597e+00
1.02323079e+00
1.01983231e+00
1.01927142e+00
1.02207973e+00
1.05660210e+00
1.05100124e+00
1.05642045e+00
1.05120464e+00
1.04634424e+00
1.05661080e+00
1.05631827e+00
1.04568557e+00
1.04719064e+00
1.05302235e+00
1.04937948e+00
1.04453915e+00
1.04595907e+00
1.04752135e+00
1.04573663e+00
1.04162866e+00
1.05101718e+00
1.04197367e+00
1.03726069e+00
1.04775255e+00
1.03802406e+00
1.03885192e+00
1.04656482e+00
1.03653061e+00
1.03759893e+00
1.04290814e+00
1.03638749e+00
1.04174314e+00
1.03898686e+00
1.03192621e+00
1.03647019e+00
1.04339989e+00
1.04064383e+00
1.03209220e+00
1.03546513e+00
1.03916633e+00
1.03991367e+00
1.03869136e+00
1.03088545e+00
1.03357129e+00
1.03732339e+00
1.04284969e+00
1.03891962e+00
1.02931290e+00
1.03452793e+00
1.03827462e+00
1.03651897e+00
1.03571672e+00
1.03244258e+00
1.03652043e+00
1.03530122e+00
1.03030978e+00
1.03180987e+00
1.03649137e+00
1.03386007e+00
1.02589198e+00
1.03336419e+00
1.03388085e+00
1.03171983e+00
1.03170664e+00
1.02987601e+00
1.03022404e+00
1.02725374e+00
1.03600275e+00
1.03050829e+00
1.02837727e+00
1.03354878e+00
1.02789776e+00
1.02934152e+00
1.03178730e+00
1.02980094e+00
1.03096597e+00
1.02856863e+00
1.02707071e+00
1.02628453e+00
1.03243460e+00
1.03185484e+00
1.02869592e+00
1.02603833e+00
1.02385769e+00
1.02787003e+00
1.03143238e+00
1.02856590e+00
1.02720340e+00
1.02786462e+00
1.02593974e+00
1.02753488e+00
1.02567645e+00
1.02684832e+00
1.02814222e+00
1.02922725e+00
1.02875234e+00
1.02347199e+00
1.02256421e+00
1.02593219e+00
1.02872077e+00
1.02969816e+00
1.02691886e+00
1.02408332e+00
1.02692477e+00
1.02500808e+00
1.02429939e+00
1.02430184e+00
1.02494924e+00
1.02583771e+00
1.02627951e+00
1.02686872e+00
1.02367602e+00
1.02175597e+00
1.02325663e+00
1.02395369e+00
1.02598740e+00
1.02465940e+00
1.02205781e+00
1.02425535e+00
1.02416406e+00
1.02646707e+00
1.02580738e+00
1.01953858e+00
1.02119052e+00
1.02421599e+00
1.02412338e+00
1.02183944e+00
1.01789087e+00
1.02239666e+00
1.02421547e+00
1.02134375e+00
1.02128045e+00
1.04642385e+00
1.04342426e+00
1.05750331e+00
1.05432773e+00
1.04867509e+00
1.05192428e+00
1.05000749e+00
1.05175021e+00
1.05206096e+00
1.04372386e+00
1.04523900e+00
1.05374286e+00
1.04635694e+00
1.04557686e+00
1.04577654e+00
1.04333032e+00
1.04896681e+00
1.04254999e+00
1.04404425e+00
1.04341327e+00
1.03842687e+00
1.04290616e+00
1.04322088e+00
1.04144263e+00
1.04320034e+00
1.03607208e+00
1.03709689e+00
1.04462671e+00
1.03284604e+00
1.03786318e+00
1.04088494e+00
1.03628198e+00
1.03730553e+00
1.04074847e+00
1.03897243e+00
1.03495431e+00
1.03629596e+00
1.03718681e+00
1.03315511e+00
1.04063591e+00
1.03925777e+00
1.03452451e+00
1.03348197e+00
1.03521702e+00
1.03923931e+00
1.03269548e+00
1.02994941e+00
1.03782231e+00
1.03757651e+00
1.03283090e+00
1.02706799e+00
1.03508219e+00
1.03608796e+00
1.02993267e+00
1.03235615e+00
1.02739692e+00
1.03024502e+00
1.03495772e+00
1.03221989e+00
1.03042824e+00
1.02713004e+00
1.03428397e+00
1.02705854e+00
1.03069161e+00
1.03462601e+00
1.02495217e+00
1.02893171e+00
1.03132162e+00
1.02800144e+00
1.02977445e+00
1.03261712e+00
1.02945851e+00
1.02649562e+00
1.02897643e+00
1.02996541e+00
1.03027487e+00
1.03010965e+00
1.02886613e+00
1.02890128e+00
1.02852210e+00
1.02604617e+00
1.02823763e+00
1.03088351e+00
1.03008171e+00
1.02856437e+00
1.02498049e+00
1.02652073e+00
1.02608634e+00
1.03159452e+00
1.03039607e+00
1.02748533e+00
1.02597381e+00
1.02543119e+00
1.02597641e+00
1.02679802e+00
1.02595532e+00
1.02752401e+00
1.02792008e+00
1.02844012e+00
1.02785781e+00
1.02207887e+00
1.02324777e+00
1.02449163e+00
1.02775830e+00
1.02748232e+00
1.02359193e+00
1.02294825e+00
1.02448610e+00
1.02528465e+00
1.02475478e+00
1.02037693e+00
1.02163654e+00
1.02471107e+00
1.02580525e+00
1.02550744e+00
1.02174338e+00
1.02226014e+00
1.02494977e+00
1.02348344e+00
1.02197887e+00
1.01975883e+00
1.02018788e+00
1.02254435e+00
1.02047720e+00
1.02128830e+00
1.02182033e+00
1.02074849e+00
1.02171913e+00
1.04748325e+00
1.05215921e+00
1.04584609e+00
1.04935250e+00
1.05653621e+00
1.05058746e+00
1.04491821e+00
1.05034814e+00
1.05105018e+00
1.04806211e+00
1.04754004e+00
1.05057081e+00
1.04524514e+00
1.04598850e+00
1.04668656e+00
1.04709396e+00
1.04474705e+00
1.04471640e+00
1.04393199e+00
1.03931084e+00
1.04269005e+00
1.04568103e+00
1.03906308e+00
1.04037620e+00
1.04420408e+00
1.03900705e+00
1.03928689e+00
1.04256228e+00
1.03419764e+00
1.04499920e+00
1.04021755e+00
1.03562732e+00
1.04188580e+00
1.03783560e+00
1.03470240e+00
1.03606858e+00
1.03851008e+00
1.04134021e+00
1.03726883e+00
1.03703719e+00
1.03403284e+00
1.03605820e+00
1.03961205e+00
1.03620856e+00
1.03428485e+00
1.03105237e+00
1.03724650e+00
1.04179681e+00
1.03016349e+00
1.03013565e+00
1.03017853e+00
1.03773506e+00
1.03526190e+00
1.02826184e+00
1.03163739e+00
1.03533101e+00
1.03258034e+00
1.02988083e+00
1.03338890e+00
1.03332547e+00
1.02853747e+00
1.02888170e+00
1.03262075e+00
1.02830716e+00
1.03176246e+00