# vtk DataFile Version 2.0
LBM Flow Field - Timestep 300
ASCII
DATASET STRUCTURED_POINTS
DIMENSIONS 128 128 1
ORIGIN 0.0 0.0 0.0
SPACING 1.0 1.0 1.0
POINT_DATA 16384
SCALARS density double 1
LOOKUP_TABLE default
1.31465289e+00
1.29577942e+00
1.27311798e+00
1.25137407e+00
1.22951856e+00
1.20922827e+00
1.18876825e+00
1.17039272e+00
1.15180265e+00
1.13564994e+00
1.11926079e+00
1.10547514e+00
1.09146269e+00
1.08003445e+00
1.06842411e+00
1.05921591e+00
1.04990155e+00
1.04268461e+00
1.03545758e+00
1.02995071e+00
1.02453412e+00
1.02043954e+00
1.01652319e+00
1.01355461e+00
1.01082631e+00
1.00872742e+00
1.00689786e+00
1.00545165e+00
1.00427105e+00
1.00330162e+00
1.00256801e+00
1.00193769e+00
1.00149775e+00
1.00110184e+00
1.00084618e+00
1.00060712e+00
1.00046231e+00
1.00032427e+00
1.00024380e+00
1.00016795e+00
1.00012386e+00
1.00008437e+00
1.00006052e+00
1.00004108e+00
1.00002842e+00
1.00001935e+00
1.00001283e+00
1.00000879e+00
1.00000557e+00
1.00000384e+00
1.00000234e+00
1.00000160e+00
1.00000095e+00
1.00000063e+00
1.00000037e+00
1.00000024e+00
1.00000014e+00
1.00000008e+00
1.00000005e+00
1.00000003e+00
1.00000002e+00
1.00000001e+00
1.00000001e+00
1.00000000e+00
1.00000000e+00
1.00000000e+00
1.00000000e+00
1.00000000e+00
1.00000000e+00
1.00000000e+00
1.00000000e+00
1.00000000e+00
1.00000000e+00
1.00000000e+00
1.00000000e+00
1.00000000e+00
1.00000000e+00
1.00000000e+00
1.00000000e+00
1.00000000e+00
1.00000000e+00
1.00000000e+00
1.00000000e+00
1.00000000e+00
1.00000000e+00
1.00000000e+00
1.00000000e+00
1.00000000e+00
1.00000000e+00
1.00000000e+00
1.00000000e+00
1.00000000e+00
1.00000000e+00
1.00000000e+00
1.00000000e+00
1.00000000e+00
1.00000000e+00
1.00000000e+00
1.00000000e+00
1.00000000e+00
1.00000000e+00
1.00000000e+00
1.00000000e+00
1.00000000e+00
1.00000000e+00
1.00000000e+00
1.00000000e+00
1.00000000e+00
1.00000000e+00
1.00000000e+00
1.00000000e+00
1.00000000e+00
1.00000000e+00
1.00000000e+00
1.00000000e+00
1.00000000e+00
1.00000000e+00
1.00000000e+00
1.00000000e+00
1.00000000e+00
1.00000000e+00
1.00000000e+00
1.00000000e+00
1.00000000e+00
1.00000000e+00
1.00000000e+00
1.00000000e+00
1.00000000e+00
1.12618389e+00
1.10706976e+00
1.09052679e+00
1.08997293e+00
1.08513345e+00
1.07686776e+00
1.07283286e+00
1.08009362e+00
1.07367911e+00
1.07555367e+00
1.07596535e+00
1.07515173e+00
1.07310185e+00
1.07062601e+00
1.07051087e+00
1.07517135e+00
1.07140115e+00
1.07638026e+00
1.07637549e+00
1.07718611e+00
1.07218939e+00
1.07648913e+00
1.07351685e+00
1.07307609e+00
1.07968933e+00
1.07660608e+00
1.07816901e+00
1.07772563e+00
1.08100352e+00
1.07957751e+00
1.08005402e+00
1.08176854e+00
1.07828818e+00
1.07889537e+00
1.08581849e+00
1.07987532e+00
1.07954232e+00
1.07835361e+00
1.08309668e+00
1.08170351e+00
1.08093556e+00
1.08484428e+00
1.08086846e+00
1.08455930e+00
1.08351769e+00
1.08006045e+00
1.08394575e+00
1.08156843e+00
1.08167650e+00
1.08332546e+00
1.08092795e+00
1.08078530e+00
1.07899925e+00
1.08094122e+00
1.08198889e+00
1.07777227e+00
1.07966983e+00
1.07927242e+00
1.07969297e+00
1.08007901e+00
1.07909133e+00
1.08195649e+00
1.08014614e+00
1.08001979e+00
1.07865083e+00
1.07797370e+00
1.07778507e+00
1.07662911e+00
1.07800606e+00
1.08144321e+00
1.07869565e+00
1.08113604e+00
1.08127754e+00
1.07922306e+00
1.07771788e+00
1.07632164e+00
1.07474427e+00
1.07217467e+00
1.07518897e+00
1.07527613e+00
1.07072044e+00
1.07293290e+00
1.06991428e+00
1.06523106e+00
1.06465246e+00
1.06207029e+00
1.06412905e+00
1.06423159e+00
1.06665028e+00
1.06456581e+00
1.06032588e+00
1.05881570e+00
1.06185436e+00
1.06086699e+00
1.06044890e+00
1.05852075e+00
1.05701602e+00
1.05850010e+00
1.06124550e+00
1.05839814e+00
1.05795705e+00
1.05956778e+00
1.06067440e+00
1.05884344e+00
1.05734514e+00
1.05715753e+00
1.05470437e+00
1.05622269e+00
1.05433396e+00
1.05388571e+00
1.05424864e+00
1.05247174e+00
1.05222543e+00
1.05395160e+00
1.05302478e+00
1.04972866e+00
1.05036492e+00
1.05077610e+00
1.04877734e+00
1.04978568e+00
1.04900057e+00
1.04743298e+00
1.05021618e+00
1.05201488e+00
1.05043599e+00
1.05142630e+00
1.05119049e+00
1.04952610e+00
1.10746832e+00
1.10260331e+00
1.09822114e+00
1.08811969e+00
1.07970646e+00
1.08147093e+00
1.08156175e+00
1.08018015e+00
1.07404215e+00
1.07491515e+00
1.07316201e+00
1.07496610e+00
1.07703228e+00
1.07203260e+00
1.06958001e+00
1.07049886e+00
1.07209260e+00
1.07740646e+00
1.07389630e+00
1.07786812e+00
1.07489144e+00
1.07389008e+00
1.07222187e+00
1.07252954e+00
1.07652674e+00
1.07526195e+00
1.07987256e+00
1.07961219e+00
1.08188891e+00
1.08155768e+00
1.07946726e+00
1.08379721e+00
1.08360302e+00
1.08308817e+00
1.08414785e+00
1.07968880e+00
1.08056186e+00
1.07894568e+00
1.07910244e+00
1.07736006e+00
1.07778877e+00
1.08652244e+00
1.07781110e+00
1.07922076e+00
1.08377716e+00
1.08249300e+00
1.08297600e+00
1.08105493e+00
1.08251107e+00
1.08160094e+00
1.07649731e+00
1.07998446e+00
1.08112587e+00
1.08201627e+00
1.08394232e+00
1.07952459e+00
1.08386320e+00
1.08076410e+00
1.07620811e+00
1.07977814e+00
1.07912739e+00
1.08036652e+00
1.08291315e+00
1.07934806e+00
1.08285596e+00
1.07835404e+00
1.07716758e+00
1.07902962e+00
1.07470819e+00
1.08065920e+00
1.08105366e+00
1.07858571e+00
1.08016463e+00
1.08042818e+00
1.07962125e+00
1.07525680e+00
1.07721140e+00
1.07513318e+00
1.07340048e+00
1.07218398e+00
1.07119210e+00
1.06887163e+00
1.06798736e+00
1.06425790e+00
1.06493216e+00
1.06197820e+00
1.06458831e+00
1.06655363e+00
1.06710606e+00
1.06363195e+00
1.05506157e+00
1.05801452e+00
1.06340854e+00
1.06487566e+00
1.06044539e+00
1.05778033e+00
1.05721225e+00
1.06151905e+00
1.06320929e+00
1.05699548e+00
1.05382425e+00
1.05888589e+00
1.05956524e+00
1.05670093e+00
1.05556666e+00
1.05740709e+00
1.05740333e+00
1.05628580e+00
1.05449279e+00
1.05395192e+00
1.05345484e+00
1.05024247e+00
1.05260896e+00
1.05511931e+00
1.05097691e+00
1.04859592e+00
1.05203004e+00
1.04993946e+00
1.04938588e+00
1.05098586e+00
1.05143197e+00
1.04721405e+00
1.04723060e+00
1.05026940e+00
1.04897059e+00
1.04973814e+00
1.05118913e+00
1.05008130e+00
1.09629610e+00
1.10304455e+00
1.09676712e+00
1.08732913e+00
1.08128156e+00
1.08560598e+00
1.08019359e+00
1.07638508e+00
1.07742127e+00
1.07661373e+00
1.07630779e+00
1.07472931e+00
1.07674352e+00
1.07384118e+00
1.07491008e+00
1.07092029e+00
1.07349889e+00
1.07965584e+00
1.07531463e+00
1.07660001e+00
1.07325776e+00
1.07356059e+00
1.07107234e+00
1.07530005e+00
1.07794907e+00
1.07950559e+00
1.07759476e+00
1.07546801e+00
1.07820482e+00
1.08523485e+00
1.07972677e+00
1.08334670e+00
1.08172326e+00
1.08512469e+00
1.08124879e+00
1.08032226e+00
1.08167778e+00
1.08029485e+00
1.08106574e+00
1.08618032e+00
1.08121333e+00
1.08181118e+00
1.07392933e+00
1.08154864e+00
1.08622389e+00
1.08313580e+00
1.08112268e+00
1.07986733e+00
1.08424762e+00
1.08146543e+00
1.07580081e+00
1.07809987e+00
1.07880373e+00
1.08273405e+00
1.08396871e+00
1.07945613e+00
1.08000349e+00
1.07932310e+00
1.07859088e+00
1.08027185e+00
1.07846073e+00
1.07823885e+00
1.08335479e+00
1.07944190e+00
1.08048350e+00
1.07960609e+00
1.07663136e+00
1.08061538e+00
1.07758614e+00
1.07771932e+00
1.08127550e+00
1.08020832e+00
1.08019184e+00
1.07983038e+00
1.08140761e+00
1.07816619e+00
1.07607745e+00
1.07688918e+00
1.07485504e+00
1.06986833e+00
1.07319881e+00
1.07007270e+00
1.06303906e+00
1.06287709e+00
1.06460484e+00
1.06287526e+00
1.06396723e+00
1.06905762e+00
1.06852350e+00
1.06244997e+00
1.05221595e+00
1.05826464e+00
1.06639251e+00
1.06629862e+00
1.06135477e+00
1.05450683e+00
1.05684537e+00
1.06405425e+00
1.06512283e+00
1.05448142e+00
1.05039791e+00
1.05936283e+00
1.06268786e+00
1.05565703e+00
1.05325498e+00
1.05458300e+00
1.05951846e+00
1.05572110e+00
1.05281807e+00
1.05686015e+00
1.05610973e+00
1.04781823e+00
1.04869836e+00
1.05404051e+00
1.05273293e+00
1.04683957e+00
1.05249832e+00
1.05196625e+00
1.04790354e+00
1.05144133e+00
1.05422664e+00
1.04805869e+00
1.04463117e+00
1.04880991e+00
1.04660434e+00
1.04718283e+00
1.05086933e+00
1.05040105e+00
1.10149599e+00
1.09343152e+00
1.08896698e+00
1.09516981e+00
1.09167895e+00
1.08356806e+00
1.07875397e+00
1.08160880e+00
1.07948881e+00
1.07335830e+00
1.08062746e+00
1.08266407e+00
1.07794645e+00
1.07123396e+00
1.07701451e+00
1.07397130e+00
1.07412611e+00
1.08091115e+00
1.07919333e+00
1.07521147e+00
1.06887767e+00
1.07793625e+00
1.07549174e+00
1.07752207e+00
1.07822556e+00
1.07934922e+00
1.07519815e+00
1.07792060e+00
1.07873711e+00
1.08293963e+00
1.07846940e+00
1.08426477e+00
1.07787714e+00
1.08266059e+00
1.07809446e+00
1.07844469e+00
1.07971413e+00
1.08534677e+00
1.08569183e+00
1.08620203e+00
1.07819257e+00
1.08395371e+00
1.07881599e+00
1.08636639e+00
1.08095749e+00
1.08074411e+00
1.08168120e+00
1.08110773e+00
1.07959421e+00
1.08320700e+00
1.07830067e+00
1.08293085e+00
1.07705160e+00
1.08303105e+00
1.07981298e+00
1.07841544e+00
1.07788969e+00
1.08141839e+00
1.08026869e+00
1.08048773e+00
1.07619979e+00
1.08145308e+00
1.08194950e+00
1.08054718e+00
1.07708371e+00
1.08245294e+00
1.07641186e+00
1.07785335e+00
1.07829658e+00
1.07707572e+00
1.07720064e+00
1.08048630e+00
1.08219024e+00
1.07926795e+00
1.07926786e+00
1.08129690e+00
1.07655867e+00
1.07600406e+00
1.07641754e+00
1.06928604e+00
1.07055700e+00
1.06932625e+00
1.06239690e+00
1.06180880e+00
1.06503990e+00
1.06385050e+00
1.06521520e+00
1.06781114e+00
1.06788169e+00
1.05953922e+00
1.05066958e+00
1.05912535e+00
1.07048784e+00
1.06411203e+00
1.05803309e+00
1.05365142e+00
1.05720287e+00
1.06534334e+00
1.06560084e+00
1.05172828e+00
1.05011987e+00
1.06347286e+00
1.06310851e+00
1.05310200e+00
1.05189772e+00
1.05537751e+00
1.06001910e+00
1.05355930e+00
1.04994136e+00
1.05507670e+00
1.05756321e+00
1.04859024e+00
1.04718935e+00
1.05587082e+00
1.05324718e+00
1.04688353e+00
1.05089599e+00
1.05348846e+00
1.04584265e+00
1.04981159e+00
1.05606718e+00
1.05009536e+00
1.04577431e+00
1.04956826e+00
1.04456700e+00
1.04455561e+00
1.05059624e+00
1.05015959e+00
1.10038167e+00
1.09297189e+00
1.09396038e+00
1.09175057e+00
1.08447488e+00
1.08429467e+00
1.08375686e+00
1.08368346e+00
1.07993290e+00
1.07989564e+00
1.08450470e+00
1.07851467e+00
1.07264199e+00
1.07248950e+00
1.07955038e+00
1.07901990e+00
1.07963921e+00
1.07503490e+00
1.07389990e+00
1.07056045e+00
1.07224855e+00
1.08186831e+00
1.07758281e+00
1.07836013e+00
1.08117373e+00
1.07703864e+00
1.07776400e+00
1.08111046e+00
1.08425264e+00
1.08258286e+00
1.08095034e+00
1.08287262e+00
1.07802321e+00
1.08192075e+00
1.08060667e+00
1.07780779e+00
1.07640912e+00
1.07932991e+00
1.08366435e+00
1.08072716e+00
1.07865373e+00
1.08801280e+00
1.08091960e+00
1.08399527e+00
1.07737340e+00
1.07977469e+00
1.07925807e+00
1.07925055e+00
1.07941099e+00
1.08794132e+00
1.07954668e+00
1.08471075e+00
1.07643829e+00
1.08185681e+00
1.07824561e+00
1.07769731e+00
1.08326352e+00
1.08363473e+00
1.08009654e+00
1.08302522e+00
1.07568955e+00
1.07968185e+00
1.07949354e+00
1.08135508e+00
1.08074023e+00
1.08066948e+00
1.07882948e+00
1.07602316e+00
1.07427889e+00
1.07646218e+00
1.07645754e+00
1.07899026e+00
1.08414556e+00
1.07925814e+00
1.07610374e+00
1.07983128e+00
1.07719063e+00
1.07486157e+00
1.07425148e+00
1.07139262e+00
1.07265453e+00
1.06861106e+00
1.06033440e+00
1.05986108e+00
1.06074742e+00
1.06273735e+00
1.06786209e+00
1.07050820e+00
1.06702692e+00
1.05793785e+00
1.05066775e+00
1.05920925e+00
1.07206298e+00
1.06554860e+00
1.05500010e+00
1.05182336e+00
1.05397783e+00
1.06736452e+00
1.06730080e+00
1.05363506e+00
1.05047283e+00
1.06559603e+00
1.06329525e+00
1.05002176e+00
1.05033982e+00
1.05775852e+00
1.06019807e+00
1.05024258e+00
1.04585634e+00
1.05475702e+00
1.05844366e+00
1.05118238e+00
1.04647211e+00
1.05581190e+00
1.05212872e+00
1.04635250e+00
1.05370215e+00
1.05457533e+00
1.04261825e+00
1.04840007e+00
1.05454539e+00
1.04742215e+00
1.04680728e+00
1.05239151e+00
1.04554768e+00
1.04470015e+00
1.05080677e+00
1.04898537e+00
1.08839033e+00
1.09475668e+00
1.09869921e+00
1.08578871e+00
1.08617812e+00
1.08588057e+00
1.08240961e+00
1.07938812e+00
1.08240735e+00
1.08385410e+00
1.08017255e+00
1.07583361e+00
1.08033121e+00
1.08136188e+00
1.07844782e+00
1.07453298e+00
1.07825151e+00
1.07358305e+00
1.07745907e+00
1.07464009e+00
1.07655693e+00
1.07831469e+00
1.07813692e+00
1.07560015e+00
1.07598990e+00
1.07609541e+00
1.08330129e+00
1.08178931e+00
1.08374237e+00
1.07892652e+00
1.08169074e+00
1.08181746e+00
1.08382945e+00
1.08590587e+00
1.08152469e+00
1.07887136e+00
1.08276964e+00
1.07892002e+00
1.08041884e+00
1.07532140e+00
1.08000350e+00
1.08496653e+00
1.08261246e+00
1.08470095e+00
1.08017881e+00
1.07899500e+00
1.08173107e+00
1.08071072e+00
1.07959605e+00
1.07920601e+00
1.07808424e+00
1.08236926e+00
1.07937064e+00
1.07965005e+00
1.08275392e+00
1.07936008e+00
1.08453247e+00
1.07954278e+00
1.07619846e+00
1.08048744e+00
1.07856535e+00
1.07770668e+00
1.07997218e+00
1.08257643e+00
1.08387928e+00
1.07747266e+00
1.07781496e+00
1.07852153e+00
1.07272678e+00
1.07537170e+00
1.07705286e+00
1.07869006e+00
1.08429961e+00
1.08176974e+00
1.07921119e+00
1.07906235e+00
1.07655337e+00
1.07740112e+00
1.07422724e+00
1.07240826e+00
1.07382749e+00
1.06724853e+00
1.05703663e+00
1.05903412e+00
1.06107067e+00
1.06293841e+00
1.06801959e+00
1.07503107e+00
1.06718114e+00
1.05284798e+00
1.04717245e+00
1.05804750e+00
1.07127892e+00
1.06692079e+00
1.05738990e+00
1.05471623e+00
1.05410026e+00
1.06687147e+00
1.06620509e+00
1.05208701e+00
1.05101370e+00
1.06526774e+00
1.06315600e+00
1.04915072e+00
1.04966635e+00
1.06017674e+00
1.05917795e+00
1.04878158e+00
1.04376103e+00
1.05691754e+00
1.05989776e+00
1.04666435e+00
1.04714102e+00
1.05835151e+00
1.05218283e+00
1.04409458e+00
1.05416576e+00
1.05429593e+00
1.04285020e+00
1.04960157e+00
1.05325236e+00
1.04535268e+00
1.04829202e+00
1.05527309e+00
1.04792507e+00
1.04391947e+00
1.05023850e+00
1.04937469e+00
1.08896311e+00
1.09444833e+00
1.08864372e+00
1.08392370e+00
1.09201760e+00
1.08273113e+00
1.08437852e+00
1.08635423e+00
1.08553272e+00
1.07754979e+00
1.07659617e+00
1.08026154e+00
1.08172737e+00
1.07694033e+00
1.08006576e+00
1.07963156e+00
1.07778023e+00
1.07091795e+00
1.07844702e+00
1.08002049e+00
1.07863357e+00
1.07642530e+00
1.07617070e+00
1.07617404e+00
1.07799454e+00
1.08142503e+00
1.08473239e+00
1.07936356e+00
1.07877369e+00
1.07549971e+00
1.08059029e+00
1.07810219e+00
1.07655456e+00
1.08474573e+00
1.08370803e+00
1.08357412e+00
1.08518639e+00
1.07807717e+00
1.08145068e+00
1.08125866e+00
1.08477637e+00
1.07943365e+00
1.07904298e+00
1.08459555e+00
1.08218444e+00
1.07947761e+00
1.08437872e+00
1.07868773e+00
1.07960776e+00
1.07477914e+00
1.08080129e+00
1.08135586e+00
1.07849357e+00
1.07740853e+00
1.08384665e+00
1.07972057e+00
1.08115695e+00
1.07834238e+00
1.07933207e+00
1.07776518e+00
1.07886332e+00
1.07842267e+00
1.07958552e+00
1.07890336e+00
1.08075054e+00
1.08152978e+00
1.07858630e+00
1.07898689e+00
1.07676702e+00
1.07666450e+00
1.07731199e+00
1.07693915e+00
1.08162259e+00
1.07876964e+00
1.08310860e+00
1.08286721e+00
1.07819282e+00
1.07835964e+00
1.07746889e+00
1.07037907e+00
1.07242657e+00
1.06643410e+00
1.05922127e+00
1.05850956e+00
1.05953982e+00
1.06043676e+00
1.06880964e+00
1.07816856e+00
1.06755817e+00
1.05164506e+00
1.04519014e+00
1.05872958e+00
1.07233193e+00
1.06938072e+00
1.05875080e+00
1.05231847e+00
1.05321702e+00
1.06632781e+00
1.06852676e+00
1.05109261e+00
1.04810260e+00
1.06414537e+00
1.06279131e+00
1.04984005e+00
1.04971449e+00
1.05891285e+00
1.06063173e+00
1.05185954e+00
1.04483028e+00
1.05337172e+00
1.05783325e+00
1.04394658e+00
1.04839525e+00
1.06017540e+00
1.05114157e+00
1.04155412e+00
1.05345077e+00
1.05561028e+00
1.04448360e+00
1.04932101e+00
1.05268418e+00
1.04431846e+00
1.04786778e+00
1.05600832e+00
1.04851436e+00
1.04251121e+00
1.04909763e+00
1.04969214e+00
1.09540878e+00
1.09073123e+00
1.08103408e+00
1.08876675e+00
1.08859101e+00
1.08337990e+00
1.08515541e+00
1.08602180e+00
1.08143083e+00
1.07826654e+00
1.08075925e+00
1.08735907e+00
1.07901662e+00
1.07579130e+00
1.07959257e+00
1.07825686e+00
1.07549511e+00
1.07639030e+00
1.08054190e+00
1.07583530e+00
1.07370267e+00
1.07649666e+00
1.07953503e+00
1.08384839e+00
1.07936064e+00
1.08199706e+00
1.08233640e+00
1.08335947e+00
1.08466077e+00
1.07847101e+00
1.08137595e+00
1.07996828e+00
1.07356992e+00
1.07773350e+00
1.07802313e+00
1.08253956e+00
1.08487437e+00
1.08258925e+00
1.08475019e+00
1.07909502e+00
1.08114860e+00
1.08009794e+00
1.07900650e+00
1.08226006e+00
1.07778710e+00
1.07827499e+00
1.08463104e+00
1.07897062e+00
1.08276643e+00
1.07957352e+00
1.08016536e+00
1.08075505e+00
1.07823834e+00
1.08136610e+00
1.07938810e+00
1.07838662e+00
1.08302453e+00
1.08083749e+00
1.08160606e+00
1.08019030e+00
1.07775507e+00
1.07967380e+00
1.07870933e+00
1.07824468e+00
1.07792439e+00
1.08353512e+00
1.08199544e+00
1.07761195e+00
1.07941119e+00
1.07668692e+00
1.07612308e+00
1.07589597e+00
1.08075681e+00
1.07742500e+00
1.08231434e+00
1.08569528e+00
1.07671715e+00
1.07549137e+00
1.07757387e+00
1.07214616e+00
1.07020935e+00
1.06573918e+00
1.05846324e+00
1.06008125e+00
1.05810538e+00
1.05790004e+00
1.06955369e+00
1.07856539e+00
1.06570250e+00
1.05130792e+00
1.04690632e+00
1.05692782e+00
1.07128826e+00
1.06848980e+00
1.05990122e+00
1.05506914e+00
1.05479795e+00
1.06581593e+00
1.06582008e+00
1.04894453e+00
1.04821417e+00
1.06657967e+00
1.06422277e+00
1.04896367e+00
1.05050242e+00
1.05585004e+00
1.05813030e+00
1.05273995e+00
1.04766760e+00
1.05354741e+00
1.05671324e+00
1.04524613e+00
1.04886183e+00
1.05723980e+00
1.04872652e+00
1.04206879e+00
1.05477137e+00
1.05650772e+00
1.04459621e+00
1.04879009e+00
1.05483218e+00
1.04387060e+00
1.04536842e+00
1.05617191e+00
1.04903808e+00
1.04047159e+00
1.04809453e+00
1.04864404e+00
1.09318531e+00
1.08484873e+00
1.08607581e+00
1.08811667e+00
1.08445811e+00
1.08921527e+00
1.08386885e+00
1.07985406e+00
1.07974313e+00
1.08668925e+00
1.07844801e+00
1.08293822e+00
1.07742870e+00
1.08174373e+00
1.07614448e+00
1.07811300e+00
1.07805420e+00
1.08083588e+00
1.07516770e+00
1.07729019e+00
1.07579717e+00
1.07693598e+00
1.07577962e+00
1.07887233e+00
1.07782324e+00
1.08252929e+00
1.08194470e+00
1.08230507e+00
1.08828150e+00
1.08331729e+00
1.08127937e+00
1.08027546e+00
1.07874334e+00
1.08010328e+00
1.08083791e+00
1.08066177e+00
1.08116916e+00
1.07878220e+00
1.08392750e+00
1.07900985e+00
1.08320675e+00
1.08199423e+00
1.07728728e+00
1.07988456e+00
1.07963948e+00
1.08082302e+00
1.08068668e+00
1.07660359e+00
1.08446396e+00
1.08408409e+00
1.07873308e+00
1.08092981e+00
1.07770306e+00
1.08448179e+00
1.07794963e+00
1.07433762e+00
1.08410898e+00
1.07978756e+00
1.07725072e+00
1.08387716e+00
1.07811280e+00
1.07939481e+00
1.07851236e+00
1.07960457e+00
1.07872973e+00
1.07895414e+00
1.08286266e+00
1.07794073e+00
1.07705636e+00
1.07688953e+00
1.07743413e+00
1.07707068e+00
1.07869026e+00
1.07691463e+00
1.08088978e+00
1.08603145e+00
1.07607271e+00
1.07815029e+00
1.07946294e+00
1.07226128e+00
1.06795449e+00
1.06487151e+00
1.05797186e+00
1.05998715e+00
1.05687990e+00
1.05682171e+00
1.07350574e+00
1.07704312e+00
1.06416807e+00
1.04880467e+00
1.04961790e+00
1.05620360e+00
1.07002669e+00
1.06850944e+00
1.05734547e+00
1.05276830e+00
1.05411704e+00
1.06832584e+00
1.07058581e+00
1.04916010e+00
1.04797927e+00
1.06603616e+00
1.06362117e+00
1.04672513e+00
1.04662404e+00
1.05594241e+00
1.05838308e+00
1.05326527e+00
1.04755152e+00
1.05532884e+00
1.05704584e+00
1.04532900e+00
1.04752941e+00
1.05754365e+00
1.04932854e+00
1.04044265e+00
1.05379843e+00
1.05618926e+00
1.04297200e+00
1.05029371e+00
1.05695263e+00
1.04147868e+00
1.04464111e+00
1.05527672e+00
1.04585710e+00
1.04003094e+00
1.04920236e+00
1.05169399e+00
1.08366016e+00
1.08426406e+00
1.08973782e+00
1.08520289e+00
1.08459161e+00
1.08742661e+00
1.08193419e+00
1.08145296e+00
1.08310763e+00
1.08612725e+00
1.07812822e+00
1.08055969e+00
1.07916965e+00
1.07980817e+00
1.07413090e+00
1.08248628e+00
1.08085371e+00
1.07661588e+00
1.07298648e+00
1.08194105e+00
1.08038373e+00
1.08090343e+00
1.07645422e+00
1.08164471e+00
1.07618995e+00
1.07876112e+00
1.08194227e+00
1.07925290e+00
1.07932255e+00
1.07767847e+00
1.08153556e+00
1.08360019e+00
1.08304369e+00
1.08379049e+00
1.07893598e+00
1.08153907e+00
1.08130164e+00
1.07723899e+00
1.07952452e+00
1.07935032e+00
1.08434414e+00
1.07959976e+00
1.07528828e+00
1.08341075e+00
1.08269566e+00
1.08230312e+00
1.07826090e+00
1.07798616e+00
1.08416725e+00
1.07989376e+00
1.07849966e+00
1.08196545e+00
1.07688928e+00
1.08042706e+00
1.07917815e+00
1.07257979e+00
1.07949925e+00
1.07938685e+00
1.07885260e+00
1.08382052e+00
1.07841468e+00
1.07689807e+00
1.07879173e+00
1.07565427e+00
1.07950008e+00
1.07815248e+00
1.08245336e+00
1.08082627e+00
1.07664099e+00
1.07693368e+00
1.07700709e+00
1.07611532e+00
1.07825603e+00
1.07846401e+00
1.08164715e+00
1.08298652e+00
1.07593936e+00
1.08000362e+00
1.08248616e+00
1.07155221e+00
1.07145909e+00
1.06542784e+00
1.05639167e+00
1.05714418e+00
1.05548308e+00
1.05606177e+00
1.07660357e+00
1.07781130e+00
1.06102034e+00
1.04735883e+00
1.04897799e+00
1.05814224e+00
1.06840588e+00
1.06596806e+00
1.05793531e+00
1.05254514e+00
1.05430614e+00
1.06783726e+00
1.06871818e+00
1.04778221e+00
1.04780871e+00
1.06459081e+00
1.06154008e+00
1.04962681e+00
1.04997489e+00
1.05689775e+00
1.05629505e+00
1.05083412e+00
1.04535314e+00
1.05366807e+00
1.05879275e+00
1.04728677e+00
1.04792880e+00
1.05812661e+00
1.04858271e+00
1.04064900e+00
1.05375259e+00
1.05405794e+00
1.04019208e+00
1.05302357e+00
1.05820659e+00
1.04052446e+00
1.04279885e+00
1.05448247e+00
1.04681118e+00
1.03934882e+00
1.04625249e+00
1.05486253e+00
1.08176537e+00
1.08851189e+00
1.08774212e+00
1.08678911e+00
1.08832309e+00
1.08173838e+00
1.07781959e+00
1.08482967e+00
1.08837895e+00
1.08342829e+00
1.08102141e+00
1.08057314e+00
1.07760334e+00
1.07657111e+00
1.07951296e+00
1.08073285e+00
1.07529991e+00
1.07539520e+00
1.08003133e+00
1.07987423e+00
1.07731515e+00
1.08042907e+00
1.08093090e+00
1.08565881e+00
1.08423282e+00
1.08285179e+00
1.07924375e+00
1.08112542e+00
1.07906918e+00
1.07746481e+00
1.07922113e+00
1.07941446e+00
1.08075746e+00
1.08489359e+00
1.07741836e+00
1.08387633e+00
1.08079044e+00
1.08380223e+00
1.08301966e+00
1.07916834e+00
1.07656760e+00
1.07517476e+00
1.07672857e+00
1.08898397e+00
1.08058978e+00
1.08177856e+00
1.07962891e+00
1.07780520e+00
1.08223426e+00
1.07735374e+00
1.07743155e+00
1.08134154e+00
1.07951993e+00
1.08309314e+00
1.08129104e+00
1.07542818e+00
1.07552063e+00
1.07874891e+00
1.08267173e+00
1.08203360e+00
1.07719463e+00
1.07780897e+00
1.08183510e+00
1.07495383e+00
1.07937292e+00
1.08119129e+00
1.07880518e+00
1.08058841e+00
1.07928453e+00
1.07775876e+00
1.07499857e+00
1.07652897e+00
1.08184397e+00
1.07850898e+00
1.07914380e+00
1.08318347e+00
1.07582294e+00
1.08034276e+00
1.08307497e+00
1.07089908e+00
1.07126598e+00
1.06775491e+00
1.05557174e+00
1.05410103e+00
1.05228883e+00
1.05816979e+00
1.07825170e+00
1.07920236e+00
1.05961861e+00
1.04800447e+00
1.04859969e+00
1.05764642e+00
1.07055381e+00
1.06947827e+00
1.05722674e+00
1.05110993e+00
1.05295577e+00
1.06879642e+00
1.06970607e+00
1.04638525e+00
1.04842931e+00
1.06643778e+00
1.06102343e+00
1.04884743e+00
1.05011641e+00
1.05571012e+00
1.05509794e+00
1.04999883e+00
1.04817843e+00
1.05332814e+00
1.05760460e+00
1.04654178e+00
1.04582279e+00
1.05689445e+00
1.05025380e+00
1.04501107e+00
1.05454295e+00
1.04985927e+00
1.03784396e+00
1.05311848e+00
1.05708801e+00
1.04019721e+00
1.04047459e+00
1.05244995e+00
1.05163935e+00
1.04237941e+00
1.04195548e+00
1.05267957e+00
1.08753891e+00
1.09386600e+00
1.08606599e+00
1.08445312e+00
1.08235936e+00
1.08518883e+00
1.08448421e+00
1.08550853e+00
1.08485728e+00
1.07971319e+00
1.08089386e+00
1.08066748e+00
1.08098205e+00
1.08300803e+00
1.08007241e+00
1.07564293e+00
1.07720423e+00
1.07690972e+00
1.07498516e+00
1.07449720e+00
1.07893566e+00
1.08568831e+00
1.07912956e+00
1.07794443e+00
1.08456838e+00
1.08340287e+00
1.08127776e+00
1.08318907e+00
1.08241654e+00
1.07881114e+00
1.07875024e+00
1.08277404e+00
1.07857670e+00
1.08276412e+00
1.07702399e+00
1.08481595e+00
1.08013621e+00
1.08228702e+00
1.08063735e+00
1.07602625e+00
1.07851912e+00
1.08204242e+00
1.07847121e+00
1.08244667e+00
1.07312258e+00
1.08410406e+00
1.08524430e+00
1.07953072e+00
1.08200648e+00
1.07980851e+00
1.07797524e+00
1.08021908e+00
1.07805326e+00
1.08391933e+00
1.07677549e+00
1.08072966e+00
1.08167089e+00
1.07734493e+00
1.07766264e+00
1.08263750e+00
1.07828012e+00
1.08172761e+00
1.08024892e+00
1.07751795e+00
1.07719452e+00
1.08091732e+00
1.07786280e+00
1.08233263e+00
1.08292987e+00
1.08186839e+00
1.07468518e+00
1.07344859e+00
1.08045236e+00
1.07847851e+00
1.07743202e+00
1.08462765e+00
1.07737674e+00
1.07942268e+00
1.08150053e+00
1.07097166e+00
1.07036524e+00
1.06761340e+00
1.05725247e+00
1.05588051e+00
1.05216895e+00
1.05725548e+00
1.07844179e+00
1.07632421e+00
1.05786676e+00
1.04970849e+00
1.04924314e+00
1.05797057e+00
1.06926273e+00
1.07253013e+00
1.05835819e+00
1.04920474e+00
1.05324680e+00
1.06629866e+00
1.06757170e+00
1.04660179e+00
1.04884435e+00
1.06576306e+00
1.05673821e+00
1.04728169e+00
1.05253707e+00
1.05720650e+00
1.05258987e+00
1.04736635e+00
1.04806322e+00
1.05279266e+00
1.05538425e+00
1.04593753e+00
1.04956997e+00
1.05938480e+00
1.05177202e+00
1.04383312e+00
1.05099100e+00
1.04825642e+00
1.04044574e+00
1.05050826e+00
1.05499975e+00
1.04121596e+00
1.04013023e+00
1.05280437e+00
1.05440001e+00
1.04330563e+00
1.04112859e+00
1.05164572e+00
1.08881273e+00
1.08626971e+00
1.08662496e+00
1.08713417e+00
1.07914460e+00
1.08637254e+00
1.08492673e+00
1.08268373e+00
1.08228090e+00
1.08388853e+00
1.08118060e+00
1.07745344e+00
1.08169007e+00
1.08432764e+00
1.07897522e+00
1.07732137e+00
1.07990148e+00
1.07996263e+00
1.07883882e+00
1.08122697e+00
1.07985644e+00
1.07716108e+00
1.07738681e+00
1.08213142e+00
1.08073766e+00
1.08090385e+00
1.08080334e+00
1.07828311e+00
1.08675060e+00
1.08123738e+00
1.07987171e+00
1.07879763e+00
1.08010232e+00
1.08603102e+00
1.07961533e+00
1.08118041e+00
1.07715324e+00
1.07618892e+00
1.08331964e+00
1.08000864e+00
1.08265502e+00
1.07937453e+00
1.07635343e+00
1.07930204e+00
1.07459971e+00
1.08235697e+00
1.08223244e+00
1.08219083e+00
1.08648593e+00
1.07977374e+00
1.07814668e+00
1.08086105e+00
1.07606154e+00
1.08162555e+00
1.07563658e+00
1.08186368e+00
1.08502437e+00
1.07667106e+00
1.07572404e+00
1.08515683e+00
1.07928070e+00
1.08300357e+00
1.07856958e+00
1.07823951e+00
1.07976433e+00
1.07562748e+00
1.07994429e+00
1.08178511e+00
1.07873118e+00
1.08213994e+00
1.07961256e+00
1.07358523e+00
1.07659287e+00
1.07656168e+00
1.07846616e+00
1.08257448e+00
1.07885034e+00
1.08240550e+00
1.08055798e+00
1.06865400e+00
1.07142664e+00
1.06977508e+00
1.05594423e+00
1.05349670e+00
1.05367116e+00
1.05858524e+00
1.07693401e+00
1.07716806e+00
1.05890121e+00
1.05076753e+00
1.04842412e+00
1.05454082e+00
1.07117497e+00
1.07053744e+00
1.05647794e+00
1.05014461e+00
1.05597961e+00
1.06887854e+00
1.06523553e+00
1.04518085e+00
1.04787332e+00
1.06355807e+00
1.05493852e+00
1.04589584e+00
1.05203427e+00
1.05767327e+00
1.05308729e+00
1.04942812e+00
1.04887433e+00
1.05357907e+00
1.05736836e+00
1.04607646e+00
1.04765293e+00
1.05582027e+00
1.04832654e+00
1.04293402e+00
1.05517414e+00
1.05373790e+00
1.03883509e+00
1.04520314e+00
1.05400362e+00
1.04388185e+00
1.03985605e+00
1.05305877e+00
1.05514563e+00
1.04282963e+00
1.03947636e+00
1.05331539e+00
1.08722274e+00
1.08325482e+00
1.08508749e+00
1.08193426e+00
1.08227448e+00
1.08764466e+00
1.08900083e+00
1.08072540e+00
1.07647194e+00
1.07964936e+00
1.08145993e+00
1.08228999e+00
1.08278388e+00
1.07644780e+00
1.07847601e+00
1.07838453e+00
1.07959479e+00
1.08199424e+00
1.08038912e+00
1.08059314e+00
1.07998395e+00
1.07744140e+00
1.08288523e+00
1.08126847e+00
1.07933208e+00
1.08132879e+00
1.08503446e+00
1.07889126e+00
1.07870903e+00
1.08137844e+00
1.08475169e+00
1.08176034e+00
1.08275906e+00
1.08111722e+00
1.07782002e+00
1.07992846e+00
1.08178334e+00
1.07870062e+00
1.08234206e+00
1.07776636e+00
1.08390595e+00
1.07978865e+00
1.07891264e+00
1.08167438e+00
1.07563000e+00
1.08142239e+00
1.08134216e+00
1.08032384e+00
1.08466811e+00
1.07449782e+00
1.08372495e+00
1.08628420e+00
1.07997043e+00
1.08016245e+00
1.08031781e+00
1.08116541e+00
1.08338643e+00
1.07928989e+00
1.08273404e+00
1.08394481e+00
1.08090209e+00
1.08549260e+00
1.08125875e+00
1.07366322e+00
1.08379974e+00
1.07451901e+00
1.07921743e+00
1.08236205e+00
1.07921045e+00
1.08159696e+00
1.07723283e+00
1.07503274e+00
1.07731203e+00
1.07586252e+00
1.07750457e+00
1.08235024e+00
1.07859232e+00
1.08198790e+00
1.07956488e+00
1.07068265e+00
1.07232628e+00
1.06845540e+00
1.05313100e+00
1.05309113e+00
1.05428431e+00
1.05941350e+00
1.07549211e+00
1.07522478e+00
1.06008233e+00
1.05017091e+00
1.04908243e+00
1.05385766e+00
1.07341423e+00
1.07094561e+00
1.05185691e+00
1.05051354e+00
1.05697065e+00
1.06595525e+00
1.06231197e+00
1.04613436e+00
1.05183958e+00
1.06248027e+00
1.05129881e+00
1.04673256e+00
1.05335330e+00
1.05688772e+00
1.05233173e+00
1.04995291e+00
1.04859951e+00
1.05203493e+00
1.05520449e+00
1.04645260e+00
1.04627249e+00
1.05451535e+00
1.04704875e+00
1.04266359e+00
1.05622731e+00
1.05681894e+00
1.03589827e+00
1.04167330e+00
1.05765185e+00
1.04975112e+00
1.03856389e+00
1.04756590e+00
1.05484706e+00
1.04669525e+00
1.03638623e+00
1.05004485e+00
1.07923184e+00
1.08026193e+00
1.08261607e+00
1.08586999e+00
1.08974794e+00
1.08572338e+00
1.08293310e+00
1.07845117e+00
1.08400077e+00
1.08187341e+00
1.08134773e+00
1.07973752e+00
1.07948882e+00
1.07542124e+00
1.08194455e+00
1.07407700e+00
1.07620826e+00
1.08216303e+00
1.08222809e+00
1.07660777e+00
1.08072950e+00
1.08246458e+00
1.08320860e+00
1.08073421e+00
1.08617442e+00
1.07975682e+00
1.08067931e+00
1.07415800e+00
1.08151104e+00
1.08685751e+00
1.08115452e+00
1.07786928e+00
1.07802162e+00
1.08195570e+00
1.08248968e+00
1.08340734e+00
1.07806090e+00
1.07602771e+00
1.08265574e+00
1.07822352e+00
1.07938833e+00
1.08105013e+00
1.08161910e+00
1.08360460e+00
1.07713682e+00
1.08271830e+00
1.07982311e+00
1.07619634e+00
1.08603868e+00
1.07913636e+00
1.08587658e+00
1.08511097e+00
1.08087542e+00
1.08240241e+00
1.08136023e+00
1.08169674e+00
1.08411130e+00
1.07997840e+00
1.08634009e+00
1.08195058e+00
1.07933662e+00
1.08468817e+00
1.08318871e+00
1.07268391e+00
1.08351078e+00