# vtk DataFile Version 2.0
LBM Flow Field - Timestep 500
ASCII
DATASET STRUCTURED_POINTS
DIMENSIONS 128 128 1
ORIGIN 0.0 0.0 0.0
SPACING 1.0 1.0 1.0
POINT_DATA 16384
SCALARS density double 1
LOOKUP_TABLE default
1.31816362e+00
1.30346013e+00
1.28591323e+00
1.26867059e+00
1.25155198e+00
1.23495336e+00
1.21856120e+00
1.20285346e+00
1.18744936e+00
1.17283458e+00
1.15863072e+00
1.14525988e+00
1.13241036e+00
1.12038079e+00
1.10897769e+00
1.09833413e+00
1.08840834e+00
1.07914713e+00
1.07067337e+00
1.06274898e+00
1.05565428e+00
1.04898740e+00
1.04316177e+00
1.03764810e+00
1.03295626e+00
1.02847524e+00
1.02476820e+00
1.02119110e+00
1.01831668e+00
1.01551347e+00
1.01332501e+00
1.01117005e+00
1.00953285e+00
1.00790909e+00
1.00670456e+00
1.00550645e+00
1.00463405e+00
1.00376919e+00
1.00314658e+00
1.00253641e+00
1.00209820e+00
1.00167783e+00
1.00137353e+00
1.00109090e+00
1.00088242e+00
1.00069703e+00
1.00055623e+00
1.00043756e+00
1.00034396e+00
1.00026976e+00
1.00020865e+00
1.00016325e+00
1.00012418e+00
1.00009692e+00
1.00007252e+00
1.00005640e+00
1.00004157e+00
1.00003215e+00
1.00002340e+00
1.00001794e+00
1.00001293e+00
1.00000979e+00
1.00000702e+00
1.00000522e+00
1.00000374e+00
1.00000272e+00
1.00000196e+00
1.00000139e+00
1.00000100e+00
1.00000069e+00
1.00000050e+00
1.00000034e+00
1.00000025e+00
1.00000016e+00
1.00000012e+00
1.00000008e+00
1.00000005e+00
1.00000004e+00
1.00000002e+00
1.00000002e+00
1.00000001e+00
1.00000001e+00
1.00000000e+00
1.00000000e+00
1.00000000e+00
1.00000000e+00
1.00000000e+00
1.00000000e+00
1.00000000e+00
1.00000000e+00
1.00000000e+00
1.00000000e+00
1.00000000e+00
1.00000000e+00
1.00000000e+00
1.00000000e+00
1.00000000e+00
1.00000000e+00
1.00000000e+00
1.00000000e+00
1.00000000e+00
1.00000000e+00
1.00000000e+00
1.00000000e+00
1.00000000e+00
1.00000000e+00
1.00000000e+00
1.00000000e+00
1.00000000e+00
1.00000000e+00
1.00000000e+00
1.00000000e+00
1.00000000e+00
1.00000000e+00
1.00000000e+00
1.00000000e+00
1.00000000e+00
1.00000000e+00
1.00000000e+00
1.00000000e+00
1.00000000e+00
1.00000000e+00
1.00000000e+00
1.00000000e+00
1.00000000e+00
1.00000000e+00
1.00000000e+00
1.00000000e+00
1.11883588e+00
1.09534047e+00
1.07552923e+00
1.07329748e+00
1.06839699e+00
1.05861726e+00
1.05838801e+00
1.05809064e+00
1.05320751e+00
1.05189808e+00
1.04937281e+00
1.04890902e+00
1.04943791e+00
1.04494205e+00
1.05143047e+00
1.05425024e+00
1.04934532e+00
1.04982314e+00
1.05116062e+00
1.05222950e+00
1.04721460e+00
1.04965550e+00
1.04800015e+00
1.04716253e+00
1.04768532e+00
1.04893440e+00
1.05369393e+00
1.05965483e+00
1.05886252e+00
1.05674212e+00
1.05842919e+00
1.05735031e+00
1.05490953e+00
1.05731097e+00
1.05896422e+00
1.05089347e+00
1.04455573e+00
1.04951407e+00
1.05890116e+00
1.05905332e+00
1.05060142e+00
1.04590601e+00
1.05079235e+00
1.05691560e+00
1.05508327e+00
1.04839055e+00
1.04619840e+00
1.05033079e+00
1.05191183e+00
1.04925938e+00
1.04731368e+00
1.04899093e+00
1.04777323e+00
1.04671235e+00
1.04694826e+00
1.04868682e+00
1.04793964e+00
1.04616207e+00
1.04769100e+00
1.04511114e+00
1.04536820e+00
1.04808899e+00
1.04499165e+00
1.04574784e+00
1.04444640e+00
1.04468963e+00
1.04602573e+00
1.04096523e+00
1.04413462e+00
1.04525848e+00
1.04446786e+00
1.04367372e+00
1.04475676e+00
1.04226568e+00
1.04473131e+00
1.04505134e+00
1.04485190e+00
1.04397318e+00
1.04237009e+00
1.04264398e+00
1.04234158e+00
1.04207840e+00
1.04176192e+00
1.04002697e+00
1.04129520e+00
1.04141502e+00
1.04125316e+00
1.04102312e+00
1.04056380e+00
1.04061004e+00
1.03993942e+00
1.04089938e+00
1.03932227e+00
1.03901490e+00
1.03965499e+00
1.03867308e+00
1.03869700e+00
1.03932801e+00
1.03654183e+00
1.03924896e+00
1.03877846e+00
1.03583585e+00
1.03581566e+00
1.03508681e+00
1.03542813e+00
1.03548627e+00
1.03443317e+00
1.03418831e+00
1.03633347e+00
1.03318605e+00
1.03331140e+00
1.03405870e+00
1.03438602e+00
1.03352228e+00
1.03164637e+00
1.03341608e+00
1.03222070e+00
1.03112725e+00
1.03330284e+00
1.03168732e+00
1.03154141e+00
1.03160659e+00
1.03339156e+00
1.03041381e+00
1.03032865e+00
1.03010882e+00
1.03182974e+00
1.02872801e+00
1.09476981e+00
1.08753354e+00
1.08374079e+00
1.06834763e+00
1.05858414e+00
1.06182255e+00
1.06670354e+00
1.05621592e+00
1.04946000e+00
1.04873758e+00
1.05011957e+00
1.05448989e+00
1.04867721e+00
1.04621017e+00
1.05258501e+00
1.05382654e+00
1.05256125e+00
1.04502876e+00
1.04588299e+00
1.05395016e+00
1.04986588e+00
1.04356935e+00
1.04656799e+00
1.05169976e+00
1.04605849e+00
1.04598047e+00
1.04778588e+00
1.05327812e+00
1.06043144e+00
1.05733002e+00
1.05191958e+00
1.05595893e+00
1.05830572e+00
1.05399090e+00
1.05304989e+00
1.05218602e+00
1.05144932e+00
1.05472327e+00
1.05862636e+00
1.04989138e+00
1.04792175e+00
1.05250379e+00
1.05401565e+00
1.04993570e+00
1.04777174e+00
1.04966712e+00
1.05276620e+00
1.05190812e+00
1.04863097e+00
1.04683090e+00
1.04628239e+00
1.04979128e+00
1.04705127e+00
1.04503184e+00
1.04669831e+00
1.04749950e+00
1.04732954e+00
1.04766612e+00
1.04483467e+00
1.04726181e+00
1.04427320e+00
1.04628730e+00
1.04539047e+00
1.04423853e+00
1.04913753e+00
1.04224358e+00
1.04652987e+00
1.04663982e+00
1.04319977e+00
1.04531005e+00
1.04434678e+00
1.04205930e+00
1.04294793e+00
1.04550841e+00
1.04107984e+00
1.04049218e+00
1.04412461e+00
1.04411351e+00
1.04013517e+00
1.04179135e+00
1.04198569e+00
1.04058223e+00
1.04172364e+00
1.04130575e+00
1.04014070e+00
1.03864272e+00
1.03993815e+00
1.04045105e+00
1.03979250e+00
1.03978859e+00
1.03939678e+00
1.04036051e+00
1.04111252e+00
1.03827684e+00
1.03913638e+00
1.03798965e+00
1.03840003e+00
1.03870939e+00
1.03679598e+00
1.03946529e+00
1.03957105e+00
1.03793945e+00
1.03787287e+00
1.03827366e+00
1.03666705e+00
1.03496671e+00
1.03370153e+00
1.03477514e+00
1.03682991e+00
1.03390217e+00
1.03376622e+00
1.03385079e+00
1.03410529e+00
1.03531956e+00
1.03120703e+00
1.03244069e+00
1.03232694e+00
1.03210188e+00
1.03179929e+00
1.03167444e+00
1.03113068e+00
1.03183109e+00
1.03188726e+00
1.02965564e+00
1.03195632e+00
1.02818688e+00
1.03142132e+00
1.03054243e+00
1.07928965e+00
1.08005021e+00
1.07301552e+00
1.06409088e+00
1.06872620e+00
1.07016074e+00
1.05867278e+00
1.04911737e+00
1.05386197e+00
1.05191858e+00
1.05071588e+00
1.05020743e+00
1.05247747e+00
1.05276679e+00
1.04779596e+00
1.04977936e+00
1.05647219e+00
1.04949106e+00
1.04298290e+00
1.04776965e+00
1.05649310e+00
1.05366059e+00
1.04609007e+00
1.04309564e+00
1.04773843e+00
1.04475471e+00
1.04798051e+00
1.05643914e+00
1.05748634e+00
1.05511734e+00
1.05401512e+00
1.05670690e+00
1.05531424e+00
1.05093623e+00
1.05259348e+00
1.05698108e+00
1.05654912e+00
1.05254344e+00
1.05035955e+00
1.04886569e+00
1.05457718e+00
1.05313334e+00
1.04750927e+00
1.04598579e+00
1.05242556e+00
1.05366825e+00
1.05023150e+00
1.04803372e+00
1.04747671e+00
1.04913426e+00
1.04905925e+00
1.04796491e+00
1.04738878e+00
1.04588083e+00
1.05014831e+00
1.04895627e+00
1.04307438e+00
1.04452018e+00
1.04596820e+00
1.04798303e+00
1.04697973e+00
1.04463912e+00
1.04467826e+00
1.04348697e+00
1.04813157e+00
1.04426216e+00
1.04122144e+00
1.04762081e+00
1.04452552e+00
1.04297410e+00
1.04620504e+00
1.04402588e+00
1.03945111e+00
1.04274213e+00
1.04265655e+00
1.04034955e+00
1.04268317e+00
1.04253818e+00
1.03884583e+00
1.04194601e+00
1.04262063e+00
1.04053899e+00
1.04059214e+00
1.04180871e+00
1.04184798e+00
1.03948173e+00
1.04023436e+00
1.04028649e+00
1.03867899e+00
1.03986493e+00
1.03991220e+00
1.04005481e+00
1.03920105e+00
1.03740752e+00
1.04099022e+00
1.03808726e+00
1.03599506e+00
1.03711608e+00
1.03586038e+00
1.04150986e+00
1.03807789e+00
1.03675531e+00
1.03695333e+00
1.03918588e+00
1.03780443e+00
1.03464844e+00
1.03425367e+00
1.03689248e+00
1.03529751e+00
1.03447060e+00
1.03221506e+00
1.03503843e+00
1.03504298e+00
1.03561169e+00
1.03136463e+00
1.03254715e+00
1.03207118e+00
1.03294210e+00
1.03168918e+00
1.02900480e+00
1.03188849e+00
1.03285785e+00
1.03087732e+00
1.02817638e+00
1.03174381e+00
1.03076302e+00
1.03121192e+00
1.02809604e+00
1.07572055e+00
1.06496055e+00
1.06266148e+00
1.07732932e+00
1.08110711e+00
1.06492142e+00
1.05482839e+00
1.05969405e+00
1.05608708e+00
1.04810500e+00
1.05306121e+00
1.05399746e+00
1.05484464e+00
1.05301435e+00
1.04750752e+00
1.05009652e+00
1.05700779e+00
1.05366019e+00
1.04160778e+00
1.04254449e+00
1.05381002e+00
1.05785504e+00
1.04813851e+00
1.04556916e+00
1.04630973e+00
1.04465644e+00
1.04946701e+00
1.05506546e+00
1.05949952e+00
1.05202017e+00
1.05234476e+00
1.05530789e+00
1.05563168e+00
1.05188989e+00
1.05487025e+00
1.05507009e+00
1.05041009e+00
1.04952892e+00
1.05527670e+00
1.05368554e+00
1.04904270e+00
1.04731590e+00
1.05196778e+00
1.05371615e+00
1.05097222e+00
1.04782441e+00
1.04647129e+00
1.05091041e+00
1.04848291e+00
1.04720479e+00
1.04820436e+00
1.04996438e+00
1.05191894e+00
1.04798616e+00
1.04464062e+00
1.04732645e+00
1.04440268e+00
1.04692584e+00
1.04942206e+00
1.04520603e+00
1.04403835e+00
1.04485729e+00
1.04587663e+00
1.04604843e+00
1.04220551e+00
1.04550042e+00
1.04237541e+00
1.04432052e+00
1.04414342e+00
1.04173282e+00
1.04238333e+00
1.04539032e+00
1.04445933e+00
1.04322145e+00
1.04225567e+00
1.04017736e+00
1.04060781e+00
1.04185859e+00
1.04046979e+00
1.04244865e+00
1.04021422e+00
1.04260465e+00
1.04320036e+00
1.04254808e+00
1.04057563e+00
1.03944305e+00
1.04124589e+00
1.04226003e+00
1.03980429e+00
1.04075288e+00
1.03815412e+00
1.04171045e+00
1.04106225e+00
1.03726488e+00
1.03993784e+00
1.03893641e+00
1.03654787e+00
1.03936814e+00
1.03629129e+00
1.03795308e+00
1.03586406e+00
1.03636901e+00
1.03766332e+00
1.03816106e+00
1.03856809e+00
1.03622715e+00
1.03517977e+00
1.04014740e+00
1.03545305e+00
1.03544003e+00
1.03279044e+00
1.03450375e+00
1.03451732e+00
1.03495870e+00
1.03109966e+00
1.03333403e+00
1.03454811e+00
1.03250707e+00
1.03318076e+00
1.03064016e+00
1.03169808e+00
1.03158223e+00
1.03032565e+00
1.02843334e+00
1.03024823e+00
1.02990729e+00
1.03327895e+00
1.02975315e+00
1.07134708e+00
1.05933353e+00
1.06991926e+00
1.08226565e+00
1.07656783e+00
1.06937874e+00
1.06191421e+00
1.05493100e+00
1.05533896e+00
1.05886792e+00
1.05094984e+00
1.05127653e+00
1.05826563e+00
1.05357675e+00
1.05185723e+00
1.05195773e+00
1.05400125e+00
1.05222792e+00
1.04685302e+00
1.04454271e+00
1.05344397e+00
1.05587272e+00
1.04580791e+00
1.04880917e+00
1.05565077e+00
1.05331336e+00
1.04469137e+00
1.05401546e+00
1.06177235e+00
1.05024266e+00
1.04942653e+00
1.06098919e+00
1.05644179e+00
1.04868362e+00
1.05183848e+00
1.05647824e+00
1.04804274e+00
1.04732824e+00
1.05448743e+00
1.05147326e+00
1.04915982e+00
1.05231779e+00
1.05333781e+00
1.05024704e+00
1.05077571e+00
1.05160805e+00
1.04906354e+00
1.04730664e+00
1.04536901e+00
1.05075855e+00
1.05449837e+00
1.04848412e+00
1.04598073e+00
1.04766550e+00
1.04720795e+00
1.04859974e+00
1.04674526e+00
1.04476380e+00
1.04491565e+00
1.04871920e+00
1.04682220e+00
1.04513430e+00
1.04193249e+00
1.04514234e+00
1.04539804e+00
1.04268874e+00
1.04553183e+00
1.04096882e+00
1.04180881e+00
1.04637253e+00
1.04576567e+00
1.04169743e+00
1.04256158e+00
1.04277863e+00
1.04324391e+00
1.04472931e+00
1.04428730e+00
1.04003143e+00
1.04011013e+00
1.04329144e+00
1.04130006e+00
1.04016487e+00
1.03982350e+00
1.04054763e+00
1.04110242e+00
1.04075259e+00
1.04194571e+00
1.03916868e+00
1.03833669e+00
1.04403419e+00
1.04032506e+00
1.03997876e+00
1.03973783e+00
1.03794123e+00
1.03958539e+00
1.03997972e+00
1.03686964e+00
1.03763111e+00
1.03567474e+00
1.03994938e+00
1.03537866e+00
1.03508564e+00
1.03584878e+00
1.03561943e+00
1.03815273e+00
1.03493758e+00
1.03672562e+00
1.03871450e+00
1.03603393e+00
1.03438043e+00
1.03395690e+00
1.03560352e+00
1.03518950e+00
1.03368974e+00
1.03091609e+00
1.03372798e+00
1.03530652e+00
1.03076098e+00
1.03307380e+00
1.03160127e+00
1.03179333e+00
1.03135276e+00
1.02978006e+00
1.03093648e+00
1.03193631e+00
1.03034543e+00
1.03100196e+00
1.03059250e+00
1.05381882e+00
1.06535777e+00
1.07771646e+00
1.08024865e+00
1.07677228e+00
1.06934108e+00
1.05548731e+00
1.05642834e+00
1.07148940e+00
1.07171651e+00
1.04656716e+00
1.04281782e+00
1.06243263e+00
1.06932163e+00
1.05232556e+00
1.04332654e+00
1.05403262e+00
1.05895064e+00
1.05402738e+00
1.04321271e+00
1.05516797e+00
1.05394211e+00
1.04565684e+00
1.05168312e+00
1.06203812e+00
1.05422715e+00
1.04606424e+00
1.05392752e+00
1.06063427e+00
1.05417902e+00
1.04528579e+00
1.05660725e+00
1.05871666e+00
1.05007976e+00
1.04989479e+00
1.05824147e+00
1.05105223e+00
1.04893416e+00
1.05185106e+00
1.04996355e+00
1.04897596e+00
1.05488285e+00
1.05307777e+00
1.04969637e+00
1.04827457e+00
1.04850211e+00
1.04911755e+00
1.05198774e+00
1.05023629e+00
1.05118939e+00
1.04841184e+00
1.04506377e+00
1.04767966e+00
1.04939639e+00
1.04587955e+00
1.04318790e+00
1.04801454e+00
1.05179923e+00
1.04535732e+00
1.04495861e+00
1.04197548e+00
1.04555113e+00
1.04711474e+00
1.04439132e+00
1.04627010e+00
1.03743064e+00
1.04469332e+00
1.04668161e+00
1.04266918e+00
1.04154307e+00
1.04301217e+00
1.04104244e+00
1.04349320e+00
1.04511317e+00
1.04067181e+00
1.04137821e+00
1.04352851e+00
1.04331419e+00
1.04252501e+00
1.04116218e+00
1.04074863e+00
1.04014258e+00
1.04074231e+00
1.04127003e+00
1.03914355e+00
1.03804915e+00
1.04203334e+00
1.04246581e+00
1.04011413e+00
1.04207995e+00
1.03818824e+00
1.04048903e+00
1.04270853e+00
1.03991655e+00
1.03910715e+00
1.03740845e+00
1.03844276e+00
1.04168742e+00
1.03812081e+00
1.03879563e+00
1.03610905e+00
1.03671409e+00
1.03799163e+00
1.03455664e+00
1.03709659e+00
1.03340290e+00
1.03725275e+00
1.03846022e+00
1.03392852e+00
1.03510276e+00
1.03676141e+00
1.03388025e+00
1.03358029e+00
1.03447807e+00
1.03238810e+00
1.03453578e+00
1.03441593e+00
1.03088326e+00
1.03275537e+00
1.03119336e+00
1.03249027e+00
1.03283399e+00
1.02955185e+00
1.03041979e+00
1.03224324e+00
1.02949931e+00
1.02748163e+00
1.02825727e+00
1.04890738e+00
1.06587157e+00
1.07340324e+00
1.08459363e+00
1.08008253e+00
1.05808706e+00
1.05138226e+00
1.06914542e+00
1.07262218e+00
1.06258300e+00
1.05192958e+00
1.05026922e+00
1.06137656e+00
1.06881439e+00
1.05785502e+00
1.04745795e+00
1.05261910e+00
1.06178182e+00
1.05052919e+00
1.04660765e+00
1.06377588e+00
1.05301760e+00
1.04146401e+00
1.04973481e+00
1.06005394e+00
1.05310321e+00
1.04859627e+00
1.05659154e+00
1.05870278e+00
1.04879562e+00
1.04816089e+00
1.05894171e+00
1.05437778e+00
1.04655786e+00
1.05298436e+00
1.05863912e+00
1.05088907e+00
1.04731195e+00
1.05305824e+00
1.05362931e+00
1.05340643e+00
1.05122250e+00
1.04593989e+00
1.04752134e+00
1.05353025e+00
1.05029229e+00
1.04789571e+00
1.05146150e+00
1.04715208e+00
1.04747019e+00
1.04955284e+00
1.04689423e+00
1.04615497e+00
1.04729354e+00
1.04724039e+00
1.04933960e+00
1.04630116e+00
1.04541470e+00
1.04276196e+00
1.04554747e+00
1.04971146e+00
1.04645327e+00
1.04392330e+00
1.04030353e+00
1.04514036e+00
1.04585574e+00
1.04062376e+00
1.04262973e+00
1.04184984e+00
1.04474859e+00
1.04567750e+00
1.04195367e+00
1.03632217e+00
1.03956012e+00
1.04161561e+00
1.04510627e+00
1.04092997e+00
1.03989875e+00
1.03981912e+00
1.04063653e+00
1.04012474e+00
1.04057261e+00
1.03833952e+00
1.03968635e+00
1.04154851e+00
1.04114006e+00
1.04130305e+00
1.03860461e+00
1.03795409e+00
1.04332776e+00
1.03989966e+00
1.03950223e+00
1.04102460e+00
1.03702367e+00
1.03948614e+00
1.03802178e+00
1.03739624e+00
1.03739330e+00
1.03789855e+00
1.03924290e+00
1.03741675e+00
1.03777313e+00
1.03740628e+00
1.03547272e+00
1.03768472e+00
1.03559014e+00
1.03563260e+00
1.03713076e+00
1.03208126e+00
1.03436204e+00
1.03907504e+00
1.03440060e+00
1.03182676e+00
1.03365844e+00
1.03291820e+00
1.03456821e+00
1.03206470e+00
1.02898087e+00
1.03551991e+00
1.03146786e+00
1.03141262e+00
1.03193190e+00
1.03080179e+00
1.02944242e+00
1.03062634e+00
1.02933649e+00
1.02989198e+00
1.02724092e+00
1.05742923e+00
1.05985238e+00
1.07166441e+00
1.09139611e+00
1.07714829e+00
1.05111250e+00
1.05503636e+00
1.06908086e+00
1.07104763e+00
1.06354237e+00
1.05052604e+00
1.05643306e+00
1.06589271e+00
1.06590592e+00
1.05822552e+00
1.04913322e+00
1.05200844e+00
1.06380494e+00
1.05365278e+00
1.04937166e+00
1.05858802e+00
1.05886843e+00
1.04795919e+00
1.05133033e+00
1.05820567e+00
1.05008531e+00
1.04482141e+00
1.06005804e+00
1.05956716e+00
1.04448953e+00
1.04985647e+00
1.05892373e+00
1.05419108e+00
1.04990380e+00
1.05466136e+00
1.05363094e+00
1.04730351e+00
1.05287928e+00
1.05936691e+00
1.05217369e+00
1.04600687e+00
1.04735802e+00
1.05256983e+00
1.05132138e+00
1.05074534e+00
1.04522840e+00
1.04805599e+00
1.05329202e+00
1.04939960e+00
1.04509846e+00
1.04601563e+00
1.04409220e+00
1.04949293e+00
1.05196328e+00
1.04384891e+00
1.04579713e+00
1.04571195e+00
1.04606456e+00
1.04791246e+00
1.04310488e+00
1.04332824e+00
1.04425370e+00
1.04804053e+00
1.04790739e+00
1.04104833e+00
1.04299715e+00
1.04180828e+00
1.04399997e+00
1.04323048e+00
1.04375457e+00
1.03953881e+00
1.04134490e+00
1.04517859e+00
1.04276631e+00
1.03884648e+00
1.04062721e+00
1.03960160e+00
1.04047806e+00
1.04096726e+00
1.03913565e+00
1.03728147e+00
1.04307016e+00
1.04404037e+00
1.04045027e+00
1.03939661e+00
1.03712772e+00
1.04109258e+00
1.03954656e+00
1.03984915e+00
1.03994281e+00
1.03646998e+00
1.03788190e+00
1.04322184e+00
1.03905123e+00
1.03756732e+00
1.03510890e+00
1.03631384e+00
1.03830728e+00
1.03580927e+00
1.03701237e+00
1.03572763e+00
1.03870541e+00
1.03812557e+00
1.03375667e+00
1.03854916e+00
1.03521802e+00
1.03527842e+00
1.03688318e+00
1.03227479e+00
1.03437960e+00
1.03624859e+00
1.03304430e+00
1.03282044e+00
1.03498820e+00
1.03313782e+00
1.03595507e+00
1.03126234e+00
1.02847452e+00
1.03228019e+00
1.03198037e+00
1.03178019e+00
1.02826346e+00
1.02963674e+00
1.03306288e+00
1.03046186e+00
1.02554944e+00
1.02845488e+00
1.02902817e+00
1.05771307e+00
1.06301398e+00
1.07851997e+00
1.08155140e+00
1.06792915e+00
1.06188048e+00
1.06121649e+00
1.06089606e+00
1.06922778e+00
1.06735428e+00
1.05461832e+00
1.05811922e+00
1.06802756e+00
1.06665993e+00
1.05099545e+00
1.05137930e+00
1.06720837e+00
1.06045473e+00
1.04491606e+00
1.05172268e+00
1.06293806e+00
1.06295234e+00
1.04954313e+00
1.05005864e+00
1.05903385e+00
1.05319476e+00
1.04836841e+00
1.05556144e+00
1.05422732e+00
1.05089683e+00
1.05291674e+00
1.06028802e+00
1.05285317e+00
1.04617905e+00
1.05490950e+00
1.05521161e+00
1.04746183e+00
1.05360293e+00
1.05567881e+00
1.04639486e+00
1.04680025e+00
1.05554737e+00
1.05268046e+00
1.04481001e+00
1.04785453e+00
1.05167387e+00
1.05014778e+00
1.04919433e+00
1.04511471e+00
1.04432463e+00
1.04964814e+00
1.04951349e+00
1.04635814e+00
1.04760674e+00
1.04487393e+00
1.04629409e+00
1.04942053e+00
1.04329293e+00
1.04308767e+00
1.04779873e+00
1.04647185e+00
1.04672163e+00
1.03965656e+00
1.04254240e+00
1.04616139e+00
1.04298929e+00
1.04588322e+00
1.04091020e+00
1.03812054e+00
1.04591385e+00
1.04640567e+00
1.03835829e+00
1.03992285e+00
1.03841717e+00
1.03965991e+00
1.04511430e+00
1.04439353e+00
1.03913943e+00
1.03966037e+00
1.04020888e+00
1.04077980e+00
1.04113188e+00
1.03821061e+00
1.03786117e+00
1.04148144e+00
1.03948841e+00
1.04097752e+00
1.03774945e+00
1.03736702e+00
1.04124633e+00
1.03871848e+00
1.03901808e+00
1.03971556e+00
1.03705256e+00
1.03847421e+00
1.03924396e+00
1.03589648e+00
1.03579662e+00
1.03355776e+00
1.03849571e+00
1.03638034e+00
1.03780483e+00
1.03829415e+00
1.03254953e+00
1.03879564e+00
1.03647933e+00
1.03439499e+00
1.03487748e+00
1.03046504e+00
1.03530567e+00
1.03683230e+00
1.03289067e+00
1.03143299e+00
1.03609801e+00
1.03157779e+00
1.03416603e+00
1.03249811e+00
1.02969467e+00
1.03278242e+00
1.02943894e+00
1.03190480e+00
1.02995362e+00
1.02917169e+00
1.03100983e+00
1.03123828e+00
1.02833906e+00
1.02791219e+00
1.02819467e+00
1.04443497e+00
1.06091992e+00
1.08380192e+00
1.08134093e+00
1.06553979e+00
1.06156615e+00
1.05699346e+00
1.06457944e+00
1.06959266e+00
1.06205346e+00
1.05946076e+00
1.06276932e+00
1.06315719e+00
1.06094170e+00
1.05288748e+00
1.06040811e+00
1.07127533e+00
1.05465929e+00
1.04272895e+00
1.05669166e+00
1.06269255e+00
1.05663773e+00
1.04829046e+00
1.05609654e+00
1.06202722e+00
1.05047751e+00
1.04951794e+00
1.05616662e+00
1.05460996e+00
1.05202306e+00
1.05358406e+00
1.05859627e+00
1.05023039e+00
1.05132934e+00
1.05562769e+00
1.05225737e+00
1.04586045e+00
1.05565809e+00
1.05451317e+00
1.04431821e+00
1.05139549e+00
1.05599975e+00
1.04809085e+00
1.04671526e+00
1.05240247e+00
1.05099018e+00
1.04671112e+00
1.05100437e+00
1.04854256e+00
1.04844311e+00
1.04902945e+00
1.04777934e+00
1.04430984e+00
1.04766890e+00
1.04830426e+00
1.04573199e+00
1.04723922e+00
1.04610682e+00
1.04519248e+00
1.04848747e+00
1.04116225e+00
1.04452756e+00
1.04412702e+00
1.04377618e+00
1.04753426e+00
1.03715255e+00
1.04110164e+00
1.04551929e+00
1.04295100e+00
1.04266352e+00
1.04257110e+00
1.03847549e+00
1.04294532e+00
1.04460265e+00
1.03980231e+00
1.04134689e+00
1.04089197e+00
1.04152540e+00
1.04244102e+00
1.03863142e+00
1.03655406e+00
1.04075421e+00
1.03941051e+00
1.03969161e+00
1.04015538e+00
1.03564814e+00
1.03925036e+00
1.04272696e+00
1.03941070e+00
1.04064695e+00
1.03816341e+00
1.03851850e+00
1.03896449e+00
1.03844871e+00
1.03969548e+00
1.03789810e+00
1.03543569e+00
1.03838631e+00
1.03551774e+00
1.03854214e+00
1.03329120e+00
1.03583963e+00
1.03738422e+00
1.03381542e+00
1.03843189e+00
1.03495213e+00
1.03414198e+00
1.03742195e+00
1.03162063e+00
1.03601574e+00
1.03636098e+00
1.03329753e+00
1.03095748e+00
1.03489966e+00
1.03303671e+00
1.03119533e+00
1.03151099e+00
1.03110322e+00
1.03510899e+00
1.02963264e+00
1.03088747e+00
1.02932837e+00
1.03063451e+00
1.03081862e+00
1.03004059e+00
1.02957383e+00
1.03033922e+00
1.02795978e+00
1.05003704e+00
1.06565036e+00
1.07679178e+00
1.07965808e+00
1.07056763e+00
1.05831332e+00
1.05670206e+00
1.07165264e+00
1.06790615e+00
1.05482511e+00
1.05997033e+00
1.06986839e+00
1.06509329e+00
1.05543203e+00
1.05414599e+00
1.06049372e+00
1.06419646e+00
1.05941951e+00
1.05229109e+00
1.05355392e+00
1.06117461e+00
1.05743874e+00
1.04449777e+00
1.05731826e+00
1.06013119e+00
1.05204553e+00
1.05356949e+00
1.05810048e+00
1.05365567e+00
1.05046975e+00
1.05644636e+00
1.05551354e+00
1.04755352e+00
1.04999820e+00
1.05682818e+00
1.05375441e+00
1.04468626e+00
1.05243321e+00
1.05366175e+00
1.04904257e+00
1.05115414e+00
1.05183305e+00
1.04769940e+00
1.04867951e+00
1.05475946e+00
1.04939178e+00
1.04364754e+00
1.04967827e+00
1.04921083e+00
1.05068627e+00
1.05147802e+00
1.04775242e+00
1.04632698e+00
1.04588779e+00
1.04658608e+00
1.04898569e+00
1.04469595e+00
1.04477608e+00
1.04670307e+00
1.04629791e+00
1.04445429e+00
1.04382784e+00
1.04667285e+00
1.03958685e+00
1.04221323e+00
1.04494960e+00
1.04178574e+00
1.04186445e+00
1.04201226e+00
1.04146151e+00
1.04311383e+00
1.04171577e+00
1.04036241e+00
1.03983734e+00
1.03985007e+00
1.04510233e+00
1.04081889e+00
1.03816984e+00
1.04017681e+00
1.03833879e+00
1.03813356e+00
1.04309181e+00
1.03901073e+00
1.03704015e+00
1.04317212e+00
1.04141880e+00
1.04049166e+00
1.04091983e+00
1.03769407e+00
1.04215990e+00
1.04094521e+00
1.04190418e+00
1.03591730e+00
1.03570390e+00
1.04086550e+00
1.04103143e+00
1.03689508e+00
1.03908508e+00
1.03598170e+00
1.04067245e+00
1.03503167e+00
1.03591109e+00
1.03542931e+00
1.03153841e+00
1.03973109e+00
1.03594524e+00
1.03247474e+00
1.03781236e+00
1.03494046e+00
1.03700052e+00
1.03532390e+00
1.03130229e+00
1.03231311e+00
1.03356380e+00
1.03053431e+00
1.03284682e+00
1.03374613e+00
1.02997755e+00
1.03346382e+00
1.02993109e+00
1.03182759e+00
1.03066580e+00
1.03130617e+00
1.03266362e+00
1.02935532e+00
1.02976942e+00
1.03179545e+00
1.02994599e+00
1.06173723e+00
1.07194357e+00
1.07417012e+00
1.07695663e+00
1.06711559e+00
1.05721847e+00
1.06208792e+00
1.07082976e+00
1.06529169e+00
1.05828407e+00
1.05810501e+00
1.06590125e+00
1.07018879e+00
1.06048081e+00
1.04937196e+00
1.05710921e+00
1.06603538e+00
1.06375664e+00
1.05182472e+00
1.05151795e+00
1.06135433e+00
1.05485459e+00
1.04595713e+00
1.05554139e+00
1.05765450e+00
1.05461706e+00
1.05263179e+00
1.05482982e+00
1.05778902e+00
1.05306126e+00
1.05119903e+00
1.05648055e+00
1.04840113e+00
1.04927911e+00
1.05895151e+00
1.05267509e+00
1.04675816e+00
1.05579921e+00
1.05519111e+00
1.04392481e+00
1.04767535e+00
1.05583975e+00
1.05291514e+00
1.04729360e+00
1.05001968e+00
1.04795927e+00
1.04819348e+00
1.05211499e+00
1.04613229e+00
1.04667100e+00
1.04903297e+00
1.04587072e+00
1.05072060e+00
1.05003063e+00
1.04481172e+00
1.04802914e+00
1.04624615e+00
1.04298971e+00
1.04610643e+00
1.04342903e+00
1.04336629e+00
1.04384594e+00
1.04616748e+00
1.04456512e+00
1.03911561e+00
1.04193353e+00
1.04138477e+00
1.04150554e+00
1.04261357e+00
1.04432110e+00
1.03976318e+00
1.03982156e+00
1.04451982e+00
1.04281264e+00
1.03724179e+00
1.04007215e+00
1.03827457e+00
1.03910965e+00
1.04382400e+00
1.04183307e+00
1.03843688e+00
1.04139750e+00
1.04136030e+00
1.04217603e+00
1.04255335e+00
1.03835959e+00
1.03993709e+00
1.04169145e+00
1.03811657e+00
1.04175321e+00
1.03953865e+00
1.03952796e+00
1.03863718e+00
1.03851745e+00
1.04139211e+00
1.03738940e+00
1.03730998e+00
1.03978983e+00
1.03664857e+00
1.03933763e+00
1.03362572e+00
1.03438298e+00
1.03827190e+00
1.03370789e+00
1.03894309e+00
1.03381077e+00
1.03285132e+00
1.03709256e+00
1.03466657e+00
1.03541834e+00
1.03277092e+00
1.03191731e+00
1.03324658e+00
1.03680252e+00
1.02896984e+00
1.03032644e+00
1.03456491e+00
1.03320551e+00
1.03213743e+00
1.02891876e+00
1.03296549e+00
1.03257247e+00
1.02914727e+00
1.03025703e+00
1.02858722e+00
1.02810808e+00
1.03000633e+00
1.02965094e+00
1.06148942e+00
1.06662533e+00
1.08201783e+00
1.07602458e+00
1.05611665e+00
1.05893297e+00
1.07112737e+00
1.07187181e+00
1.06165898e+00
1.05860173e+00
1.05740333e+00
1.06333216e+00
1.07148540e+00
1.06349723e+00
1.04931278e+00
1.05998032e+00
1.07025355e+00
1.05794578e+00
1.04780810e+00
1.05822452e+00
1.06080732e+00
1.05189561e+00
1.05345955e+00
1.05656282e+00
1.05583918e+00
1.05327303e+00
1.05051979e+00
1.05463892e+00
1.05803690e+00
1.05068779e+00
1.05047120e+00
1.05743350e+00
1.05302323e+00
1.05249090e+00
1.05450597e+00
1.05394311e+00
1.04775041e+00
1.05588778e+00
1.05153112e+00
1.04524685e+00
1.05586076e+00
1.05522569e+00
1.04442383e+00
1.04434551e+00
1.05368687e+00
1.05175703e+00
1.04721223e+00
1.04877736e+00
1.04476228e+00
1.04870092e+00
1.04899566e+00
1.04364847e+00
1.04642688e+00
1.04930344e+00
1.04672223e+00
1.04564545e+00
1.04523472e+00
1.04098254e+00
1.04563196e+00
1.04738686e+00
1.04170312e+00
1.04677398e+00
1.04029870e+00
1.04369885e+00
1.04412054e+00
1.03929668e+00
1.04251175e+00
1.04512197e+00
1.04087184e+00
1.04365520e+00
1.04281555e+00
1.03928736e+00
1.04121933e+00
1.04075657e+00
1.03874893e+00
1.04142768e+00
1.04149605e+00
1.03955865e+00
1.04074516e+00
1.03760457e+00
1.04028542e+00
1.04139187e+00
1.03820276e+00
1.03781176e+00
1.04137432e+00
1.03930423e+00
1.03981912e+00
1.03947406e+00
1.03707606e+00
1.03843481e+00
1.04105758e+00
1.04057817e+00
1.03792545e+00
1.03547972e+00
1.03978900e+00
1.03588482e+00
1.03752916e+00
1.03841701e+00
1.03598771e+00
1.03923490e+00
1.03573464e+00
1.03628340e+00
1.03853636e+00
1.03370154e+00
1.03713173e+00
1.03324226e+00
1.03400756e+00
1.03786781e+00
1.03162926e+00
1.03359251e+00
1.03359358e+00
1.03225080e+00
1.03296506e+00
1.03634286e+00
1.03162017e+00
1.03099317e+00
1.03166896e+00
1.03239430e+00
1.03472319e+00
1.02645353e+00
1.03100890e+00
1.03206273e+00
1.03099871e+00
1.02927099e+00
1.02726777e+00
1.02981590e+00
1.03153740e+00
1.02760545e+00
1.05480802e+00
1.06058981e+00
1.08057527e+00
1.07159151e+00
1.05735728e+00
1.05965934e+00
1.06937782e+00
1.07570963e+00
1.06521427e+00
1.05362755e+00
1.05335560e+00
1.06964324e+00
1.07356387e+00
1.06183879e+00
1.05493307e+00
1.05793396e+00
1.06633888e+00
1.05914508e+00
1.04824410e+00
1.05313216e+00
1.06211916e+00
1.05820989e+00
1.05497984e+00
1.05501235e+00
1.05466735e+00
1.05302830e+00
1.05429984e+00
1.05566637e+00
1.05263783e+00
1.05001422e+00
1.05562039e+00
1.05554407e+00
1.05226855e+00
1.05030440e+00
1.05533674e+00
1.05505247e+00
1.04614500e+00
1.05640453e+00
1.05275101e+00
1.04889299e+00
1.05461164e+00
1.05019551e+00
1.04004440e+00
1.05098965e+00
1.05685675e+00
1.04703609e+00
1.04276469e+00
1.05564913e+00
1.04863397e+00
1.04569872e+00
1.04685967e+00
1.04677949e+00
1.04778758e+00
1.04801261e+00
1.04225494e+00
1.04293357e+00
1.04661851e+00
1.04727309e+00
1.04345916e+00
1.04303697e+00
1.03822820e+00
1.04938682e+00
1.04633352e+00
1.03916052e+00
1.04342275e+00
1.04179140e+00
1.04135517e+00
1.04450348e+00
1.04111047e+00
1.04053403e+00
1.04374317e+00
1.04287648e+00
1.04158753e+00
1.04032551e+00
1.03939909e+00
1.04017173e+00
1.03971211e+00
1.03950533e+00
1.04010569e+00
1.03740640e+00
1.03937085e+00
1.03893795e+00
1.03638017e+00
1.03749190e+00
1.03914887e+00
1.03733236e+00
1.03850254e+00
1.04001935e+00
1.03819801e+00
1.03838379e+00
1.03751860e+00
1.03759373e+00
1.03888786e+00
1.03754947e+00
1.03934115e+00
1.03265304e+00
1.03652394e+00
1.03956302e+00
1.03543811e+00
1.03813423e+00
1.03513527e+00
1.03535343e+00
1.03876263e+00
1.03481094e+00
1.03830068e+00
1.03194146e+00
1.03154055e+00
1.03781535e+00
1.03256583e+00
1.03181876e+00
1.03247524e+00
1.03300209e+00
1.03536873e+00
1.03524698e+00
1.03187733e+00
1.03321718e+00
1.03192456e+00
1.02908842e+00
1.03471605e+00
1.02845803e+00
1.03031767e+00
1.02892887e+00
1.03052364e+00
1.03162109e+00
1.02807909e+00
1.02807275e+00
1.03326889e+00
1.02954742e+00
1.05051403e+00
1.07068661e+00
1.07483840e+00
1.06445331e+00
1.06085244e+00
1.05968306e+00
1.06614953e+00
1.07369416e+00
1.06732922e+00
1.05382455e+00
1.05329328e+00
1.06761621e+00
1.06939108e+00
1.06163407e+00
1.06077743e+00
1.05830982e+00
1.05945039e+00
1.05843018e+00
1.04999301e+00
1.05022054e+00
1.06401861e+00
1.05753132e+00
1.04885729e+00
1.05612500e+00
1.06220863e+00
1.05554804e+00
1.04892846e+00
1.05326185e+00
1.05633588e+00
1.05364392e+00
1.05511539e+00
1.05326432e+00
1.05228680e+00
1.05174672e+00
1.05868608e+00
1.05074193e+00
1.04560165e+00
1.05420742e+00
1.05506927e+00
1.04883804e+00
1.05146935e+00
1.05164520e+00
1.04721957e+00
1.05390988e+00
1.05107004e+00
1.04154897e+00
1.04332359e+00
1.05656645e+00
1.04841027e+00
1.04598289e+00
1.04934887e+00
1.04519154e+00
1.04521361e+00
1.04554286e+00
1.04150542e+00
1.04812956e+00
1.04555449e+00
1.04328899e+00
1.04398926e+00
1.04709773e+00
1.04342897e+00
1.04123431e+00
1.04307830e+00
1.03791378e+00
1.04297992e+00