# vtk DataFile Version 2.0
LBM Flow Field - Timestep 1200
ASCII
DATASET STRUCTURED_POINTS
DIMENSIONS 128 128 1
ORIGIN 0.0 0.0 0.0
SPACING 1.0 1.0 1.0
POINT_DATA 16384
SCALARS density double 1
LOOKUP_TABLE default
1.32238036e+00
1.31285995e+00
1.30152786e+00
1.29018238e+00
1.27900411e+00
1.26780195e+00
1.25685633e+00
1.24587970e+00
1.23524031e+00
1.22456656e+00
1.21430031e+00
1.20400031e+00
1.19416618e+00
1.18430294e+00
1.17495106e+00
1.16557860e+00
1.15674957e+00
1.14791211e+00
1.13963673e+00
1.13136820e+00
1.12366737e+00
1.11599124e+00
1.10887628e+00
1.10180570e+00
1.09527881e+00
1.08881707e+00
1.08287207e+00
1.07701324e+00
1.07163649e+00
1.06636635e+00
1.06153776e+00
1.05683482e+00
1.05252894e+00
1.04836566e+00
1.04455279e+00
1.04089676e+00
1.03754410e+00
1.03435931e+00
1.03143195e+00
1.02867999e+00
1.02614193e+00
1.02378312e+00
1.02159812e+00
1.01959255e+00
1.01772485e+00
1.01603328e+00
1.01444827e+00
1.01303289e+00
1.01169756e+00
1.01052261e+00
1.00940594e+00
1.00843816e+00
1.00751138e+00
1.00672034e+00
1.00595706e+00
1.00531532e+00
1.00469166e+00
1.00417484e+00
1.00366936e+00
1.00325609e+00
1.00284980e+00
1.00252158e+00
1.00219780e+00
1.00193886e+00
1.00168309e+00
1.00148010e+00
1.00127985e+00
1.00112171e+00
1.00096637e+00
1.00084389e+00
1.00072451e+00
1.00063022e+00
1.00053934e+00
1.00046717e+00
1.00039864e+00
1.00034372e+00
1.00029254e+00
1.00025101e+00
1.00021314e+00
1.00018193e+00
1.00015417e+00
1.00013087e+00
1.00011070e+00
1.00009343e+00
1.00007891e+00
1.00006620e+00
1.00005582e+00
1.00004656e+00
1.00003920e+00
1.00003250e+00
1.00002731e+00
1.00002252e+00
1.00001888e+00
1.00001549e+00
1.00001295e+00
1.00001057e+00
1.00000881e+00
1.00000716e+00
1.00000595e+00
1.00000482e+00
1.00000398e+00
1.00000322e+00
1.00000265e+00
1.00000213e+00
1.00000174e+00
1.00000140e+00
1.00000114e+00
1.00000092e+00
1.00000074e+00
1.00000059e+00
1.00000048e+00
1.00000038e+00
1.00000030e+00
1.00000024e+00
1.00000019e+00
1.00000015e+00
1.00000012e+00
1.00000010e+00
1.00000008e+00
1.00000006e+00
1.00000005e+00
1.00000004e+00
1.00000003e+00
1.00000003e+00
1.00000002e+00
1.00000002e+00
1.00000002e+00
1.00000002e+00
-6.71670910e+302
1.27665206e+303
-2.54706079e+303
4.53374877e+303
-6.19409483e+303
6.77932249e+302
1.33879928e+304
-1.51073897e+304
1.34114591e+303
-8.10718152e+304
-5.48364182e+304
2.23604965e+303
-7.10004131e+303
3.71994975e+304
3.54295667e+303
2.52670984e+305
3.32977610e+305
-2.67525254e+305
-2.64315724e+306
1.19232922e+307
-1.75908722e+306
5.24004490e+305
-8.31152880e+305
-8.66631396e+305
-1.26242622e+306
9.17455480e+306
1.21635861e+307
9.11233562e+306
-3.58078065e+307
8.02566966e+307
-3.12419141e+307
4.62278892e+306
-9.80578081e+307
inf
-inf
1.02422486e+307
3.00554714e+307
1.73693238e+307
-8.83237749e+306
-1.74815027e+307
-2.95257947e+307
-5.79587412e+307
-1.03541446e+307
4.23958834e+306
-6.93891261e+304
-1.10738683e+307
-1.59286858e+307
1.87968737e+307
-4.93732797e+307
7.18387792e+307
-3.55703897e+307
-1.25441857e+308
1.14944090e+308
-1.80144328e+306
2.39784310e+306
4.79803683e+306
-1.78102809e+307
8.38405231e+306
-1.04512163e+307
5.28353590e+306
6.98036004e+306
-1.40228955e+306
-1.94124898e+305
1.56817221e+305
4.44971394e+304
-1.68610203e+304
6.39423240e+303
-1.65971950e+304
8.15398867e+303
-1.60920813e+303
-1.81975978e+303
5.69295173e+302
-1.42590442e+302
1.84740223e+302
8.34753699e+302
2.50812140e+303
-3.28290945e+303
1.91336979e+303
-1.24980713e+303
-2.52948220e+303
1.61679686e+303
1.17967162e+303
-2.64403249e+303
1.44197677e+303
6.58659209e+300
-2.92248591e+301
2.29431482e+301
-2.91856477e+301
-6.21670181e+300
4.78783893e+299
-7.33485990e+299
5.09793396e+298
-1.20865699e+299
-5.55330147e+298
-2.76607968e+298
1.50044149e+299
-6.89416334e+298
4.23460771e+297
1.81970214e+296
1.37818919e+297
1.11959562e+296
-1.12534331e+297
-6.33359487e+296
-1.86950211e+295
-3.71625328e+295
2.44118167e+296
-7.93594308e+295
-5.59073449e+295
-1.44665406e+295
-3.70629835e+295
-3.39341095e+295
-1.53571347e+295
1.79689562e+295
-1.75334259e+294
9.30359319e+293
-8.90845621e+293
-9.43452363e+293
-6.81889637e+294
-4.84021902e+294
-8.46652712e+295
-1.38791173e+296
-4.62831271e+295
-2.91970757e+295
-2.21953200e+294
1.00812830e+294
2.52685468e+293
4.53361850e+293
7.78905722e+293
-3.16281906e+303
-8.34613092e+303
1.55987437e+304
2.54198851e+303
2.56353580e+303
-1.00083328e+303
3.47020269e+304
-8.45141143e+304
7.23839363e+304
2.21756588e+305
3.96804274e+304
2.66250027e+303
-2.22037173e+303
2.06737378e+303
4.02635260e+304
6.28411938e+305
-9.41524298e+305
1.65244897e+305
-3.99460298e+306
-4.30616367e+306
3.60752420e+306
-1.78821242e+306
-6.38123029e+306
1.49723296e+306
3.15968214e+306
8.91998877e+306
-2.48174503e+307
-1.78610020e+307
2.80626135e+307
-5.05841749e+307
-1.26548430e+307
-inf
-inf
inf
-nan
-nan
-nan
-1.18993345e+307
-2.30590708e+307
-1.34906415e+308
-7.03001025e+307
-5.71433314e+306
-1.93185129e+307
-1.15890720e+307
2.01405370e+307
2.12530427e+307
-5.04348097e+307
5.30617775e+307
2.21240192e+307
5.14973777e+306
6.48929247e+307
-inf
inf
-inf
-3.26205364e+306
1.27494032e+307
-2.67145370e+307
1.28263074e+307
-1.73101466e+306
1.67415035e+307
-4.62990329e+306
2.31279883e+306
4.21777051e+305
-3.56402023e+305
-4.08307759e+304
1.03269281e+304
4.90641158e+304
-5.11901449e+304
1.74092068e+304
4.59064465e+303
-3.54443199e+303
4.00357534e+303
-3.31618848e+303
2.07346339e+302
-1.13353287e+303
1.91036355e+303
-1.62905398e+302
6.38163613e+302
3.06902818e+303
-3.44066363e+303
1.14577032e+303
4.95075682e+302
-2.89729744e+302
5.95298794e+302
4.41878280e+301
-1.32533130e+302
-1.75325263e+301
4.65395409e+300
-4.14095125e+300
-1.36014922e+299
-8.66285787e+300
3.54899619e+298
2.34666865e+299
-4.69448240e+299
-2.00888768e+299
1.44055407e+299
-3.69353175e+298
3.98684082e+297
7.52030640e+296
-2.33279934e+297
-1.15473489e+296
1.04789364e+297
-8.74603299e+295
-2.33516502e+296
6.77594558e+295
-3.57832213e+296
-5.46111722e+294
-1.13562254e+295
1.45109174e+296
3.59386843e+296
4.62229152e+294
5.90164819e+294
-3.90010261e+295
-4.21544093e+294
-2.40319118e+295
-1.02598943e+296
-1.23421133e+296
-6.36981716e+296
-1.28147856e+296
1.78462255e+296
-1.82450124e+296
9.30518393e+295
1.81912395e+296
-2.17265802e+296
1.26641059e+295
-6.18739424e+293
6.84798308e+292
-1.93498841e+294
2.96862730e+304
-4.23428012e+304
3.60896778e+304
2.20093188e+303
-1.10178911e+304
-8.36030853e+303
-2.54244704e+304
-2.55981923e+304
-2.27498727e+304
-9.97416112e+304
-1.21187179e+304
-1.81062285e+304
4.75253537e+303
8.68870952e+304
2.76929107e+305
1.86137496e+305
5.01071099e+304
2.88839694e+306
-5.51502995e+306
3.06588198e+306
-3.88183490e+305
-3.02086581e+306
7.72467318e+306
6.30377289e+306
-1.14220329e+307
1.35422314e+307
-9.36705275e+306
-1.61976601e+307
2.71279555e+307
9.44449275e+306
4.60006642e+307
6.60438020e+307
inf
4.90384512e+306
-nan
-nan
-nan
inf
-inf
8.65617500e+307
1.00912305e+308
8.21492206e+307
-1.20178506e+307
-4.13220871e+307
-1.43295782e+308
-5.84871068e+307
-2.51533962e+307
-5.20636043e+307
-1.31349811e+305
3.19728884e+307
-4.22432690e+307
-7.52763032e+307
inf
inf
5.54018962e+306
2.69219454e+307
5.14898871e+305
-1.51059661e+307
-2.05158714e+307
-2.98685326e+307
-1.91026958e+307
5.53868849e+306
-2.04875909e+305
1.03469227e+305
-1.88495815e+305
1.22946705e+305
-6.34785981e+304
-4.45384355e+304
3.06017306e+304
-9.75722685e+303
1.69915687e+303
7.91171799e+303
3.55554772e+302
-2.32689376e+302
1.69221110e+304
1.12892876e+304
-1.03064978e+304
-7.43644520e+303
4.05523383e+303
2.62112256e+303
5.04962899e+303
1.09256960e+302
-3.31973818e+302
-2.78043902e+302
3.06093707e+302
2.19228025e+302
2.49864188e+301
6.15543308e+300
1.49262507e+300
-8.86157108e+299
1.30270304e+301
7.85716195e+300
4.29360872e+300
3.24126363e+299
-1.47225845e+299
3.51517658e+299
5.06898729e+297
-1.97652047e+299
-3.27626653e+299
-9.54392155e+299
-1.17979361e+299
3.11404459e+297
-1.58492498e+297
3.36636247e+296
5.58704908e+296
-1.02033976e+297
1.80344589e+297
-1.53001045e+297
-4.49412849e+296
1.33156813e+296
-9.38115120e+295
2.39613428e+295
2.34773547e+295
-1.41267077e+295
7.34236985e+294
3.28827852e+295
-2.04441975e+295
-1.49083570e+295
4.51080386e+296
1.37575118e+297
-4.66551171e+296
-1.54813434e+296
4.48969627e+296
-5.82922877e+295
1.70528638e+295
-6.46437024e+293
3.69880984e+294
1.03394848e+294
6.89234823e+303
-1.96941057e+304
8.01549171e+303
-6.02423625e+304
7.22240120e+304
1.65616982e+304
4.44646573e+304
-4.03159864e+303
-3.70577110e+304
2.52931326e+304
3.35019865e+304
1.33666281e+304
3.67446711e+304
-1.82774884e+305
-5.51259815e+305
5.58606973e+305
2.78806073e+306
-3.21711042e+306
-4.26552139e+306
2.72167412e+307
-2.65290764e+307
2.60082743e+307
-3.08363313e+307
9.40895422e+306
1.17303397e+307
-3.77686846e+307
-3.26734798e+307
4.24352754e+307
-1.95141939e+307
1.32672909e+307
-1.37575002e+308
-3.35469436e+307
-nan
-nan
-nan
-nan
-nan
-nan
-nan
-nan
-nan
-nan
-nan
-nan
-nan
-nan
-nan
-5.80795620e+307
7.65765781e+307
-4.36232695e+307
8.59325775e+307
-4.47265657e+307
-1.21888964e+308
-inf
-1.32764298e+308
2.23493065e+307
1.18814593e+307
2.94314638e+307
2.92999249e+307
6.18244063e+307
1.03260497e+307
8.72324196e+306
3.14370425e+305
-5.20957583e+305
-6.89033633e+305
3.96703920e+305
-3.49099941e+304
-7.05902041e+304
-2.21435316e+304
2.61006298e+303
8.67192265e+303
7.68882705e+303
-1.08998971e+305
-8.98235689e+302
8.94734824e+302
-5.53836648e+304
7.53270910e+303
1.51731640e+304
-7.94050220e+303
-5.44655804e+303
-3.85869482e+303
-2.41277104e+303
2.71655998e+303
-1.27948958e+301
6.46272813e+302
-3.32693916e+303
-4.44296351e+303
7.38189112e+300
1.84480768e+301
8.17539963e+299
2.76893027e+300
2.49890103e+301
6.26902479e+300
2.22604167e+300
2.89063107e+300
2.95730003e+300
1.84873656e+299
5.53969833e+298
8.40160747e+299
1.16888402e+300
-6.46302536e+299
-5.43115679e+297
5.99669834e+297
2.00308546e+297
-3.55770269e+295
-2.01218241e+297
1.22785183e+297
-3.64441791e+297
1.98950471e+297
4.54456267e+296
4.71846394e+296
8.86824761e+295
-9.49663337e+295
-3.04682661e+294
7.50913473e+295
2.64911037e+295
1.66962170e+297
-3.12434719e+297
5.64164071e+296
7.68630717e+296
-1.90008979e+296
-2.41036262e+296
-3.53721945e+295
4.31851766e+295
-4.09218280e+295
-5.06731028e+294
2.46945603e+295
4.51040434e+295
-4.98485251e+303
-1.02852969e+305
1.17684011e+305
-2.98516248e+305
-2.00919593e+305
-1.44360341e+305
-1.46150309e+305
-5.51469758e+304
1.15900158e+305
-4.81411145e+304
-3.79672348e+304
-4.35377459e+304
-7.58498572e+304
1.10189158e+305
8.38323878e+304
4.14417388e+305
-1.32774465e+306
-2.84043115e+306
2.21776775e+307
-nan
-nan
-nan
-nan
-nan
7.58477394e+307
-7.61859848e+307
inf
inf
inf
-3.41175971e+307
-inf
-inf
-inf
-inf
inf
-nan
-nan
-nan
-nan
-nan
-nan
-nan
-nan
-nan
-nan
-nan
-nan
-nan
inf
-8.77595904e+307
2.66550242e+307
3.51871324e+307
8.33098314e+307
inf
-6.33598109e+307
7.18235323e+307
-3.26027390e+307
-2.47750140e+307
-1.41760496e+307
-3.95228168e+307
-8.14449706e+306
-1.43174644e+306
1.97955596e+306
4.54247892e+305
6.03538335e+305
-1.32041635e+305
-1.45364098e+305
2.74133377e+305
2.50671856e+305
-7.16423227e+304
-4.30392551e+304
3.53013845e+305
-9.60430261e+304
9.75472504e+304
-9.52158105e+303
2.70513301e+304
1.29436451e+304
-8.77252803e+303
-4.63771813e+304
1.17691925e+305
8.67761761e+302
-4.77797121e+303
4.12737975e+302
2.44809610e+303
-1.49571043e+303
1.49778459e+304
2.42792176e+302
2.98548839e+302
1.88628263e+302
2.66767452e+301
1.24729498e+300
-7.51517739e+301
1.21645343e+301
-1.78271462e+300
-8.52165226e+300
2.72767751e+300
4.29757184e+299
2.64281801e+299
-8.39502722e+299
3.72029897e+299
1.63788858e+299
7.53287468e+297
-2.98384513e+297
8.50069393e+297
-6.82718460e+297
4.71723034e+297
1.37664224e+296
-2.69392470e+296
-3.36543679e+297
3.58648847e+297
-1.56361586e+297
-1.21321892e+297
-4.16656689e+297
-4.10171327e+296
-2.87550502e+296
-9.19465278e+295
5.08557771e+296
-6.28125441e+296
8.14686197e+296
1.07963707e+297
-2.90545646e+296
5.85195252e+295
-5.37429109e+295
1.54685369e+296
-6.02153903e+295
4.68899916e+295
-1.96264404e+294
-3.58571706e+295
-4.71053651e+304
3.50055966e+305
4.32207560e+304
1.70067531e+305
2.40277409e+305
2.92286578e+304
1.74614646e+305
1.93924104e+304
-2.31868062e+305
1.29086129e+305
2.04756680e+302
2.55849375e+305
-2.98624644e+306
-1.99804640e+306
-7.38612237e+305
1.67237959e+305
3.72337378e+306
5.41313120e+306
8.96130986e+307
-nan
-nan
-nan
-nan
-nan
8.61294838e+307
-6.34124174e+307
-nan
-nan
inf
-nan
-nan
-nan
-nan
-nan
-nan
-nan
-nan
-nan
-nan
-nan
-nan
-nan
-nan
-nan
-nan
-nan
-nan
-nan
1.97630473e+306
1.04518664e+308
-1.11089437e+307
-1.25043329e+308
-5.31250669e+307
inf
-1.25376863e+308
2.51385691e+307
-2.06053929e+305
-6.34823354e+306
-9.48904596e+305
3.08868918e+306
8.60514798e+306
1.70039430e+306
-1.47393736e+306
-2.21049926e+305
-1.17260050e+306
8.75576367e+304
1.19701871e+305
1.12956343e+305
-6.97825128e+305
1.76071001e+304
-2.49243137e+305
9.94283839e+304
-4.51866912e+305
-7.91458523e+303
1.69030472e+304
9.37387273e+303
-9.82788845e+302
1.29561867e+305
-3.85155139e+305
1.39555491e+305
1.15615778e+302
-9.90678782e+303
2.66324223e+303
4.01597701e+303
-7.83756351e+303
-3.73979534e+303
2.47508590e+302
-1.65160226e+302
2.06965169e+302
4.08579435e+302
7.74732677e+302
2.28526933e+302
6.40478944e+302
-1.04578771e+302
-1.39605407e+302
-7.48434379e+300
1.99384779e+300
5.99852555e+299
8.80009802e+299
-1.05736230e+298
1.51789770e+299
1.15458433e+298
-6.29629906e+297
8.05663118e+297
-9.22287423e+297
1.50848040e+298
-4.07760290e+297
1.49832234e+298
-1.12552778e+298
6.23076926e+297
2.54191301e+296
7.80898865e+297
1.80222919e+297
-4.78576062e+297
3.38698882e+296
4.51728712e+296
5.57530689e+296
4.50456133e+296
-7.41424466e+296
-7.03880497e+296
-4.44550786e+296
6.67922740e+295
1.34777257e+296
-3.91954721e+295
-1.24131848e+296
-5.02880475e+295
-1.12823554e+296
-8.07296345e+295
4.98503689e+304
-6.75476874e+305
2.18087445e+305
-3.65452473e+305
7.99374558e+305
8.06933695e+303
-1.75104037e+305
1.80855751e+305
2.54397735e+304
5.85709186e+304
-2.64515797e+304
7.84834616e+305
8.52882429e+306
4.08453261e+305
1.50382324e+306
4.96898720e+306
7.25008977e+305
-4.29952017e+306
1.94152285e+307
-nan
-nan
-nan
-nan
-nan
-4.45887063e+306
-7.59443202e+306
inf
-nan
-nan
-nan
-nan
-nan
-nan
-nan
-nan
-nan
-nan
-nan
-nan
-nan
-nan
-nan
-nan
-nan
-nan
-nan
-nan
-nan
-inf
4.01598949e+307
4.53833206e+307
4.49981897e+307
-inf
-7.90580978e+307
7.07664888e+307
-nan
-nan
-nan
-nan
9.31737194e+306
-2.45897114e+306
-3.25420281e+307
-3.10072306e+307
-9.90561137e+306
-4.01524095e+305
-5.39719094e+305
6.80431122e+304
-1.79383661e+305
2.04746730e+305
2.16854903e+305
1.23541265e+305
1.52435039e+305
5.38184070e+304
5.39671051e+304
-2.93226190e+304
-2.78091779e+304
-2.22548178e+304
1.42259184e+305
-3.56971372e+304
-7.28812010e+304
-7.97644065e+304
3.73869884e+303
5.16853732e+303
-3.51710346e+303
-1.72575525e+303
-2.76564174e+302
-1.91765697e+302
-4.27165073e+302
-5.03898046e+302
1.21172930e+303
-7.99820902e+302
-2.48260289e+303
1.66868896e+303
-1.41081149e+303
-1.57501998e+302
-3.05924637e+302
-7.63932591e+300
-1.13260043e+300
-3.42119290e+299
-3.39685717e+299
-5.91640469e+298
-4.60378719e+298
7.03169461e+297
6.73930137e+297
-1.18142243e+298
-3.14501187e+298
-1.05776118e+298
5.25939992e+297
-4.48515987e+298
1.82914503e+298
-3.95139494e+297
3.35222224e+296
1.04832408e+298
-1.06206174e+298
3.71913690e+296
-4.42863655e+296
-8.49231095e+295
-2.53019586e+297
-4.38280068e+296
4.09419208e+297
3.10360447e+297
5.12569158e+297
4.74021988e+296
8.51987125e+295
-1.24047017e+296
-2.15082478e+296
-3.62206974e+295
1.43938109e+296
9.09555995e+304
2.89916880e+305
-2.12105229e+305
-2.83299574e+305
3.33490914e+305
-2.96043648e+305
-2.99776586e+305
1.37131226e+305
2.11824259e+305
-4.85056723e+305
-3.53867575e+305
-2.99690645e+306
-2.57206100e+306
-7.29603034e+305
1.01952247e+306
2.74825067e+306
-6.69059280e+306
-3.08057668e+307
5.17743456e+306
-nan
-nan
-nan
-nan
-nan
-nan
-nan
-nan
-nan
-nan
-nan
-nan
-nan
-nan
-nan
-nan
-nan
-nan
-nan
-nan
-nan
-nan
-nan
-nan
-nan
-nan
-nan
-nan
-nan
-nan
-2.83827294e+307
-5.67178407e+307
7.13376313e+307
-5.00587524e+307
-3.90785041e+307
-nan
-nan
-nan
-nan
-nan
-5.69811686e+307
1.69664048e+307
-8.83696761e+306
9.94671511e+307
3.57687137e+307
-9.22746296e+304
1.28883298e+306
4.24061313e+305
-6.24290124e+305
2.73656973e+305
5.59278334e+304
-7.67583108e+304
-1.50699371e+305
-2.23211541e+303
1.24665334e+305
-3.18311076e+304
-1.26787183e+305
6.89294280e+304
2.20108611e+304
1.33439221e+304
-2.75492623e+304
2.22436743e+305
-6.73173844e+303
-7.99578732e+303
-1.16552825e+304
-2.31107476e+304
-2.15193128e+304
-4.92231987e+303
9.84546621e+303
2.73637472e+303
1.60653071e+303
-2.70969950e+303
1.27023629e+303
1.35937162e+303
-1.42645542e+303
1.59938061e+303
6.79687923e+302
-4.68491931e+300
-3.92090451e+300
6.96489516e+297
5.66614271e+299
-4.09447060e+299
-2.23447654e+298
1.24676100e+297
-5.79602995e+298
-3.60410551e+298
5.30587244e+298
9.06213912e+297
-2.68512888e+298
2.45561287e+298
8.83396189e+298
-4.21188962e+297
-1.80938618e+297
8.05608217e+297
-4.00972604e+297
-1.46574860e+296
-3.65326465e+296
7.09529367e+296
9.43265465e+296
5.09192475e+296
-1.61551788e+297
-6.70795278e+297
-4.20873278e+297
8.45830184e+296
1.95214589e+296
3.92000666e+296
2.38383911e+295
-6.42269706e+295
-1.59563138e+297
-5.19064229e+305
1.89695831e+305
-7.38063197e+304
4.32404276e+305
1.01205213e+306
-1.51232436e+306
7.74752663e+305
-3.39337314e+305
-8.82324277e+304
-8.57857491e+304
4.77935029e+305
3.42282459e+305
4.22810505e+305
-1.46711975e+306
-2.82949443e+306
2.68244669e+306
-2.23447950e+306
-1.54139195e+308
-nan
-nan
-nan
-nan
-nan
-nan
-nan
-nan
-nan
-nan
-nan
-nan
-nan
-nan
-nan
-nan
-nan
-nan
-nan
-nan
-nan
-nan
-nan
-nan
-nan
-nan
-nan
-nan
-nan
-nan
-nan
-nan
-nan
-5.83211528e+306
6.60573405e+307
-5.39477804e+306
-nan
-nan
-nan
-nan
-nan
-nan
-nan
-nan
-nan
-nan
-nan
-2.82338258e+306
-2.26683676e+305
1.53964223e+305
-2.27903812e+304
-2.41275619e+305
1.98104913e+305
1.07424767e+305
4.02679504e+304
9.71601127e+303
3.30231666e+305
-3.83861225e+305
-3.25204663e+304
-1.58327556e+305
1.20425247e+305
8.61307826e+304
-7.07937809e+304
-5.40064928e+304
1.75759404e+304
2.21236302e+304
6.16435632e+304
2.44621183e+304
-9.10769836e+303
-5.79482029e+303
3.64033268e+303
1.96234894e+303
-6.95509224e+303
1.45600317e+303
1.14358038e+303
-3.77279829e+302
-1.70363439e+303
-6.18975148e+298
5.23176704e+301
3.88037097e+300
8.50229103e+299
6.21262368e+299
2.24006721e+300
-2.70943474e+300
5.12023231e+299
6.71462014e+299
1.49609277e+299
-5.31080584e+298
1.27512945e+298
3.42632049e+298
-2.63401543e+299
9.75672642e+298
-1.05642963e+297
-3.53279224e+297
9.06439195e+297
-5.75805783e+297
-1.47087102e+297
-1.90685637e+297
1.08656988e+297
7.45976388e+296
-4.22365110e+297
2.54540752e+297
4.38266934e+297
1.35724869e+297
-9.60455776e+296
4.80270764e+296
2.02548065e+297
9.79925027e+296
6.43408497e+296
4.80671796e+297
-1.35094357e+306
8.94663104e+305
7.75750934e+304
-4.80608517e+305
-1.51859536e+305
-1.53850739e+306
1.53106544e+305
-1.41601472e+306
-1.07642326e+306
-1.28761513e+305
3.13508486e+302
-3.64884500e+305
9.97382101e+305
-7.67037675e+305
3.81106283e+306
1.02154952e+307
-1.83376859e+307
-5.76736037e+307
-nan
-nan
-nan
-inf
-inf
-nan
-nan
-nan
-nan
-nan
-nan
-nan
-nan
-nan
-nan
-nan
-nan
-nan
-nan
-nan
-nan
-nan
-nan
-nan
-nan
-nan
-nan
-nan
-nan
-nan
-nan
-nan
-nan
-nan
-nan
-nan
-nan
-nan
-nan
-nan
-nan
-nan
-nan
-nan
-nan
-nan
-nan
-4.90029394e+307
5.12534335e+305
4.52459525e+305
-9.09122843e+305
5.41576204e+305
-3.11298640e+305
-1.29927808e+305
1.51278377e+305
-6.06873595e+304
-1.04500031e+304
-7.60269982e+303
2.74867006e+305
3.42841519e+304
-2.19891912e+305
2.18628944e+305
-4.06917866e+304
7.75944841e+303
7.18989399e+303
-2.46618134e+304
-5.00342563e+304
1.30249789e+304
-6.76810548e+303
-1.97058328e+304
4.53736706e+303
-6.10920901e+302
4.47185503e+303
-2.23026286e+303
2.78735140e+303
7.79308019e+302
-6.66812889e+302
6.81832266e+302
2.70229120e+301
9.17825630e+300
8.23342268e+299
1.15130375e+298
6.42382229e+300
-1.22263699e+301
4.99710491e+300
1.74129421e+299
-1.42530822e+300
2.19248194e+299
5.95324401e+297
1.40907638e+299
-1.50796870e+298
1.03222117e+298
-4.41276907e+297
4.00262330e+297
-1.51422342e+297
-5.46268740e+296
-4.00994693e+297
2.60562169e+297
1.77604835e+297
9.73168454e+295
2.19318247e+297
-9.22742836e+297
-4.37464823e+297
6.01755198e+296
-9.13860279e+297
6.63519013e+296
-2.29718866e+297
-2.16077157e+297
5.44341237e+297
-1.72159623e+297
7.19787389e+305
3.13677628e+306
-1.11375515e+306
-3.47491173e+306
-5.93036070e+305
2.21497763e+304
4.58488553e+305
3.67034851e+306
-2.67789389e+305
-2.72232572e+305
7.40038741e+305
-3.30301464e+304
8.62310488e+304
-6.33392762e+304
-2.71255551e+306
-5.07976090e+306
1.71745259e+307
-5.16930672e+307
-nan
-nan
-nan
-nan
-nan
-nan
-nan
-nan
-nan
-nan
-nan
-nan
-nan
-nan
-nan
-nan
-nan
-nan
-nan
-nan
-nan
-nan
-nan
-nan
-nan
-nan
-nan
-nan
-nan
-nan
-nan
-nan
-nan
-nan
-nan
-nan
-nan
-nan
-nan
-nan
-nan
-nan
-nan
-nan
-nan
-nan
-nan
-1.03101245e+308
7.83161352e+305
-5.36045400e+305
4.83127466e+303
1.56026541e+305
-5.38125093e+305
1.59812106e+306
-4.05025415e+305
3.73672494e+304
5.34722773e+304
1.46137061e+305
-1.38655947e+305
9.70836419e+305
1.22129353e+305
1.12519949e+305
-6.01320785e+304
-7.89140035e+304
-4.78902300e+304
3.48296634e+304
-1.50534987e+305
5.65241496e+303
1.30908708e+304
1.53241091e+304
-5.33032970e+303
-6.93204401e+302
7.05680568e+302
4.93877327e+301
-1.95864010e+303
-5.13388532e+302
-1.26155167e+303
5.15116582e+302
-6.12682414e+301
5.47616935e+301
-1.86154527e+300
-6.78627718e+299
7.34521496e+299
-1.97010198e+300
1.12669163e+300
-6.04605885e+299
-4.77318792e+299
5.28073352e+299
-8.43385499e+298
-1.14438434e+299
-3.36197529e+298
-1.30970266e+298
8.07634109e+297
-4.44466489e+297
1.81704880e+297
1.73251828e+297
2.74517749e+297
-2.17334149e+297
1.29371159e+298
8.66818783e+297
6.74563838e+297
4.29831678e+297
1.04042317e+297
3.61934485e+297
7.24323324e+296
5.44131171e+297
-2.70871357e+297
-5.25156351e+297
3.38762997e+297
4.07741778e+297
6.45398163e+305
5.96660552e+305
-1.23976081e+306
1.92179788e+306
4.12357633e+306
-1.54838474e+305
-3.75135725e+306
9.13357388e+305
-9.95682499e+305
6.16835895e+305
4.01080752e+306
5.71510199e+305
-9.50925497e+306
6.14809070e+306
3.34517844e+306
5.48305575e+306
-5.25088277e+306
1.24736999e+308
1.26769163e+307
-1.43240840e+308
-inf
-nan
-nan
-nan
-nan
-nan
-nan
-nan
-nan
-nan
-nan
-nan
-nan
-nan
-nan
-nan
-nan
-nan
-nan
-nan
-nan
-nan
-nan
-nan
-nan
-nan
-nan
-nan
-nan
-nan
-nan
-nan
-nan
-nan
-nan
6.53319068e+307
-9.95872907e+307
-inf
-nan
-nan
-nan
-nan
-nan
-nan
-nan
-inf
8.70470135e+305
4.25316362e+306
1.68074412e+305
7.71916306e+304
-6.65645844e+305
-7.62245742e+305
-1.06025156e+306
1.47949624e+305
1.67407826e+305
-2.87827036e+305
-1.77291394e+306
-6.63102284e+305
-7.29050452e+305
1.30687449e+305
4.19892086e+304
3.75896278e+305
8.96557134e+304
8.96178704e+304
-1.74028479e+305
3.79800102e+305
-4.93423633e+304
-6.56212002e+303
-4.56341048e+303
-1.69879805e+304
-1.39910264e+303
-1.22250555e+303
9.80467802e+302
-1.22164611e+303
2.92089239e+303
4.06334114e+302
-1.06604037e+302
9.20495375e+301
5.00091865e+299
-5.90941704e+300
1.75705376e+300
2.34731624e+299
1.05473669e+300
-1.10303363e+300
-8.82182067e+298
6.77592628e+298
5.67084138e+299
3.10376402e+299
-6.68205600e+298
8.36777368e+297
-3.92296165e+297
-3.14515580e+298
1.33745143e+298
-9.38500122e+296
-4.16793902e+297
-8.25561761e+297
-3.40100522e+298
-1.14008426e+298
-5.30641962e+297
-4.92312881e+297
1.25423663e+297
-2.80303821e+297
2.13133506e+296
-5.49434679e+297
1.52847879e+297
5.36900828e+296
-5.51132359e+297
-7.49755121e+297
-9.24097822e+305
-1.22131579e+306
-1.79250569e+306
-2.43214301e+306
2.25043264e+306
1.71911159e+306
-9.15148513e+306
3.05302876e+306
1.08018552e+306
3.02598560e+306
1.84764446e+306
3.36580954e+307
5.13437141e+307
1.61334965e+307
1.19994063e+307
-3.31541361e+307
-5.67839762e+307
-7.97135794e+307
1.77000656e+308
4.14193484e+307
inf
-nan
-nan
-nan
-nan
-nan
-nan
-nan
-nan
-nan
-nan
-nan
-nan
-nan
-nan
-nan
-nan
-nan
-nan
-nan
-nan
-nan
-nan
-nan
-nan
-nan
-nan
-nan
-nan
-nan
-nan
-nan
-nan
-nan
-nan
-nan
-nan
-nan
-nan
-nan
-nan
-nan
-nan
-nan
-nan
-inf
-1.47101714e+307
6.39287582e+306
-2.98300172e+305
3.19389052e+305
5.45897097e+305
-8.71681704e+305
-7.99752938e+305
3.48619837e+304
-1.34143952e+305
-1.50380987e+305
-3.64588554e+306
2.84195877e+306
-1.49188514e+306
-2.53868465e+305
-8.14717563e+305
-2.92798171e+305
-2.54165970e+305
-9.39923515e+303
-3.20121033e+304
-2.30692426e+304
-1.26030016e+305
-7.13282651e+303
9.40672472e+303
2.47224625e+304
1.22494518e+303
-8.03448879e+303
7.56642809e+303
1.61402318e+303
4.00688539e+302
-2.75374733e+302
-2.50410607e+302
-4.84106523e+300
-1.68759518e+301
-5.46061498e+301
-5.68566231e+300
2.10288671e+300
6.58119565e+300
-3.76834021e+300
-9.00574947e+299
2.38696910e+299
-4.42683505e+299
-9.46108205e+298
-6.16644332e+298
2.09360571e+299
1.25516796e+298
-2.81239372e+298
7.15146894e+297
1.13687595e+298
6.44876996e+298
1.81126305e+298
2.51134530e+298
-6.88053077e+297
-2.68788388e+298
-8.18364932e+297
4.42702829e+297
4.03156602e+297
3.37880935e+297
5.47767263e+297
6.68819866e+297
3.09290960e+297
1.19764038e+296
-4.59282927e+296
8.78241687e+305
5.36131094e+306
-3.75131255e+306
8.53920217e+306
8.86542779e+306
-4.81541937e+306
-2.91734955e+306
9.40562680e+306
-1.68536260e+306
5.40195684e+306
2.33572034e+307
-2.13822720e+307
-5.13769506e+307
-4.96316324e+307
-1.97823836e+307
2.29547146e+307
-nan
-nan
-nan
-nan
-nan
-nan
-nan
-nan
-nan
-nan
-nan
-nan
-nan
-nan
-nan
-nan
-nan
-nan
-nan
-nan
-nan
-nan
-nan
-nan
-nan
-nan
-nan
-nan
-nan
-nan
-nan
-nan
-nan
-nan
-nan
-nan
-nan
-nan
-nan
-nan
-nan
-nan
-nan
-nan
-nan
-nan
-nan
-nan
-nan
-inf
-3.22688010e+306
1.65544083e+306
1.44405580e+305
-7.84475988e+305
7.74631241e+305
-2.87666364e+306
8.10708247e+306
-4.82071703e+305
1.43217733e+305
3.07052317e+305
8.63442071e+305
7.80381315e+306
1.19234499e+306
-1.55008953e+306
2.24317925e+306
-1.12251125e+306
3.65234660e+304
5.74613248e+303
-1.89970723e+305
-1.46617965e+305
1.03770732e+305
7.82977679e+303
-3.23811778e+304
-2.45315182e+303
-1.69524105e+304
1.28858544e+303
4.00824090e+303
-1.41803813e+304
2.55267937e+302
-2.69671289e+302
7.08953047e+302
1.46858944e+302
8.22265786e+301
5.29611413e+301
-1.35417147e+301
1.38482862e+301
3.86892994e+300
4.50901936e+300
-8.79881204e+299
-7.94716903e+299
-2.94341797e+299
-3.94170672e+299
-3.58363306e+299
3.95136583e+299
-3.53087572e+299
-1.55111370e+299
-4.34553999e+299
-1.90484801e+299
-2.96455025e+298
2.65328319e+298
-1.83177623e+297
2.64641577e+298
6.36258650e+298
1.36445920e+298
-9.14310369e+297
5.58175440e+297
-1.71652311e+298
6.92477783e+297
-1.40506819e+298
-9.08901252e+296
-2.03951307e+297
2.34209164e+296
-2.48613748e+306
-3.71178797e+306
-1.18389080e+307
-6.30341332e+306
1.46878761e+307
-1.89845553e+307
-1.95735739e+307
3.69802331e+307
-1.66940021e+307
4.31582727e+306
2.81094074e+307
-7.23235358e+307
1.89413272e+307
1.11324107e+307
-1.05477914e+308
-4.53119792e+307
-nan
-nan
-nan
-nan
-nan
-nan
-nan
-nan
-nan
-nan
-nan
-nan
-nan
-nan
-nan
-nan
-nan
-nan
-nan
-nan
-nan
-nan
-nan
-nan
-nan
-nan
-nan
-nan
-nan
-nan
-nan
-nan
-nan
-nan
-nan
-nan
-nan
-nan
-nan
-nan
-nan
-nan
-nan
-nan
-nan
-nan
-nan
-nan
-nan
inf
1.40981501e+308
6.45217655e+306
-2.06936744e+306
-4.08115991e+306
1.85881874e+306
1.46074672e+306
7.75220415e+305
-3.11959814e+306
-3.12471501e+305
5.93496889e+305
-3.50317590e+304
-5.36038992e+306
-1.37652854e+305
-1.54238381e+306
1.68125556e+306
-9.25450300e+304
-4.63647477e+304
5.06346979e+304
-8.61566749e+304
6.18725653e+305
-1.01550257e+305
2.10342700e+304
4.59384857e+303
2.46262193e+304
1.63867284e+304
-1.31836632e+304
7.06972619e+303
4.93817124e+303
3.48650119e+303
-4.49949861e+300
2.47182959e+302
-3.43711475e+302
-1.21254138e+302
-2.72499966e+302
1.63008274e+301
-9.43457276e+300
-1.60531165e+301
-1.21453853e+301
7.77673516e+300
-9.49124873e+300
-3.84848487e+299
-1.51695663e+300
-2.29590197e+299
6.71454621e+298
3.10561020e+299
4.42107984e+299
4.56968152e+299
-6.77632097e+298
-1.69079660e+299
-1.45402317e+297
-4.66244351e+297
8.72200544e+297
-2.02297562e+298
1.18051359e+297
6.06989159e+297
1.87209319e+298
-1.28529019e+298
-4.02837123e+296
2.99120767e+297
-1.19327028e+297
9.82001053e+296
8.69101077e+296
2.21274485e+306
2.78328966e+306
1.01602071e+307
1.74836558e+307
-6.19125049e+306
3.48064202e+305
3.46705600e+305
9.53301630e+306
-1.66105419e+307
5.19005447e+306
-7.10606301e+306
-4.36938441e+307
3.75004859e+307
-3.35887032e+306
inf
inf
-nan
-nan
-nan
-nan
-nan
-nan
-nan
inf
inf
-nan
-nan
-nan
-nan
-nan
-nan
-nan
-nan
-nan
-nan
-nan
-nan
-nan
-nan
-nan
-nan
-nan
-nan
-nan
-nan
-nan
-nan
-nan
-nan
-nan
-nan
-nan
-nan
-nan
-nan
-nan
-nan
-nan
-nan
-nan
inf
-9.13706942e+307
4.63049885e+307
6.18092688e+307
-1.70100004e+308
-inf
-9.79513319e+307
2.07682771e+307
4.28097739e+305
6.10922679e+305
-6.39011862e+306
-1.57239322e+306
6.77991878e+305
2.63511843e+306
1.84539201e+304
-9.30480607e+305
3.62464115e+305
-1.48435631e+305
1.79629299e+306
6.76616557e+305
2.67140069e+305
-6.88878371e+305
-1.73810456e+305
1.25869865e+305
1.18340232e+305
-1.57745196e+305
-2.06076794e+305
1.36589877e+305
-4.23915882e+304
-3.23896255e+303
-2.39733260e+303
-3.59795581e+303
1.40959188e+303
5.71500312e+302
7.73334019e+302
2.01191182e+303
1.06804384e+303
4.61247158e+302
-9.47436705e+302
-1.31316098e+303
-6.82434676e+301
7.87921194e+301
-5.85407937e+300
1.00050040e+302
5.51165830e+301
3.28076655e+300
-9.52471967e+299
-3.13101203e+300
3.81743119e+300
-7.01689009e+299
-4.90842509e+299
1.66768974e+299
3.12265013e+298
3.58585925e+299
1.71905076e+298
-7.23886714e+298
-2.47260920e+298
-8.59347109e+297
2.74243424e+298
9.13386617e+297
-2.06375342e+296
-1.90117408e+298
4.37317352e+298
4.30457272e+298
7.89067839e+297
7.06471540e+296
-1.40788021e+297
-2.39891128e+296
-9.62892202e+304
5.70930484e+305
-7.22028136e+306
-1.45397765e+306
-5.33879553e+306
-2.44776352e+306
5.27592048e+305
-2.36491186e+306
-1.54278063e+307
-8.84699584e+305
1.38907575e+307
3.25620726e+307
-3.95479094e+307
8.35820945e+307
-nan
-nan
-nan
-nan
-nan
-nan