# vtk DataFile Version 2.0
LBM Flow Field - Timestep 950
ASCII
DATASET STRUCTURED_POINTS
DIMENSIONS 128 128 1
ORIGIN 0.0 0.0 0.0
SPACING 1.0 1.0 1.0
POINT_DATA 16384
SCALARS density double 1
LOOKUP_TABLE default
1.32143428e+00
1.31072888e+00
1.29801630e+00
1.28527733e+00
1.27278506e+00
1.26024611e+00
1.24808465e+00
1.23586013e+00
1.22413082e+00
1.21232651e+00
1.20111896e+00
1.18982940e+00
1.17921949e+00
1.16852577e+00
1.15857426e+00
1.14854243e+00
1.13929419e+00
1.12997429e+00
1.12145816e+00
1.11288389e+00
1.10511318e+00
1.09730206e+00
1.09027556e+00
1.08322980e+00
1.07693324e+00
1.07064094e+00
1.06504876e+00
1.05948558e+00
1.05456290e+00
1.04969399e+00
1.04539872e+00
1.04118079e+00
1.03746567e+00
1.03384916e+00
1.03066373e+00
1.02759492e+00
1.02488729e+00
1.02231031e+00
1.02002871e+00
1.01788732e+00
1.01598138e+00
1.01422056e+00
1.01264234e+00
1.01120958e+00
1.00991427e+00
1.00876056e+00
1.00770699e+00
1.00678753e+00
1.00593846e+00
1.00521309e+00
1.00453529e+00
1.00396869e+00
1.00343289e+00
1.00299455e+00
1.00257527e+00
1.00223927e+00
1.00191461e+00
1.00165932e+00
1.00141067e+00
1.00121831e+00
1.00103003e+00
1.00088624e+00
1.00074534e+00
1.00063864e+00
1.00053448e+00
1.00045586e+00
1.00037981e+00
1.00032229e+00
1.00026746e+00
1.00022566e+00
1.00018663e+00
1.00015646e+00
1.00012904e+00
1.00010743e+00
1.00008840e+00
1.00007304e+00
1.00006000e+00
1.00004918e+00
1.00004033e+00
1.00003279e+00
1.00002685e+00
1.00002165e+00
1.00001770e+00
1.00001416e+00
1.00001155e+00
1.00000917e+00
1.00000746e+00
1.00000589e+00
1.00000477e+00
1.00000374e+00
1.00000302e+00
1.00000236e+00
1.00000189e+00
1.00000147e+00
1.00000117e+00
1.00000091e+00
1.00000072e+00
1.00000056e+00
1.00000043e+00
1.00000034e+00
1.00000026e+00
1.00000020e+00
1.00000015e+00
1.00000012e+00
1.00000009e+00
1.00000007e+00
1.00000005e+00
1.00000004e+00
1.00000003e+00
1.00000002e+00
1.00000002e+00
1.00000001e+00
1.00000001e+00
1.00000001e+00
1.00000001e+00
1.00000000e+00
1.00000000e+00
1.00000000e+00
1.00000000e+00
1.00000000e+00
1.00000000e+00
1.00000000e+00
1.00000000e+00
1.00000000e+00
1.00000000e+00
1.00000000e+00
1.00000000e+00
1.00000000e+00
1.80818993e+125
-3.47164765e+125
-2.37185880e+125
-2.17346760e+125
-4.15266085e+125
-8.73522081e+125
-1.58902259e+126
8.57267083e+125
2.89110338e+124
1.33206952e+125
-1.35120370e+125
-1.90416886e+125
-2.79618711e+125
-2.80030240e+125
2.21470595e+125
-3.93591201e+126
4.76771978e+126
-4.96009792e+125
-2.10161372e+126
-1.59791037e+126
5.01965993e+126
-1.54837892e+126
1.10859947e+126
-1.55257665e+126
-3.19141474e+126
-7.11598029e+126
2.86224931e+127
-1.55840303e+128
2.66097138e+127
4.56677719e+126
1.81705858e+126
5.84076379e+126
4.55806623e+127
-9.54600873e+126
-9.86129416e+127
2.30307862e+127
4.49078150e+126
2.21800256e+127
-1.07313722e+128
4.09937623e+128
-9.85422515e+127
-1.93297397e+129
-1.88123598e+129
-5.21611593e+129
6.00732318e+129
-5.60223596e+129
5.20301016e+129
-9.53880002e+128
-1.75300919e+129
-3.01335922e+128
4.61902014e+128
-2.45864796e+128
-3.64986907e+128
1.37942097e+129
-6.87971878e+128
-1.11519515e+128
-2.76790278e+127
9.41582963e+125
2.97156883e+127
-6.88792392e+127
5.36045701e+127
3.73461550e+126
2.66968799e+126
1.76048673e+126
-6.26473713e+124
-7.06884316e+125
-3.52285701e+125
-4.35569835e+125
-2.75960572e+124
1.02774212e+125
-5.75437632e+124
9.71575191e+124
5.10569494e+124
-4.01562065e+124
-3.93900941e+125
-2.55918262e+125
6.10675408e+125
-2.40017348e+126
-3.10450304e+126
5.18167339e+126
-2.51804903e+126
-1.18006993e+126
4.17825427e+124
-7.17038822e+124
1.14966561e+124
-2.05470645e+123
-2.85791921e+123
-1.72092871e+123
1.02409691e+123
-3.98413376e+122
9.88058075e+122
-8.55274279e+122
2.04862673e+123
-1.12063225e+123
-2.70125116e+121
2.23918171e+122
1.21735412e+122
8.05227979e+121
-3.03956598e+122
5.77126848e+121
-3.08522472e+120
8.97658749e+120
-4.27325607e+120
-1.95972640e+121
-3.45455420e+119
2.90615101e+119
1.93911446e+119
-1.57400354e+119
7.19774217e+118
-4.14478595e+120
-3.90562167e+121
-2.09330719e+121
-2.14943512e+121
-9.32265062e+119
-9.91803896e+117
-1.71480479e+118
4.60812690e+117
-4.16432570e+116
1.71061693e+117
9.66310846e+115
-1.39720467e+116
4.22165600e+114
1.89698449e+114
-9.57779537e+114
4.20681088e+115
-3.45158186e+115
-1.68363266e+114
-1.02824542e+113
-1.26685334e+125
1.78554734e+125
7.98155746e+125
-5.86834874e+126
-2.44333693e+127
-7.98789189e+126
-3.10395536e+126
-1.51997568e+125
-9.71526313e+121
1.23707802e+125
-1.29760452e+125
3.90266469e+125
2.06813861e+125
1.12199800e+126
-1.56805753e+126
-2.09920242e+126
4.14387378e+126
-1.50892882e+125
2.23362461e+126
7.96404267e+125
-4.57960983e+126
3.79476299e+127
1.00660248e+128
-4.56237071e+127
2.32036802e+128
-2.37430486e+128
1.85516556e+128
1.19947035e+128
2.27853694e+127
2.32225583e+127
-1.99553162e+127
-6.08891364e+126
-9.29299340e+125
-2.06164434e+127
4.52915432e+127
3.35271445e+127
-1.35480041e+128
1.40463218e+128
-5.51011812e+126
-7.61256132e+127
-1.23658140e+129
-4.31108543e+128
4.40986338e+128
5.63331191e+129
4.22480844e+129
4.34122445e+130
2.02007192e+130
1.60040850e+130
-2.43685911e+130
-4.27373320e+129
-7.46415207e+128
-9.62720300e+128
-2.07879906e+128
-7.57643515e+126
-1.28740968e+128
1.01794384e+128
1.13644411e+127
-1.15874598e+128
-2.14418515e+127
2.63079804e+127
3.84893807e+127
-6.27864067e+127
1.00721679e+127
2.56606721e+126
2.12978771e+126
-7.98805638e+125
8.12351436e+125
1.05013561e+126
-3.52272070e+125
1.47885786e+125
8.19342043e+123
7.14918712e+124
-2.28974912e+124
-2.84408690e+125
-2.78062816e+125
-5.92092233e+125
-1.24816255e+126
3.88106886e+126
-9.99614998e+126
-6.88143509e+126
-1.19987995e+126
-1.14303649e+126
1.99599849e+125
7.86716236e+124
2.04594464e+124
1.71123022e+124
2.95275124e+124
-4.48727376e+124
-1.48746628e+124
-5.61234320e+123
2.18920339e+123
5.05261997e+121
5.80425822e+122
1.61055367e+123
-2.50200178e+122
-5.02155673e+121
9.09844461e+121
1.38670648e+122
1.20072915e+122
-6.90921761e+121
3.60333159e+121
-1.71252981e+121
-6.68660192e+120
4.98618372e+120
-6.38929631e+119
4.23953108e+119
1.86221034e+119
-6.98831312e+118
3.70118134e+118
-1.50197003e+121
4.05124775e+121
4.35611050e+121
1.49699204e+121
2.49040907e+120
-2.26951869e+118
-7.55673486e+117
5.64611344e+117
-1.60134788e+117
6.61985431e+117
-9.71409830e+116
2.92789088e+117
-2.75122370e+116
1.23872644e+117
2.58552771e+116
1.74203824e+116
-5.99495380e+115
-1.52601923e+115
2.95830690e+114
8.49087657e+126
1.09911601e+127
8.83994809e+126
1.92142173e+127
5.13564549e+127
2.11692657e+127
2.37470933e+126
4.96227742e+125
-2.90712407e+125
-2.83042061e+124
2.74514932e+125
-1.67186213e+126
-1.33346464e+126
-2.67131618e+126
-3.44467475e+126
-2.69311094e+126
1.93866525e+126
1.11900458e+126
-8.18914365e+126
-8.85167507e+126
5.13938709e+126
1.86375887e+128
2.91861076e+128
3.63262131e+128
-2.30030089e+128
-2.46054803e+128
-4.36892754e+128
4.40957064e+128
1.16845161e+128
2.97974196e+127
-1.98263373e+126
3.50845965e+127
-3.17513998e+127
-1.74710934e+128
1.57559033e+129
4.17448333e+129
1.48291368e+130
2.47600550e+129
-2.63709928e+128
5.84639485e+128
-1.56383871e+129
2.53811934e+129
1.32869106e+130
6.34421222e+129
-1.57750734e+130
-7.46834460e+130
-2.51247975e+130
9.73944606e+129
2.93390628e+130
-1.94068675e+130
2.95922880e+127
1.31476909e+129
5.16998508e+128
-2.50110530e+128
-3.42751944e+127
-2.36624890e+128
-4.45902475e+127
4.06833454e+127
8.64253413e+127
1.44359671e+127
5.50472944e+126
1.91020564e+127
6.44466746e+126
-7.39981398e+125
-1.29482331e+126
3.00975783e+126
-9.19395351e+125
6.73079615e+125
-2.47353320e+125
-5.19989767e+125
-1.00057004e+124
-9.05281489e+124
1.30082451e+124
5.12270888e+125
6.40868787e+124
6.55997430e+125
1.37384894e+126
2.52562903e+126
8.45390632e+126
2.28302634e+126
7.77194092e+125
-1.13423474e+126
2.02400686e+125
-2.35069593e+125
-8.79510162e+124
2.99088562e+124
-2.21985510e+125
5.63876821e+124
-2.14470306e+124
2.78720593e+124
5.13224237e+123
7.97780769e+122
-2.63998890e+123
8.12334599e+122
3.74928942e+123
-6.32892650e+122
-5.64056112e+122
-1.94124136e+122
8.09987740e+120
-4.67012989e+121
2.71547244e+121
-8.01861043e+121
1.21031132e+120
-5.86284601e+120
-5.28230983e+119
-2.02024446e+119
6.95126891e+118
4.25721359e+118
-3.11790491e+119
1.37268055e+121
1.07510468e+121
-4.57715621e+121
9.34146763e+120
1.35019944e+121
8.24645956e+118
4.22636806e+118
-2.32730493e+117
3.80972896e+117
-1.03991755e+118
2.18469236e+117
1.00099209e+118
-6.72996094e+117
-1.41385048e+117
9.03581516e+116
7.23804812e+116
2.73822392e+116
2.54802594e+116
6.76667613e+115
-5.04606290e+126
-1.19638459e+127
-1.20260128e+128
3.86410461e+127
3.92726334e+126
1.00184146e+127
4.74794873e+126
-5.33121232e+125
1.89901133e+126
5.42718287e+126
-2.39818106e+126
3.17223891e+126
1.91670701e+125
-5.97772886e+126
-1.91297316e+126
3.67764253e+126
-3.26575473e+125
7.04966238e+126
5.67229573e+126
-4.50199386e+126
2.08295440e+128
-2.71425688e+128
-1.10185161e+129
2.11469887e+128
-5.82026775e+128
1.78284135e+128
-7.90272110e+128
-1.46572297e+128
2.30588780e+128
-4.61604250e+126
-8.57921802e+126
-2.44308704e+128
-4.03549003e+128
-2.60009005e+129
-5.49394535e+127
-1.19621856e+130
-1.98511903e+130
1.11963744e+130
-1.46857193e+128
-1.62852746e+128
2.38168476e+127
1.11479291e+130
-1.24353281e+130
-2.44888518e+130
1.33807957e+130
8.33171276e+130
3.44400922e+130
-3.19549533e+130
8.52031340e+129
-7.06528731e+129
-2.18362330e+129
4.90913104e+128
1.80479167e+129
1.41629332e+129
8.18376609e+128
-5.54226175e+128
3.04801964e+128
-8.43169004e+126
-3.29490374e+127
2.17386890e+128
9.00534063e+128
1.06965079e+128
2.77404419e+127
3.85353128e+127
8.08478686e+126
8.37912923e+126
7.02130532e+126
1.49316829e+125
1.07860211e+127
-3.89119541e+126
-1.41150653e+126
-4.98287983e+124
2.06378608e+125
-1.85329055e+124
4.04489131e+125
-1.59066396e+125
2.51871465e+125
-3.80929517e+126
2.66394385e+127
-3.46973849e+127
5.11526329e+125
3.57868314e+126
5.93221211e+125
-1.34510794e+125
-1.44833133e+125
-5.13532008e+124
-4.50962822e+125
6.87757413e+125
-3.03792029e+125
-6.11287352e+124
-9.59662842e+123
1.43120871e+123
4.27805800e+123
-2.60841699e+123
5.32934161e+123
-1.41189659e+124
4.30124707e+123
3.08115751e+122
-7.91282992e+121
-3.25199628e+119
-1.36032658e+121
5.33939026e+121
1.25224662e+121
-3.26472718e+120
-2.36291430e+120
-2.59526288e+119
5.18967207e+119
2.16479032e+119
8.20602019e+119
-2.11226546e+120
1.70026590e+121
4.33000470e+121
4.06164973e+121
-1.49860276e+121
7.85632009e+117
-6.29394769e+117
-1.02882884e+119
-8.43962385e+118
7.80219360e+117
3.23805944e+117
4.73830617e+117
-1.01281219e+117
1.48865925e+117
-1.37267736e+117
9.79705585e+116
-4.70437843e+116
-2.95385786e+116
2.18098082e+116
-8.33340095e+126
8.04010011e+126
-1.05403021e+128
3.61631103e+128
-1.55933200e+128
-2.44585559e+127
2.52467990e+126
6.35508162e+125
-1.46790101e+127
1.15902339e+126
-2.65921016e+126
1.20662415e+127
1.17973163e+127
2.27434881e+127
1.15712403e+127
-8.48434049e+126
-4.11971947e+126
1.63712244e+126
-1.51473554e+127
-1.27840601e+127
2.56914298e+128
-1.91732389e+127
4.93768050e+128
4.41335057e+128
1.97151901e+127
-2.24536319e+128
9.35202460e+128
-5.13428191e+127
1.14889986e+128
-7.24273228e+127
5.07154477e+128
5.98346747e+128
5.79390275e+128
-1.30026703e+129
-6.04083104e+129
1.56270544e+130
-8.04659686e+129
-2.52683093e+129
8.91736242e+128
-8.53009029e+129
5.40825815e+130
-6.00504316e+130
-5.20484055e+129
6.70282579e+130
-1.97274107e+131
2.43876945e+130
6.24448095e+130
-1.52391014e+130
3.44729734e+130
7.65000278e+129
2.81739300e+129
-6.41843766e+128
-1.19454634e+129
-2.15003753e+129
-4.99248702e+128
-2.51964106e+128
-1.46437615e+127
3.62392650e+126
9.63293627e+127
-3.83530149e+128
-1.98102073e+129
-4.48939789e+128
-4.99678282e+127
-3.67349514e+127
1.90714825e+125
3.32658346e+127
-4.00095725e+127
2.09628819e+127
-2.23160582e+127
-3.68227197e+126
-2.31535693e+126
-3.36635608e+125
-1.56459404e+126
-5.75308747e+125
-3.36037004e+125
-8.45704630e+125
1.38644710e+126
-6.13331579e+127
1.50666048e+128
-6.42702634e+127
-7.29854217e+125
-1.25271942e+126
-2.04917202e+126
-5.29885707e+125
5.42543224e+125
-1.45092860e+125
6.58191456e+124
-7.73310816e+125
-6.53400742e+125
-1.10642510e+125
6.42380360e+124
-8.33910554e+123
1.04154958e+124
2.84333423e+123
1.07570271e+123
3.89643869e+122
4.78127593e+123
9.51266532e+121
-1.94669763e+122
-1.26043598e+121
-3.02917613e+121
-3.27825110e+121
-1.71282962e+121
8.47054284e+120
9.84620688e+119
1.04237823e+119
2.23577736e+118
-6.52853678e+119
9.04419531e+119
-9.87751810e+119
-2.18265818e+121
-2.04527653e+121
-3.93110662e+121
-4.76074781e+120
-1.36670796e+118
-2.20430202e+119
1.02215526e+119
2.21501457e+119
-1.64784658e+118
-1.02936408e+118
1.95062598e+117
-3.56830679e+117
-5.46776573e+115
-3.20627489e+117
1.20808137e+117
1.17862311e+117
1.62645044e+117
-3.66655764e+116
-1.49521771e+126
-1.58165417e+127
-2.27442273e+127
1.87343234e+127
-7.15349189e+127
4.20563615e+126
-2.39046199e+127
3.59709117e+126
4.01110430e+125
-3.95867335e+126
3.93228154e+126
-1.20024786e+127
-3.03435778e+127
-2.66830671e+126
6.83610021e+127
-1.31451615e+127
5.85276270e+127
9.80892872e+127
-3.16731923e+127
2.67804039e+127
2.52496731e+128
-1.03390971e+129
-5.38183429e+128
-9.57508748e+128
-1.46328963e+129
-3.63889086e+127
9.78909077e+128
-1.26670427e+129
5.73280283e+128
-2.74961055e+128
-1.09887148e+129
-1.54036410e+128
3.01714099e+129
1.24898132e+130
-1.71168906e+130
-9.98272694e+129
-1.31107040e+129
7.63979960e+128
-2.18016049e+129
-1.24891377e+131
2.75378522e+131
-1.20221552e+131
-1.17761417e+130
2.82109801e+130
-1.95168166e+130
-1.48805622e+130
-2.13526585e+130
1.66334561e+130
-4.16998574e+130
-2.62829332e+130
-1.50675132e+130
6.98293747e+129
-1.35576994e+129
1.99288392e+129
3.68432535e+128
-2.98286955e+127
1.37372300e+129
-7.96396367e+129
-1.86081404e+129
1.45838764e+129
8.49944597e+128
3.50245450e+128
1.63452409e+128
-2.99718420e+128
1.88154238e+128
-9.83168968e+126
3.51329794e+126
7.08937900e+127
9.69086990e+126
5.67527910e+127
-4.18717249e+126
3.11332984e+126
3.19086859e+126
-1.10175100e+126
2.18276285e+125
-7.18328236e+125
-8.22197902e+124
-3.70435594e+127
2.47400208e+127
-1.43659972e+126
1.09774537e+126
5.93914650e+125
1.06593494e+126
-4.16435670e+125
8.60691119e+125
1.40450400e+126
2.53993473e+126
2.38311373e+126
-9.66444485e+125
1.78155132e+125
-1.00514828e+125
-2.13324228e+124
-1.89729742e+124
9.66152421e+123
-2.98362394e+123
-1.45215723e+123
-3.57757650e+123
-4.72768974e+122
-2.33102878e+122
2.80979577e+121
3.63456564e+121
5.63033984e+121
2.85223670e+121
1.60503201e+121
1.23122762e+120
-5.51507014e+119
5.69765163e+119
-3.04112198e+119
-1.02103910e+120
2.56994233e+119
-2.73411641e+118
-4.33845117e+118
2.50049613e+119
1.72827032e+119
2.11192942e+119
-2.43630705e+119
7.81997185e+118
-5.09466805e+118
-8.36111849e+118
-9.58141080e+117
1.24323491e+118
1.11051536e+117
4.70844188e+116
-7.34736657e+116
1.43637633e+117
-5.39781289e+117
3.56337389e+116
-6.62226413e+116
-1.71306531e+126
1.01543405e+126
5.05143991e+126
7.69927025e+126
-4.15333958e+127
-7.79498190e+127
5.47833226e+126
2.68627097e+126
-2.17773154e+126
2.08620933e+127
1.96181111e+127
2.76733475e+127
8.01602902e+126
6.97990107e+127
-7.04277001e+127
-8.40512317e+127
-1.48538531e+128
8.58322252e+130
-2.28639405e+131
-4.34706813e+131
5.58482863e+128
-1.64221241e+128
1.54807738e+129
9.83975442e+128
3.50734104e+129
-3.90697084e+129
2.01444652e+128
-1.19587617e+128
5.64040671e+128
1.15695701e+128
-8.43359737e+127
5.14546468e+128
3.58769999e+128
-9.00612521e+129
8.67019164e+129
3.42319319e+129
2.35102598e+129
-4.54297915e+129
-1.06009318e+130
-8.39113880e+130
5.28326056e+130
4.43877101e+129
4.38011858e+131
-1.03911516e+132
6.70850020e+131
-1.49569043e+130
6.45696155e+129
-1.16103772e+130
-8.86484175e+129
1.41377150e+130
-3.44233507e+129
-7.29528631e+129
1.04941489e+130
2.23986596e+129
1.05921008e+128
-7.68841237e+128
-1.82340531e+129
-3.41101507e+129
2.68057357e+130
-5.51852821e+129
-1.64184915e+130
-7.79032611e+129
-3.07432253e+129
7.02677674e+129
1.22863475e+129
-2.09074802e+128
-2.09807597e+128
-2.00132167e+128
-1.35462404e+128
-4.18725496e+127
-4.72939598e+127
2.04348495e+127
-9.96382225e+126
5.30918228e+126
-2.00831809e+126
1.23591432e+126
-6.52232071e+125
5.16222989e+126
-1.19338666e+127
1.43730367e+126
8.74648084e+125
-6.20107821e+125
-1.89701972e+126
-6.38943345e+125
-1.91255827e+125
-2.44900394e+126
-2.64064599e+126
1.88307253e+126
-2.66656867e+126
1.56648029e+125
9.16428115e+124
-9.80102656e+123
-1.33507255e+124
-8.02073072e+123
4.07775381e+123
7.92355256e+122
1.81972518e+123
-8.65537190e+122
-1.12046833e+123
2.33561200e+121
2.93513056e+120
-4.51980092e+121
-6.36027055e+121
-1.39663935e+120
1.59121303e+121
3.92011308e+120
-4.36857062e+120
4.36783577e+120
-6.94206547e+119
-2.21536302e+119
1.93322500e+120
-3.41901214e+120
1.52120644e+120
5.64522409e+119
-2.91781126e+119
3.50029124e+119
-2.55628384e+119
-8.38508151e+117
-8.25635624e+117
-9.33563982e+117
3.87641197e+117
-1.67678269e+117
-1.15431030e+117
-7.35140940e+116
4.43693283e+117
1.45048941e+117
-5.25649388e+116
-2.71864826e+116
-1.13090033e+127
6.04131466e+127
9.05840905e+127
1.96260883e+128
9.97726651e+128
1.09160787e+129
1.99394256e+129
1.99404136e+129
1.99918886e+129
2.27161948e+129
5.60326889e+128
6.43777698e+128
6.42610061e+128
-2.85503947e+128
1.99074025e+129
-6.08701630e+129
3.65405910e+129
-1.20411685e+131
1.39589486e+132
-1.20316680e+131
-1.06442718e+127
-1.03969111e+129
1.16931878e+129
-3.08153455e+129
3.04108121e+129
-1.03724101e+129
3.93249590e+128
-1.90744710e+128
3.15445361e+127
-2.77241582e+128
4.30655162e+128
2.18362487e+129
-7.18789033e+127
8.21056128e+129
1.13487156e+130
9.83283486e+129
-2.58869521e+129
5.02475512e+130
6.57131757e+130
7.46857116e+130
8.39672039e+130
9.79762354e+130
2.11457673e+132
-4.29813075e+132
2.13333133e+132
-2.82945685e+130
1.20982271e+130
1.27309387e+129
4.15900679e+130
8.10028433e+130
2.76926494e+130
-1.15956350e+130
8.75890171e+129
-5.12832248e+129
-8.04948733e+129
-2.84705808e+129
-3.02533325e+129
8.47228623e+128
-1.95333238e+129
-2.64060700e+130
8.12434644e+129
2.91597531e+130
1.81755007e+129
2.05760927e+130
-9.68689432e+129
-9.21302641e+128
-3.19536392e+128
-3.25237291e+129
9.12269511e+127
-1.22423266e+128
2.13557180e+127
3.77849902e+127
1.21995359e+126
-2.99758464e+126
-2.14931725e+127
1.64198355e+125
3.03777865e+126
4.27499887e+126
-1.90197878e+127
-8.25169647e+127
-2.51340912e+127
-1.81223709e+126
-5.90263080e+125
2.72597117e+126
-5.23630283e+126
3.34506267e+126
1.63282626e+125
3.00979561e+126
-8.41768433e+125
-4.16683422e+125
3.22733818e+124
-6.78762159e+123
3.39894931e+124
1.82361624e+124
-1.50588360e+123
1.49924792e+123
-9.16421605e+121
3.00563476e+123
8.81239811e+122
-8.68713402e+120
5.15244473e+120
-3.20580619e+121
-7.53261687e+121
1.27216847e+122
-5.89028446e+121
2.38915998e+121
-1.45882850e+121
1.15436371e+120
-5.60714211e+119
3.88098026e+119
6.98945024e+120
-1.46524010e+121
6.16685670e+120
7.31502040e+119
-3.10840949e+119
1.10128387e+120
-8.86309511e+118
1.31173167e+119
-6.66465724e+118
-1.49819694e+117
4.59647031e+117
2.25657710e+118
-4.18087922e+117
-9.03745419e+117
2.30972205e+117
7.16436160e+115
4.69592753e+116
-1.24522366e+116
3.13358405e+127
-7.02864660e+127
-7.80704666e+127
8.53270271e+128
-6.42388319e+128
-6.59327368e+128
-7.07328071e+129
-1.01118869e+131
-1.09509700e+131
-2.25979590e+131
3.21941470e+131
-1.97658531e+131
-4.36725191e+130
-9.35701203e+129
1.14980602e+130
-2.39694035e+130
1.23191374e+130
-4.34752339e+131
-2.28671480e+131
8.58404479e+130
2.88129472e+128
-6.15090474e+127
1.73836099e+129
-2.67099736e+128
-1.63018434e+129
-4.06083870e+128
1.84422017e+129
2.33862415e+129
1.52542676e+129
2.35448124e+128
-4.45955759e+129
2.30089430e+129
1.61755349e+129
-4.67337077e+129
-1.27405526e+130
-8.15791331e+129
-3.37405931e+130
-1.26722338e+131
-3.22340655e+130
-3.96365002e+130
-1.28918876e+131
-1.38119683e+131
7.52737401e+131
-1.09543148e+132
4.60104391e+131
-4.59046990e+130
3.74416799e+130
2.20267327e+130
-6.73444211e+130
-7.71045973e+130
2.40524358e+130
-4.90021710e+130
4.62299138e+129
-5.46107484e+129
3.58067605e+130
1.88585727e+130
-3.33226970e+129
-3.18391156e+128
-4.99787273e+129
-4.19570939e+130
3.81390335e+130
-1.61746449e+130
-1.71666886e+130
-4.07383125e+130
3.64440658e+130
-1.49157570e+130
1.53450533e+130
-6.96535346e+128
5.79722839e+128
2.32786137e+127
-1.23324194e+128
-4.69986977e+127
-4.07504766e+128
-1.86149097e+128
2.03428617e+127
-2.04290530e+127
-3.30110856e+126
3.80727163e+125
3.97583440e+127
1.82296216e+128
3.16800903e+127
7.93610531e+126
6.47679631e+125
5.77467363e+126
3.11816978e+126
-6.81765902e+126
6.91193750e+125
2.22533309e+126
2.07835682e+126
1.52837732e+126
-4.94359509e+125
-9.66885705e+124
-4.02327445e+124
7.20379848e+123
-1.22426774e+124
6.93656319e+122
-8.03168379e+123
-1.29790756e+124
-2.41823885e+123
3.11895378e+121
7.08830352e+121
2.00041018e+122
-6.82854454e+121
1.11529346e+121
-2.35645328e+121
8.31454970e+120
-5.66888295e+120
5.29219821e+120
-2.79551886e+120
-1.37910409e+119
2.16797639e+120
-2.96174890e+120
1.73393237e+120
8.22013970e+119
1.99293065e+119
-2.90988734e+120
-5.28426678e+119
-1.45312796e+118
1.36457486e+117
6.01660391e+117
-1.23412291e+118
-3.34140856e+118
9.58328190e+115
-2.22483924e+117
8.20534826e+116
-1.07263851e+116
2.95176888e+116
-8.00537839e+115
7.29951512e+127
9.83183037e+126
1.96317706e+128
1.11168254e+129
-1.86943515e+129
8.35238566e+128
-1.01731513e+131
5.82363448e+130
1.79874129e+131
-5.86169472e+131
2.23860683e+132
-4.39485139e+131
7.31732979e+130
-2.55600774e+130
-4.22095287e+129
-6.62069025e+129
1.42748495e+129
-3.67631035e+129
3.69640946e+128
3.70600288e+128
-3.70174349e+128
-7.40566071e+127
-1.02358268e+129
2.05178589e+129
3.37864716e+129
-3.84867921e+128
-1.57659171e+129
4.78233091e+129
-1.22773149e+130
1.33876386e+129
2.99388432e+129
-2.89170922e+129
8.01372944e+128
-9.35285780e+129
-2.07046785e+129
-1.00157338e+131
-1.36983264e+131
-3.23480626e+131
-4.15114290e+131
-1.08190171e+132
-8.91212267e+131
-1.00328596e+132
-5.92750546e+131
-8.22805102e+131
-2.98024224e+131
-3.39708460e+131
1.45078457e+130
-1.58975724e+131
-2.99739285e+130
6.12824613e+130
5.37228789e+127
2.37607428e+130
-1.22797963e+130
-1.13232858e+130
-1.05978086e+131
-2.64298805e+128
2.21929920e+130
3.26808556e+130
-1.47130651e+130
8.00172422e+129
8.12483856e+129
-2.62690855e+129
-1.94592501e+130
-3.73914485e+129
4.69471750e+130
-1.91059930e+130
-4.15860253e+129
-5.69037770e+128
2.06156106e+129
3.48351496e+128
1.28287537e+127
3.59830421e+128
1.03972662e+129
-3.62179208e+130
3.92373781e+130
-8.74651589e+129
-8.57548911e+126
6.37171726e+126
-3.77896007e+127
-1.14706934e+128
-1.25720966e+127
3.31096988e+125
1.07374250e+126
8.22956971e+126
9.31551398e+126
-6.88779776e+126
-2.58630760e+126
9.46220831e+126
-3.67418770e+126
1.04082578e+126
1.64343230e+125
-2.89710404e+125
-8.85560786e+123
4.30722880e+123
-8.11249113e+123
-2.57501647e+123
4.07098930e+123
2.91293467e+124
7.50807090e+123
-7.05016302e+121
-9.15520017e+121
1.32568352e+122
2.58628590e+121
-4.26115427e+121
-2.16507423e+121
-3.79084726e+120
5.29021578e+120
-1.10709201e+118
-1.16700499e+120
-2.87086724e+120
2.16413379e+120
-9.47380788e+119
1.90944733e+118
-4.06093726e+119
4.94721145e+119
5.00254619e+119
1.01366492e+120
-1.50459054e+119
5.86342335e+116
1.04325339e+118
-1.29675545e+118
2.18155945e+118
1.34907941e+118
-7.30404778e+116
-2.40785993e+116
-1.32783395e+116
-1.60167800e+116
2.24904228e+116
8.94407316e+127
5.88048309e+128
1.07974393e+129
-1.86047618e+128
-4.89018840e+129
3.97927830e+129
-1.84915863e+131
1.56379644e+131
-1.32442228e+131
-4.27345645e+131
-9.96203028e+131
-4.65805520e+131
-6.41672557e+130
4.75484988e+130
-4.37073870e+130
8.16134987e+128
7.08982134e+129
7.51363410e+129
3.10070606e+129
2.09286380e+128
1.76510301e+129
2.07181779e+129
-1.08959001e+130
-5.37882267e+129
4.89306694e+129
-2.31270720e+129
5.40434184e+128
1.41906831e+130
-1.23470623e+130
7.23352634e+129
1.09037301e+130
-5.72877166e+129
-3.75776973e+129
1.58469138e+130
-1.51645118e+131
2.29564098e+132
2.68263730e+132
-1.99010845e+130
3.86972529e+131
1.19576435e+132
1.20717689e+132
2.39487075e+131
-1.03490708e+132
4.01552982e+131
-4.97194960e+131
3.04268248e+131
1.42064636e+130
6.26487775e+131
-6.03466199e+130
-2.01498819e+131
-9.68462869e+130
-3.89139033e+130
-3.71935737e+130
-2.91978814e+130
2.57447221e+130
-1.94472996e+131
-2.08378846e+131
-3.82180393e+131
-2.04853360e+131
-9.77932091e+130
-2.30158743e+130
5.90824053e+129
1.81338346e+130
-1.12336059e+130
3.26737016e+131
-1.70013557e+131
7.93058699e+130
-6.95237417e+128
8.24541295e+127
1.05877284e+129
1.20251068e+129
3.06332022e+128
-4.78221419e+128
-8.43321499e+130
1.80491183e+131
-8.42289757e+130
-5.02028564e+127
-1.51201715e+128
-1.35441094e+128
7.16542463e+127
3.43071448e+127
-3.50807936e+128
9.64802434e+128
1.79148254e+129
-5.68655619e+126
7.28003109e+126
-1.52646353e+127
9.26312862e+126
-4.02013340e+126
-1.97333353e+127
5.24987662e+124
-3.07952866e+125
3.41118319e+124
2.40686783e+124
-3.72799331e+121
7.27005571e+123
7.31285294e+122
-1.22692467e+124
-5.52695866e+123
-2.26895643e+121
-1.09811338e+122
-8.47274120e+121
7.13423204e+121
-1.98315958e+121
-1.62115281e+121
4.11725851e+120
9.58866939e+120
-7.99084673e+119
2.65282682e+120
-5.53726527e+120
1.29858966e+120
-1.14871623e+121
-1.60532043e+120
-5.69999158e+119
1.12714417e+120
-2.05508076e+119
1.25444904e+119
-3.55402534e+118
3.51529253e+118
-3.88118800e+118
-9.51524823e+117
6.19501319e+117
1.07383042e+117
-9.46421994e+116
4.84456844e+116
1.50366802e+116
4.20039310e+115
-7.35839716e+116
6.57618357e+128
-1.06125500e+129
1.94190026e+129
-3.57101739e+129
1.25307478e+130
-2.84561922e+128
-1.40318907e+130
1.51468235e+131
-2.33520842e+131
1.51426629e+131
6.68238555e+131
2.58405452e+131
-5.14862588e+131
1.29335662e+131
6.04160101e+130
-5.96724400e+130
2.10384587e+130
3.46203596e+129
-8.40532948e+129
7.68665436e+129
-5.10469296e+129
-1.20248939e+128
1.11281702e+130
-1.54101103e+129
-1.88467294e+130
5.15800641e+129
-5.61858853e+129
1.36397978e+130
-1.20791736e+130
-7.98058189e+129
-1.34031053e+130
1.78881177e+129
-1.71933994e+130
-6.78711509e+130
-3.68332918e+131
-7.46084605e+131
-7.50144106e+132
1.93798421e+131
9.88232412e+131
1.58690959e+132
2.48629033e+132
1.46713084e+132
4.96541964e+132
8.17874802e+132
-2.55478940e+132
2.77331642e+132
-2.76939312e+132
-4.56804956e+132
1.14624608e+133
-4.09351807e+132
-6.54312915e+132
-9.12185552e+131
-1.68612190e+131
8.71622524e+130
8.25100103e+130
4.22991313e+131
3.36212340e+131
3.36376770e+131
1.44485590e+131
2.98971816e+131
1.87482506e+130
1.39350604e+131
-7.64781487e+130
-7.53471226e+131
4.01396421e+131
-7.18390352e+131
-3.52095055e+130
1.11522049e+131
3.94052898e+129
-2.83213580e+129
2.76894997e+129
-2.52818906e+129
-1.72330187e+129
-1.06607695e+130
3.89062585e+130
-3.62636322e+130
-6.51536556e+127
3.40843803e+128
1.44482554e+126
9.19112433e+127
4.08195163e+128
5.60204571e+128
-5.67987389e+129
5.19081030e+128
2.54681357e+127
-1.87002775e+128
-3.15814014e+128
1.34269178e+127
3.64175870e+127
-2.33944310e+127
1.45329376e+127
-1.61190695e+126
5.13189647e+125
4.96992643e+124
-6.94834004e+124
8.60915679e+123
-2.43128506e+124
-2.12357214e+123
-2.79264767e+123
-1.19677939e+123
-1.17200375e+121
1.00733965e+122
2.39115974e+122
-2.34797145e+124
-3.03452629e+124
-7.31757299e+124
-8.89254004e+123
3.59350078e+120
5.54338713e+119
3.04058446e+120
9.17937459e+120
3.06570142e+121
-6.72847130e+120
5.44610374e+120
1.33769280e+120
3.56965977e+120
3.13715790e+121
1.28927640e+121
4.04398020e+118
2.05178212e+118
5.39169678e+117
-3.94131424e+117
-6.12782114e+116
-8.12345349e+116
3.97762304e+116
1.15928047e+116
-1.05363620e+116
3.03324679e+116
-7.78115508e+127
-4.19029802e+128
2.25671022e+129
-5.97575516e+130
-3.68665308e+130
1.13737697e+131
-7.41649489e+130
-2.00405009e+131
2.14143859e+131
2.65368261e+130
-1.64219267e+131
2.50085872e+131
-8.11678085e+131
1.66113456e+132
-4.68094681e+131
-1.36173737e+130
1.15080091e+129
2.42311734e+129
4.33253712e+129
2.43069222e+129
-1.30172808e+130
1.53762880e+130
-6.53682785e+129
-6.13926091e+129
-1.24696185e+130
8.86285647e+129
-4.05141285e+129
-5.36651550e+129
-7.97611902e+128
-4.83625471e+130
-3.67180303e+130
9.53641232e+129
8.03921322e+130
-5.24684580e+130
2.00018433e+131
1.25742379e+132
3.11748325e+132
2.59533600e+132
-9.01278620e+131
3.58065879e+131
-1.87096635e+132
-4.16974868e+132
-4.42042778e+132
-2.25235034e+133
8.34468810e+132
-1.51737133e+133
1.15493953e+133
-2.00067617e+133
4.28604852e+133
-2.09097914e+133
1.13623042e+133
-9.84690669e+132
1.88005147e+132
-1.65409142e+131
-6.55530900e+132
2.21227587e+131
-3.39330929e+131
-1.41960610e+130
2.01597853e+131
-3.63140899e+131
4.33653435e+131
2.62523784e+131
-6.21595805e+131
5.55812821e+131
9.08949354e+131
-5.29893504e+131
-1.25699844e+131
9.10011577e+130
1.33946970e+130
3.86128425e+129
3.04958052e+129
1.39872806e+129
3.49025626e+129
1.67034452e+129
-2.96432378e+128
1.01236115e+127
-4.32527628e+127
-1.90986664e+128
8.29604532e+127
1.71758492e+128
-5.49250826e+128
1.52114560e+129
7.99325037e+128
-4.66899294e+128
-4.19734048e+127
9.28175513e+128
-5.82869205e+127
-5.15503889e+127
2.29984801e+127
-4.66828322e+126
9.10537001e+126
-5.81828020e+126
-2.37966515e+125
8.79574642e+124
-1.22256603e+125
1.02761414e+125
1.96896321e+124
2.92534092e+123
-3.53175599e+122
3.28933656e+123
1.09088407e+122
1.13923337e+122
1.11649516e+124
1.29629573e+124
6.96543764e+124
8.41583567e+124
-3.98892165e+124
8.78343800e+120
-4.78334882e+120
-3.77186540e+120
-3.86079639e+121
3.88204006e+121
-3.82184530e+121
2.49436569e+120
-1.74499519e+120
-1.40847859e+121
-6.69855390e+121
-1.52351439e+121
-3.29962377e+118
-3.10270155e+118
2.14810797e+118
-8.97337523e+116
-1.08484680e+117
-2.27443906e+117
-4.51107211e+116
2.56379123e+116
8.98960623e+114
-3.91371654e+115
-1.06656569e+128
1.54800849e+128
2.11926026e+128
1.61369631e+130
1.82140018e+131
-2.82334084e+131
9.20385326e+131
-1.61915912e+131
-8.66587722e+130
6.63750181e+131
-7.76452514e+130
-3.97578900e+130
4.42909099e+130
4.82950355e+130
-4.75803730e+131
-1.23219497e+130
1.63760881e+130
1.06390546e+129
5.63292551e+129
1.62679192e+129
-6.51411735e+129
-5.83409303e+130
3.18819001e+130
-1.04566410e+130