# vtk DataFile Version 2.0
LBM Flow Field - Timestep 800
ASCII
DATASET STRUCTURED_POINTS
DIMENSIONS 128 128 1
ORIGIN 0.0 0.0 0.0
SPACING 1.0 1.0 1.0
POINT_DATA 16384
SCALARS density double 1
LOOKUP_TABLE default
1.32065109e+00
1.30903186e+00
1.29509775e+00
1.28138341e+00
1.26763480e+00
1.25427211e+00
1.24086122e+00
1.22798316e+00
1.21505135e+00
1.20277514e+00
1.19044849e+00
1.17887252e+00
1.16725825e+00
1.15645997e+00
1.14564380e+00
1.13567872e+00
1.12572325e+00
1.11662488e+00
1.10756915e+00
1.09934993e+00
1.09120995e+00
1.08386295e+00
1.07663317e+00
1.07013446e+00
1.06379008e+00
1.05810146e+00
1.05260126e+00
1.04767331e+00
1.04296292e+00
1.03873804e+00
1.03475334e+00
1.03116865e+00
1.02783921e+00
1.02482925e+00
1.02208151e+00
1.01958054e+00
1.01734070e+00
1.01528464e+00
1.01348110e+00
1.01180900e+00
1.01037429e+00
1.00902942e+00
1.00790165e+00
1.00683224e+00
1.00595599e+00
1.00511557e+00
1.00444236e+00
1.00378991e+00
1.00327825e+00
1.00277812e+00
1.00239320e+00
1.00201486e+00
1.00172809e+00
1.00144577e+00
1.00123406e+00
1.00102638e+00
1.00087143e+00
1.00072087e+00
1.00060841e+00
1.00050088e+00
1.00041992e+00
1.00034429e+00
1.00028649e+00
1.00023409e+00
1.00019319e+00
1.00015742e+00
1.00012876e+00
1.00010469e+00
1.00008482e+00
1.00006884e+00
1.00005523e+00
1.00004475e+00
1.00003554e+00
1.00002875e+00
1.00002261e+00
1.00001825e+00
1.00001423e+00
1.00001144e+00
1.00000885e+00
1.00000708e+00
1.00000544e+00
1.00000433e+00
1.00000331e+00
1.00000261e+00
1.00000199e+00
1.00000155e+00
1.00000118e+00
1.00000091e+00
1.00000070e+00
1.00000053e+00
1.00000040e+00
1.00000030e+00
1.00000023e+00
1.00000017e+00
1.00000013e+00
1.00000010e+00
1.00000007e+00
1.00000005e+00
1.00000004e+00
1.00000003e+00
1.00000002e+00
1.00000002e+00
1.00000001e+00
1.00000001e+00
1.00000001e+00
1.00000000e+00
1.00000000e+00
1.00000000e+00
1.00000000e+00
1.00000000e+00
1.00000000e+00
1.00000000e+00
1.00000000e+00
1.00000000e+00
1.00000000e+00
1.00000000e+00
1.00000000e+00
1.00000000e+00
1.00000000e+00
1.00000000e+00
1.00000000e+00
1.00000000e+00
1.00000000e+00
1.00000000e+00
1.00000000e+00
1.00000000e+00
1.00000000e+00
1.00000000e+00
1.11574435e+00
1.09518448e+00
1.09405627e+00
1.16097378e+00
1.11519504e+00
1.12201998e+00
1.12733048e+00
1.20653781e+00
1.27086024e+00
1.32890530e+00
3.10429997e+01
2.41893988e+01
-8.06940017e+02
-3.69574948e+03
-1.29622937e+04
-3.99258477e+04
-1.08604204e+05
-2.71764841e+05
-6.32998814e+05
-1.38252295e+06
-2.85577580e+06
-5.60776678e+06
-1.04955880e+07
-1.87897466e+07
-3.22325497e+07
-5.30378423e+07
-8.37932865e+07
-1.27059473e+08
-1.84766315e+08
-2.57157791e+08
-3.41219887e+08
-4.29128394e+08
-5.05709235e+08
-5.47259168e+08
-5.20406916e+08
-3.85983638e+08
6.07898224e+07
6.64806030e+08
4.29017150e+08
3.87583130e+08
4.19996377e+08
4.53913211e+08
4.82217981e+08
4.71432316e+08
2.30512680e+08
-4.38252215e+08
1.04981373e+09
-1.09244972e+09
-7.65811626e+08
-1.02879361e+09
-1.06960212e+09
-9.53416861e+08
-8.05113591e+08
-6.95841432e+08
-5.79583284e+08
-4.57587114e+08
-3.42607763e+08
-2.46288239e+08
-1.70938725e+08
-1.13222216e+08
-7.33140511e+07
-4.58763603e+07
-2.77782545e+07
-1.65464624e+07
-9.66023704e+06
-5.57601918e+06
-3.24466536e+06
-1.92785802e+06
-1.18527346e+06
-7.59538394e+05
-5.05323040e+05
-3.46433631e+05
-2.42196938e+05
-1.70921299e+05
-1.21054759e+05
-8.58052158e+04
-6.07370568e+04
-4.29184738e+04
-3.02746240e+04
-2.13172518e+04
-1.49819628e+04
-1.05104810e+04
-7.35906397e+03
-5.14172822e+03
-3.58444349e+03
-2.49222683e+03
-1.72825548e+03
-1.19367953e+03
-8.21874811e+02
-5.63093196e+02
-3.83718397e+02
-2.59413425e+02
-1.74098463e+02
-1.17092473e+02
-7.47988845e+01
-4.91249909e+01
-3.78021400e+01
-9.60186715e+00
-3.50820547e+00
1.02373657e+00
1.02363979e+00
1.01429297e+00
1.01791537e+00
1.02358354e+00
1.01925618e+00
1.01368111e+00
1.02179319e+00
1.02514861e+00
1.01700886e+00
1.01441124e+00
1.02139021e+00
1.01882481e+00
1.01464046e+00
1.01782488e+00
1.01926939e+00
1.01706013e+00
1.01773783e+00
1.01896370e+00
1.01748383e+00
1.01741932e+00
1.01755287e+00
1.01628383e+00
1.01729153e+00
1.01457618e+00
1.01726323e+00
1.01680391e+00
1.01170276e+00
1.01320696e+00
1.10250533e+00
1.13001243e+00
1.16710326e+00
1.16389542e+00
1.17313514e+00
1.21158350e+00
1.17012010e+00
9.39864243e-01
3.06743570e+00
7.38462708e+01
7.56558240e+01
-2.17432551e+03
-1.11690239e+04
-4.40145773e+04
-1.52599293e+05
-5.06027543e+05
-1.56503637e+06
-4.24518963e+06
-9.91435862e+06
-2.08577385e+07
-4.02493187e+07
-6.93616539e+07
-1.12838970e+08
-1.71135613e+08
-2.41592905e+08
-3.30606469e+08
-4.16490592e+08
-5.05361997e+08
-5.45690614e+08
-5.06997694e+08
-2.95517238e+08
2.50909597e+08
1.18625152e+09
1.90642995e+09
3.09648094e+09
4.79630008e+09
5.59129956e+09
7.87924960e+09
9.60229953e+09
1.11122064e+10
1.24195603e+10
1.35214267e+10
1.44815005e+10
1.52993273e+10
1.52217447e+10
1.65438645e+10
1.41880234e+10
1.47137924e+10
1.19475303e+10
1.07606440e+10
9.49599624e+09
7.78127579e+09
6.47284444e+09
4.89692869e+09
3.79245114e+09
2.42413276e+09
1.60583023e+09
7.53035175e+08
4.18109374e+08
2.42031163e+07
-4.00432476e+07
-1.25754347e+08
-1.08330331e+08
-8.02812950e+07
-5.89144946e+07
-3.83333116e+07
-2.35907162e+07
-1.44214339e+07
-8.86079437e+06
-5.51985236e+06
-3.51624175e+06
-2.29350499e+06
-1.52706547e+06
-1.03191301e+06
-7.03183579e+05
-4.80672922e+05
-3.28620841e+05
-2.24241246e+05
-1.52576734e+05
-1.03462677e+05
-6.99030656e+04
-4.70437243e+04
-3.15168723e+04
-2.10209278e+04
-1.39492969e+04
-9.19981504e+03
-6.01972097e+03
-3.91699555e+03
-2.51821754e+03
-1.60203182e+03
-1.00290646e+03
-6.01520340e+02
-4.12220392e+02
-2.76608357e+02
-9.56342007e+01
1.99316066e+01
5.54897985e+01
-3.69417144e+01
-5.96609819e+00
1.01812668e+00
1.02586987e+00
1.02072907e+00
1.01388066e+00
1.01860107e+00
1.02695147e+00
1.01988237e+00
1.01257531e+00
1.02222058e+00
1.02465669e+00
1.01338184e+00
1.01596765e+00
1.02258512e+00
1.01974337e+00
1.01369216e+00
1.01795450e+00
1.02216849e+00
1.01697698e+00
1.01591746e+00
1.01836225e+00
1.01674401e+00
1.01686094e+00
1.01702287e+00
1.01704549e+00
1.01488438e+00
1.01523391e+00
1.01855503e+00
1.01628658e+00
1.01143356e+00
1.11529860e+00
1.14277380e+00
1.13169947e+00
1.02687663e+00
8.75942367e-01
8.43589435e-01
8.05056655e-01
1.32099193e+01
1.76204546e+02
1.61246058e+02
-5.22187431e+03
-2.86741066e+04
-1.18756155e+05
-4.44778778e+05
-1.57494354e+06
-4.88722323e+06
-1.20194497e+07
-2.26642127e+07
-3.30547560e+07
-1.15999952e+07
8.92371055e+06
6.15392022e+07
8.81156539e+07
1.54401377e+08
2.05541412e+08
3.47762887e+08
6.37350374e+08
1.24734347e+09
2.35397660e+09
4.15910906e+09
7.06338580e+09
1.03369711e+10
1.54867173e+10
2.13626217e+10
2.81181899e+10
3.62243422e+10
4.50243979e+10
5.47710453e+10
6.46427607e+10
7.41671626e+10
8.28109895e+10
9.01200810e+10
9.55677621e+10
9.81345393e+10
1.00185819e+11
1.02922462e+11
9.97390339e+10
9.29109817e+10
8.86298969e+10
8.63131929e+10
7.61759839e+10
6.77134330e+10
5.88086993e+10
4.86070259e+10
3.90004258e+10
2.97254771e+10
2.14612688e+10
1.49095126e+10
9.65424677e+09
5.71495689e+09
3.33706595e+09
1.54955868e+09
7.15370117e+08
1.08325080e+08
-3.18081135e+07
-1.14827181e+08
-9.48131535e+07
-6.44509243e+07
-4.04116447e+07
-2.54326885e+07
-1.55263660e+07
-9.14349631e+06
-5.55645705e+06
-2.94398430e+06
-2.08714961e+06
-7.90064137e+05
-4.91072051e+05
-3.73445751e+05
5.17196430e+05
1.95726612e+05
9.24240769e+04
2.13857478e+04
2.82808654e+04
2.49200250e+04
1.85366527e+05
-8.83359142e+04
8.80924704e+03
-2.94928981e+03
-7.76763272e+02
-1.10551417e+04
-1.99288259e+04
-1.33165039e+04
-7.80991736e+02
-1.65937417e+02
5.14556461e-01
1.83027484e+02
1.54860205e+01
-4.58195713e+01
-8.55310704e+00
1.01667729e+00
1.01743082e+00
1.02189621e+00
1.02229754e+00
1.01473386e+00
1.01736086e+00
1.02491321e+00
1.01810101e+00
1.01360538e+00
1.01995634e+00
1.02204671e+00
1.01601625e+00
1.01465147e+00
1.02491830e+00
1.02131194e+00
1.01186338e+00
1.01839665e+00
1.02194612e+00
1.01548951e+00
1.01513427e+00
1.01767935e+00
1.01573363e+00
1.01656482e+00
1.01789446e+00
1.01506802e+00
1.01370427e+00
1.01430405e+00
1.01776850e+00
1.01741880e+00
1.08032586e+00
1.05193970e+00
9.47751188e-01
8.84303766e-01
1.28798169e+00
2.13993691e+00
3.82357224e+01
3.73662279e+02
3.20330542e+02
-1.12373574e+04
-6.46159416e+04
-2.95751325e+05
-1.33442318e+06
-5.72183040e+06
-1.91732428e+07
-4.17245482e+07
-1.02227815e+08
-4.98023976e+08
-8.31328038e+07
4.14074234e+08
2.00503159e+08
1.78668277e+09
2.44223011e+09
3.74818842e+09
5.38486650e+09
7.96734056e+09
1.11167532e+10
1.62635779e+10
2.29693198e+10
3.31315240e+10
4.62713453e+10
6.43961056e+10
8.72598623e+10
1.15790655e+11
1.49958743e+11
1.88122217e+11
2.31856876e+11
2.78244286e+11
3.32505492e+11
4.11027927e+11
5.50549464e+11
7.93983418e+11
1.23909360e+12
2.05886610e+12
3.21098314e+12
4.90745254e+12
7.07511781e+12
9.05184847e+12
1.15896805e+13
1.24893681e+13
1.39119299e+13
1.28499933e+13
1.22616941e+13
9.80329941e+12
7.81287679e+12
5.46472411e+12
3.49979120e+12
2.10767302e+12
1.07049948e+12
5.03801624e+11
2.06650254e+11
6.98348722e+10
2.04204055e+10
6.47223755e+09
3.06814508e+09
5.18722394e+08
2.81987828e+08
-1.04616246e+08
1.09002215e+08
-9.55824490e+07
-6.53338654e+07
-6.00362297e+07
-3.91505743e+07
-2.25576604e+07
-1.18364860e+07
-7.96014648e+06
-4.64268000e+06
-2.00403954e+06
2.83660943e+05
1.16040096e+06
5.56253337e+05
8.49770611e+05
9.85564072e+05
8.11943591e+05
1.09142631e+06
-7.32850827e+05
4.10317473e+05
-1.03223829e+05
9.19851206e+04
1.00251625e+05
-3.68048415e+04
-1.90436825e+04
1.00450403e+04
-1.72211320e+03
-7.01279322e+01
3.47732491e+02
7.97963120e+01
-6.84586421e+01
-1.30078297e+01
1.02136986e+00
1.01858907e+00
1.01799091e+00
1.02290806e+00
1.02067685e+00
1.01662202e+00
1.02085335e+00
1.02210212e+00
1.01608234e+00
1.01333530e+00
1.02328722e+00
1.02597234e+00
1.01239610e+00
1.01477757e+00
1.02493247e+00
1.02094234e+00
1.01192917e+00
1.01684728e+00
1.02144299e+00
1.01592226e+00
1.01744179e+00
1.02022011e+00
1.01400719e+00
1.01441048e+00
1.02026658e+00
1.02095365e+00
1.01356114e+00
1.01231539e+00
1.01896122e+00
9.47152090e-01
1.08412109e+00
1.20661265e+00
1.54317662e+00
3.46262789e+00
8.39614484e+01
7.05212108e+02
5.65298953e+02
-2.21607717e+04
-1.37204605e+05
-7.12747156e+05
-3.76308236e+06
-1.74068840e+07
-5.25522016e+07
-6.11402329e+07
3.39154494e+08
-1.24419188e+09
3.32371031e+08
2.30628426e+09
5.44140254e+09
9.83291163e+09
2.47156109e+10
3.63555531e+10
5.55324672e+10
8.63272361e+10
1.35877762e+11
1.44608947e+11
2.70391621e+11
2.16252661e+11
4.30852609e+11
3.26882252e+11
5.82760798e+11
4.95692465e+11
7.45381556e+11
7.34594217e+11
9.39411321e+11
9.97059084e+11
-1.03186825e+12
-2.06087268e+12
1.23655734e+13
-4.67435572e+12
1.04577511e+13
-7.34619732e+12
-3.30586344e+12
4.27789589e+12
-1.34655252e+13
1.98646272e+12
-2.18474296e+13
-2.49701785e+13
-1.90809199e+13
-1.40849234e+13
-1.28379077e+13
-1.05893923e+13
-9.68617136e+12
-2.94770444e+12
3.51284942e+12
6.94809129e+12
6.31398599e+12
4.82116806e+12
2.86480069e+12
1.51711876e+12
8.46558266e+10
9.32353233e+11
-4.16127810e+11
-1.36359470e+11
-1.05630166e+11
-6.97766275e+10
-4.91934714e+10
-2.90298379e+10
-1.42276224e+10
-6.77929783e+09
-2.41795201e+09
-6.57642954e+08
-2.11909890e+08
-8.29677352e+07
-5.25792841e+07
-3.19895252e+07
-1.63099931e+07
-1.41750715e+07
6.37627637e+06
1.66396363e+06
5.39028740e+06
1.56900800e+06
2.25752012e+06
1.16273543e+06
-1.61527431e+06
1.35385780e+06
-3.55565963e+05
-1.34337011e+05
-3.64346599e+05
-9.66147665e+04
-2.46411347e+05
-1.74093852e+05
7.03746519e+03
1.41600878e+02
7.75851886e+02
1.24652154e+02
-1.06732851e+02
-1.91727890e+01
1.02004256e+00
1.02363031e+00
1.01883779e+00
1.01789934e+00
1.02092509e+00
1.02023686e+00
1.01430376e+00
1.01912512e+00
1.02586407e+00
1.01825594e+00
1.01157071e+00
1.02268488e+00
1.02421956e+00
1.01418643e+00
1.01124569e+00
1.02357728e+00
1.02060888e+00
1.01214889e+00
1.01904984e+00
1.01914124e+00
1.01306434e+00
1.01731965e+00
1.02103647e+00
1.01289597e+00
1.01194280e+00
1.01955650e+00
1.01904345e+00
1.01188415e+00
1.01058331e+00
-7.44454349e+02
-1.40544396e+03
-2.16374584e+03
-3.09635812e+03
-4.17009725e+03
-4.78285674e+03
-7.58851694e+03
-5.42053677e+04
-3.01319549e+05
-1.64671241e+06
-9.30289420e+06
-4.48657985e+07
-1.50440377e+08
-3.81108865e+08
-1.01471880e+09
-2.38755780e+09
-1.17759750e+10
-1.09455975e+10
4.42631959e+09
7.19969272e+10
5.03209497e+10
2.38452251e+11
4.05279206e+11
6.64863006e+11
8.18420588e+11
1.10181974e+12
1.16129372e+12
1.32114805e+12
1.74337938e+12
3.89323200e+12
4.06082680e+12
7.32228606e+12
6.61153010e+12
9.01094978e+12
4.28456558e+12
7.04427118e+12
-4.04324704e+10
-1.21481505e+13
2.59899758e+12
2.07661948e+13
3.10104618e+13
-3.80905774e+13
-1.24234913e+14
-5.23168926e+13
-5.21359883e+13
7.44966942e+11
-1.21898945e+14
-2.10824990e+14
-2.43519865e+14
-2.72299986e+14
-2.85073436e+14
-2.40138306e+14
-2.00473452e+14
-2.39397285e+14
1.65206998e+14
-2.79832470e+14
-7.40578105e+11
-1.18944480e+14
8.10757729e+13
-4.06070816e+13
-1.44929396e+13
9.06688303e+12
-5.39918184e+12
-9.03378581e+12
1.72522411e+12
-5.49277841e+12
-2.06856821e+12
-4.60072680e+11
-1.22846479e+11
-6.91524813e+10
2.93673574e+10
-1.89251837e+09
-3.07301230e+09
-1.33887145e+09
-1.27923412e+09
5.91678337e+08
-1.95277849e+08
1.07560867e+08
-1.75043770e+08
-4.18816387e+07
-9.41940391e+07
-9.07190053e+07
-3.51584823e+07
-1.03878915e+07
-3.80798993e+05
-1.29735774e+06
8.49101665e+05
5.50094585e+05
8.84555001e+05
6.68650866e+05
5.73313729e+05
2.80199218e+05
-7.54628381e+04
8.41921866e+03
-8.69730121e+02
1.04286457e+03
1.75768802e+02
-1.57752975e+02
-2.75218339e+01
1.02202007e+00
1.02211865e+00
1.01960515e+00
1.01670217e+00
1.01906245e+00
1.02662896e+00
1.01956755e+00
1.01460661e+00
1.02031226e+00
1.02627625e+00
1.01886217e+00
1.01131791e+00
1.02013249e+00
1.02465906e+00
1.01281500e+00
1.01656133e+00
1.02473914e+00
1.01744879e+00
1.01150957e+00
1.02063025e+00
1.02314104e+00
1.01269397e+00
1.01671513e+00
1.02204330e+00
1.01384124e+00
1.01288495e+00
1.01999174e+00
1.01816585e+00
1.01052594e+00
-7.72530083e+03
-1.42188877e+04
-2.19303696e+04
-3.22250171e+04
-4.84330006e+04
-8.65902390e+04
-2.25316834e+05
-8.34470500e+05
-3.93134205e+06
-2.07499981e+07
-9.87153227e+07
-3.61798283e+08
-1.22811626e+09
-4.71374939e+09
-1.56372404e+10
-5.77346134e+10
4.21467586e+10
-1.85651374e+10
2.00524411e+11
3.15189235e+10
-9.91233858e+10
-6.15225804e+10
-2.57530523e+11
-5.97936413e+11
-9.59116827e+11
-1.89694229e+12
-3.89196251e+12
-6.03962401e+12
-5.07668715e+12
-3.10086616e+12
-8.91799888e+12
2.91206732e+13
-1.99620538e+13
2.52838789e+13
8.83637481e+13
3.33054725e+13
1.39786487e+14
5.51584591e+13
3.89791220e+14
5.35949801e+13
2.86527973e+14
-7.42702977e+12
-1.85948111e+14
-6.11354238e+14
-2.38757171e+14
5.51853349e+14
-7.80383065e+14
-5.27672361e+14
-2.23237428e+15
2.75325196e+15
1.02426805e+15
-2.08476240e+14
3.19906712e+14
-7.57595646e+14
9.62632186e+14
-2.55486172e+15
-1.12278360e+15
-2.79467709e+15
-7.03189312e+14
-1.78892411e+15
-1.63493164e+15
-5.88915803e+14
-6.29692185e+14
-1.50699103e+14
6.01044734e+13
-2.51230694e+13
-2.02750798e+13
-6.99527843e+12
-2.23190758e+12
1.14251078e+12
5.35967172e+11
2.55393173e+11
9.41131074e+10
3.10996387e+10
1.41681656e+10
5.05272955e+09
6.40292993e+09
3.06820936e+09
2.82683166e+09
4.84629233e+08
1.59432177e+08
-3.37416828e+08
-2.44981692e+08
-6.57073532e+07
-6.42830975e+07
-1.21259240e+07
-1.21763869e+07
-1.12032953e+07
2.77650749e+06
2.19651216e+06
8.08904575e+05
1.83953307e+05
1.19297879e+05
7.74423731e+03
-1.19452482e+02
1.68816464e+03
2.24496609e+02
-2.33329952e+02
-3.88611944e+01
1.01888462e+00
1.01696890e+00
1.02189227e+00
1.02292880e+00
1.01303907e+00
1.01534685e+00
1.02482687e+00
1.02362579e+00
1.01205710e+00
1.01631375e+00
1.02822152e+00
1.01634727e+00
1.00996734e+00
1.02312791e+00
1.02279774e+00
1.01340344e+00
1.01376442e+00
1.02519727e+00
1.01852535e+00
1.01126265e+00
1.02049736e+00
1.02009355e+00
1.01057981e+00
1.01710980e+00
1.02280310e+00
1.01120227e+00
1.00951475e+00
1.01944544e+00
1.02086493e+00
-2.85752573e+04
-4.99878530e+04
-7.67585775e+04
-1.28827635e+05
-2.56960055e+05
-6.57561194e+05
-2.18392709e+06
-8.83153907e+06
-4.11969396e+07
-1.88467364e+08
-7.12954506e+08
-2.57214564e+09
-1.04424236e+10
-3.39323721e+10
-1.34823700e+11
-2.42504517e+11
1.42907543e+11
9.22784081e+11
4.11847317e+11
-6.26643162e+11
-6.38419061e+11
-3.03010451e+12
-3.98934467e+12
6.18076725e+12
1.28086032e+13
-4.38322825e+13
4.39347065e+13
-6.86525783e+13
2.53203843e+13
2.61119606e+13
-6.65500456e+13
9.67321412e+13
-2.26827222e+14
1.38663008e+14
6.08667749e+12
4.95023673e+14
3.07489707e+14
-1.04801678e+15
2.07887670e+15
-3.12720476e+15
-5.31780321e+14
-5.32446606e+15
-7.76790648e+15
-2.02384015e+16
-2.32437857e+16
6.13462700e+16
-2.56942782e+16
1.13368823e+16
9.36032284e+16
-9.39821198e+16
-6.99753927e+15
2.45207171e+17
-1.22012997e+16
3.09482824e+17
-1.02626672e+17
3.47807140e+16
6.82898842e+16
-3.02380510e+16
2.71563494e+16
1.29186957e+16
-6.41573964e+15
3.49887896e+15
1.81498197e+15
-1.43771728e+15
-3.75137245e+14
7.19101416e+14
9.37830397e+11
-1.85603300e+13
-2.03470071e+13
7.15211110e+12
-6.54806986e+11
3.21422641e+11
6.06570070e+11
2.79042059e+11
7.93878716e+10
3.11618204e+10
-2.71326928e+09
-4.19260970e+09
-1.62273092e+09
1.78522511e+09
3.17290516e+09
5.61111460e+08
3.37619727e+06
-3.46506528e+08
3.27684319e+07
7.15379308e+07
3.29405892e+07
-2.88723135e+06
-3.60579946e+07
-4.14041512e+06
-4.36536751e+05
4.76994429e+05
1.98014408e+05
3.59631909e+04
-1.88807753e+03
2.51150564e+03
3.17210360e+02
-3.43384475e+02
-5.45353917e+01
1.02028037e+00
1.02116973e+00
1.01623310e+00
1.01822509e+00
1.02406043e+00
1.01900232e+00
1.01678567e+00
1.02593344e+00
1.01920398e+00
1.01114105e+00
1.02213620e+00
1.02869761e+00
1.01513136e+00
1.00922054e+00
1.02362572e+00
1.02791387e+00
1.01232445e+00
1.01371064e+00
1.02331724e+00
1.01636710e+00
1.01308219e+00
1.02395259e+00
1.01756240e+00
1.00454708e+00
1.01838920e+00
1.02747655e+00
1.01231392e+00
1.00493936e+00
1.01712678e+00
-6.94497913e+04
-3.83786370e+06
2.05607859e+06
2.90720998e+06
-1.84198076e+07
4.25355635e+07
1.41236747e+08
6.66498886e+08
9.06422084e+08
-4.06563961e+09
-7.74677382e+08
1.10442249e+10
-8.95929055e+10
-1.73857152e+11
-9.92847734e+11
-4.50158582e+12
-2.58058671e+12
-4.66124958e+12
-4.12231218e+12
-3.56169801e+12
-5.21793549e+12
-6.36298142e+11
1.00415425e+12
6.68593087e+13
-2.42627256e+14
-3.11479404e+14
-4.19672215e+14
-3.09701923e+14
4.60661533e+14
1.07831443e+15
4.01419927e+15
2.03619632e+15
3.03415602e+15
4.37878347e+15
7.43068737e+15
9.00521752e+15
1.38277543e+16
1.33100739e+16
3.04522435e+16
1.35584389e+16
1.59503474e+16
3.32978461e+16
7.21205815e+16
-1.34992133e+16
2.32774308e+17
2.45743081e+17
1.10835834e+18
1.65102039e+18
8.50423324e+17
-8.81104186e+18
1.28349084e+18
-6.02600654e+17
-9.17118599e+17
4.46200503e+18
-1.88469955e+18
1.80802256e+18
-4.10606733e+17
-4.82417631e+17
1.06350692e+17
8.39029624e+16
-1.90047311e+16
-3.75658621e+17
4.61989345e+17
-1.22180138e+17
-5.88732861e+15
2.51828051e+15
-4.23700211e+14
-5.11878682e+14
-1.94231256e+14
-5.13624172e+13
-2.22954913e+13
-7.43280055e+12
1.46680116e+11
1.22020067e+11
4.25866476e+11
2.14611590e+11
7.02268786e+10
1.07583350e+10
2.22403865e+10
1.78289171e+10
2.53833071e+09
1.88081182e+09
-3.99951124e+08
-1.37112934e+08
5.80535694e+07
9.38426079e+07
2.91668083e+08
1.64185433e+08
7.12514613e+06
-6.90609426e+07
-2.29540067e+07
-2.37087690e+07
-4.73919626e+05
1.39932353e+05
8.99401061e+03
3.87191240e+03
4.48977961e+02
-5.00979643e+02
-7.58628864e+01
1.01438411e+00
1.02079934e+00
1.02202833e+00
1.01408834e+00
1.02073668e+00
1.02412893e+00
1.01310722e+00
1.01736580e+00
1.02684593e+00
1.02001509e+00
1.00829479e+00
1.01863158e+00
1.03223894e+00
1.01767356e+00
1.00746216e+00
1.02085511e+00
1.02501012e+00
1.01463752e+00
1.01571180e+00
1.02163909e+00
1.01332009e+00
1.01250416e+00
1.02676878e+00
1.02140084e+00
1.00482552e+00
1.01509868e+00
1.02842633e+00
1.01545107e+00
1.00680208e+00
2.64927860e+06
6.10614303e+06
2.12556866e+06
2.57983804e+07
1.18025428e+08
3.27385881e+08
2.03927189e+09
3.08076756e+09
8.53183761e+09
6.28508018e+10
-1.62471901e+11
5.82463446e+11
-4.77980007e+11
-4.16761629e+11
-2.58493709e+12
2.50109176e+13
-2.43142188e+13
3.73781668e+13
-5.83259984e+13
-1.62454941e+13
-9.80078055e+13
-7.66875147e+13
-1.08136473e+13
3.46628639e+14
6.92016490e+14
1.76327237e+15
9.43537642e+14
1.27647978e+15
-5.57858085e+14
-1.16281708e+15
2.06469215e+15
7.96717926e+15
1.34394832e+16
2.22778806e+16
3.91555151e+16
1.19816307e+16
8.71174771e+15
7.74307552e+16
-1.15975852e+17
4.95475265e+16
-2.06393084e+17
4.92978515e+17
7.09489760e+16
7.98443888e+16
1.11794829e+18
9.78252995e+17
1.21542465e+19
3.41824871e+15
1.13163437e+19
-2.22020621e+19
6.24191772e+19
-5.94030979e+19
-5.54722050e+18
-3.79867101e+19
-4.98526236e+19
-4.59100627e+19
-8.81115095e+18
-2.50275715e+18
-4.87471319e+16
-2.78874175e+17
1.14475383e+17
-1.19648881e+18
1.82504904e+18
-9.51258998e+17
-2.47522238e+15
1.98902745e+14
-4.65470362e+15
-2.89194760e+15
-1.04178378e+15
-4.47833585e+14
-1.59949581e+14
-4.04940447e+13
-1.29560672e+13
-3.01079422e+12
-5.79707596e+11
5.94302045e+11
2.42825987e+10
-2.40094294e+10
-2.27675959e+10
-1.63520180e+10
1.79100719e+10
-1.04174284e+09
2.12726385e+09
-1.20826173e+09
-1.83870843e+09
1.04454195e+09
-8.74185663e+08
-2.52180629e+07
1.71308829e+08
3.78618872e+07
-8.62657605e+06
1.65761881e+07
1.56289498e+06
3.40018451e+05
4.04635603e+03
5.90348233e+03
6.23993499e+02
-7.28108930e+02
-1.05067162e+02
1.02004399e+00
1.01185305e+00
1.02020887e+00
1.02080866e+00
1.01460593e+00
1.02125320e+00
1.02462632e+00
1.01218829e+00
1.01308521e+00
1.02847452e+00
1.02385953e+00
1.01104381e+00
1.01701934e+00
1.02644074e+00
1.01840872e+00
1.01271035e+00
1.02065645e+00
1.02027639e+00
1.01208319e+00
1.01864627e+00
1.02501024e+00
1.01332869e+00
1.00790619e+00
1.02451180e+00
1.02317203e+00
1.00673957e+00
1.01444371e+00
1.02425318e+00
1.01503226e+00
2.48076990e+07
-1.20977149e+07
3.43835090e+07
-1.88026049e+07
1.59671339e+09
2.54972611e+09
6.85123001e+09
1.17496993e+10
2.19890795e+11
3.00074904e+11
-2.93621453e+12
-1.20321685e+13
-2.89371165e+12
2.32884169e+12
7.65195336e+12
2.90434012e+13
-1.62338973e+14
-6.45796141e+13
-2.82306059e+14
-2.03886648e+14
-2.87859302e+14
-4.32524547e+14
3.82836902e+14
4.35869631e+15
4.53945561e+16
-5.80041831e+16
-5.05414847e+16
-2.86227864e+17
-2.34077655e+17
-4.14289166e+16
-5.14463356e+16
-8.96257128e+16
-1.48031570e+17
-1.34200308e+17
-3.43230549e+17
-6.55716322e+17
-1.08630015e+18
-2.34613100e+18
-4.06083349e+18
-1.08027445e+19
-1.42116956e+19
-2.19860544e+19
-2.73085022e+19
-2.79181843e+19
-2.27847756e+19
-2.46793801e+19
-6.81737742e+18
7.89458710e+19
-5.93344021e+18
-3.73582270e+19
4.69533518e+19
-3.10995555e+20
1.41812398e+20
5.49094022e+19
6.18917997e+19
1.11179500e+19
-3.50677747e+19
-1.12107060e+19
3.92112016e+18
1.27206593e+19
1.43650720e+19
1.47385703e+19
2.70147853e+18
-3.45081355e+17
5.19512259e+16
-6.28982915e+15
-2.11331783e+16
-2.43388457e+16
-1.36908402e+16
-4.00489855e+15
-1.02594618e+15
-3.40423632e+14
-1.03068009e+14
-1.89209133e+13
-2.70841504e+12
3.70274603e+11
2.64035401e+12
-1.78821362e+12
1.24502194e+12
1.65629818e+10
5.06174843e+10
-3.05593477e+10
-3.31657418e+09
3.45418234e+09
1.79387880e+09
-9.82318811e+08
-1.05730610e+09
-1.11813810e+08
1.95533055e+08
2.84562644e+08
-1.93207842e+08
8.77076593e+06
1.29309644e+07
5.47374801e+05
1.97470520e+04
8.83866684e+03
8.75991229e+02
-1.05266138e+03
-1.45020071e+02
1.02007529e+00
1.02044170e+00
1.01631825e+00
1.02206806e+00
1.01825387e+00
1.01152962e+00
1.02296031e+00
1.02629526e+00
1.01387842e+00
1.01582713e+00
1.02471640e+00
1.02220487e+00
1.01266084e+00
1.01869661e+00
1.02536889e+00
1.01547198e+00
1.01336104e+00
1.02242732e+00
1.02157120e+00
1.01289512e+00
1.01618327e+00
1.02583953e+00
1.01392247e+00
1.00868905e+00
1.02434713e+00
1.02280991e+00
1.00496006e+00
1.01203365e+00
1.02712946e+00
-4.24828149e+07
-3.03861174e+06
2.23749739e+08
3.19980751e+08
2.21822210e+09
8.78819915e+09
2.29723694e+10
1.14958900e+11
9.60992442e+11
3.33932055e+12
1.31069087e+13
7.59393469e+13
8.17268846e+13
1.43638127e+14
1.58249788e+14
4.19122350e+14
1.36643322e+15
2.32489316e+15
-4.48105337e+14
2.22074868e+15
-3.14300302e+15
-3.40743548e+16
-1.33944117e+17
8.61578922e+16
-1.96948876e+17
-8.51714401e+16
4.80865700e+17
-1.73339884e+18
4.48946109e+17
-5.71629256e+16
4.90021489e+17
1.78976649e+17
3.72820710e+17
6.44843592e+17
-1.08348764e+18
-3.28358311e+18
-1.33916691e+19
-3.90584322e+19
-4.89128380e+19
-2.25671523e+19
-4.86442929e+19
5.93778142e+19
-5.25102913e+19
7.80296287e+19
-3.57329857e+19
1.12867898e+20
-1.02749355e+20
1.40493639e+20
-6.01470208e+20
5.14564073e+19
4.20413657e+20
3.36669339e+20
3.42055669e+20
4.41326380e+20
3.72573037e+20
1.08884791e+20
2.44457916e+19
-1.45428086e+19
-5.34454845e+19
-1.58746206e+19
-2.27616533e+19
-6.06916935e+18
1.13516679e+19
1.68826134e+18
6.59353699e+17
3.51107206e+17
3.98621829e+16
-1.85599541e+16
-3.06573897e+16
-2.43759649e+16
-7.89545332e+15
-2.03767516e+15
-6.22203033e+14
-1.42205836e+14
-3.45919536e+13
-1.47822360e+13
1.58053822e+12
-2.12216487e+12
2.44526287e+11
5.25966193e+11
-3.58162981e+11
-9.94218186e+10
-4.28118008e+10
-1.24035250e+10
1.54929160e+09
1.55788559e+09
-1.84607716e+09
-4.23438806e+08
4.55018756e+08
9.98088378e+07
3.34891396e+06
3.42559870e+07
-1.40927560e+07
1.20622388e+05
4.09469400e+04
1.32350948e+04
1.23875392e+03
-1.51766824e+03
-1.99598172e+02
1.00983935e+00
1.02519913e+00
1.01867032e+00
1.00991309e+00
1.01831495e+00
1.02237765e+00
1.01813009e+00
1.01609406e+00
1.02000557e+00
1.01947881e+00
1.01948403e+00
1.02156420e+00
1.01768478e+00
1.01531673e+00
1.01864420e+00
1.02229152e+00
1.01829774e+00
1.01492844e+00
1.01844003e+00
1.01999101e+00
1.01599985e+00
1.01897194e+00
1.02143342e+00
1.01113613e+00
1.00853091e+00
1.02712226e+00
1.02544209e+00
1.00212601e+00
1.00730761e+00
7.23983683e+06
1.23814915e+08
1.15632450e+09
3.32341781e+09
1.37099780e+10
3.07427255e+10
1.11126294e+11
5.93798513e+11
6.07467153e+12
3.27623873e+13
2.30935618e+13
-4.43366314e+13
5.18052159e+14
3.62058044e+14
5.70762750e+14
1.29459318e+15
-3.24165968e+15
3.34931300e+15
-1.79503130e+16
-6.77265210e+16
-1.08427150e+17
-3.83466459e+17
-3.29725071e+17
-9.34700904e+15
1.92777114e+18
1.98286705e+18
1.83513037e+18
2.85172539e+18
1.02665090e+19
2.25802478e+18
2.71502467e+18
-2.24117317e+19
2.65114593e+19
-3.23393444e+19
5.26482575e+19
-8.13825505e+19
1.92025095e+19
6.20226844e+19
-2.75737714e+19
-4.59661049e+20
-1.52770696e+21
3.28126794e+21
-1.45529655e+21
-2.35751998e+21
-1.04754478e+22
6.19965803e+19
1.22156149e+21
1.01666853e+21
1.77778511e+20
3.80020393e+20
-2.30122964e+20
-5.86204342e+20
5.40665185e+20
-2.06966767e+20
-2.30761765e+20
7.27835453e+20
2.53153685e+20
3.79456195e+19
8.03923082e+18
-5.53506175e+19
-3.47999285e+19
7.46832995e+19
4.87574024e+19
5.23784192e+19
3.15273441e+18
1.14914005e+17
1.05417176e+17
-3.01987703e+16
-7.71132289e+16
-5.49832690e+16
-3.58807731e+16
-1.04961316e+16
-4.38138711e+15
-5.16127870e+14
-4.59820444e+14
-1.50162461e+14
9.39584196e+13
2.57634856e+13
-9.23705749e+12
7.50747379e+12
1.17404384e+11
-2.88651888e+11
-4.15741903e+11
-4.31236400e+11
3.01632719e+12
-1.73479613e+12
-6.41259431e+11
-3.21694154e+09
1.90972595e+08
1.11931148e+08
-8.41506438e+07
-3.26172404e+07
-4.41569127e+06
-3.69972080e+05
7.73612486e+04
1.97650089e+04
1.74684374e+03
-2.17973612e+03
-2.74234290e+02
1.01158214e+00
1.01202679e+00
1.02058823e+00
1.02191692e+00
1.01465301e+00
1.01202843e+00
1.02070704e+00
1.02364216e+00
1.01985950e+00
1.01342508e+00
1.01615907e+00
1.02337487e+00
1.01910097e+00
1.01891409e+00
1.01854035e+00
1.01804853e+00
1.01967715e+00
1.02047717e+00
1.01976770e+00
1.01615762e+00
1.01723104e+00
1.01554004e+00
1.01854721e+00
1.02537793e+00
1.01161100e+00
1.00561048e+00
1.02388226e+00
1.02692011e+00
1.00794786e+00
5.71718535e+08
2.61133437e+09
4.43582611e+09
1.23200115e+10
4.22575931e+10
2.58586916e+11
-6.56436733e+11
3.72073857e+12
3.16597843e+13
-2.80365855e+13
-3.64662712e+14
3.01685623e+14
1.53638741e+15
3.76031277e+15
9.88549054e+15
4.14102397e+15
4.71891325e+15
2.09191299e+16
-8.76265260e+16
-3.43834670e+17
-6.86409793e+17
-3.68181555e+17
2.85549468e+18
1.22019382e+19
1.10366928e+19
2.34472455e+19
8.49684886e+18
3.48956266e+19
3.88236898e+19
-1.26468889e+20
-1.78085108e+20
-2.52031109e+20
-4.31617768e+20
1.15529121e+21
-1.32988964e+21
1.08358119e+21
-8.03021447e+20
2.55021705e+18
-1.29574010e+21
-7.39634352e+21
6.54215560e+21
3.14273606e+21
4.87730500e+21
-3.15795826e+21
1.89874293e+22
4.38325270e+21
1.32607401e+21
-6.14447074e+21
-9.81787745e+20
2.61478788e+20
-9.81849390e+19
-6.82581205e+21
-4.49676828e+21
-1.28679075e+21
-1.93572797e+20
-1.08042506e+21
-9.84038459e+20
-1.70845595e+20
-2.44273551e+19
1.88314786e+20
-5.14644190e+20
4.39858865e+20
-5.19808476e+19
-4.85758125e+19
4.95287523e+19
4.46583986e+18
2.25640757e+18
5.02096960e+17
1.10513742e+17
9.39017882e+16
-7.79916713e+16
-6.49288238e+16
-2.24164245e+16
-2.91188959e+16
-2.34944281e+16
-4.50729008e+15
4.90460741e+13
2.31427213e+14
3.61504447e+12
4.50295502e+12
3.51555951e+12
-3.48804682e+10
-5.94612215e+12
4.56647459e+12
1.60718710e+12
6.61382933e+12
-7.02547572e+12
-5.04352273e+08
-5.40828574e+09
1.34445989e+08
-6.00592348e+07
7.79685379e+06
-4.04224881e+05
1.37324237e+05
7.27594538e+04
2.93640062e+04
2.46404943e+03
-3.12398488e+03
-3.76190646e+02
1.02193407e+00
1.01796732e+00
1.01021135e+00
1.01519380e+00
1.02372257e+00
1.01905067e+00
1.01246930e+00
1.01653306e+00
1.02366462e+00
1.01896312e+00
1.01335789e+00
1.02104062e+00
1.02280192e+00
1.01642325e+00
1.01653408e+00
1.02436884e+00
1.01998437e+00
1.01236554e+00
1.01752256e+00
1.02072456e+00
1.01840276e+00
1.01673245e+00
1.01212120e+00
1.01556439e+00
1.02381443e+00
1.01856661e+00
1.00756679e+00
1.01743447e+00
1.02529495e+00
6.54481871e+08
-2.61940553e+09
1.40523300e+09
4.50156924e+10
9.43211115e+10
-2.99977770e+11
3.57249685e+12
-1.00911687e+13
-2.34974095e+14
-7.51924569e+14
-2.01524360e+15
-4.15065887e+15
1.18856506e+16
-3.16598694e+15
-2.37249074e+16
-1.95527132e+16
-2.62250538e+16
-1.74298205e+17