# vtk DataFile Version 2.0
LBM Flow Field - Timestep 700
ASCII
DATASET STRUCTURED_POINTS
DIMENSIONS 128 128 1
ORIGIN 0.0 0.0 0.0
SPACING 1.0 1.0 1.0
POINT_DATA 16384
SCALARS density double 1
LOOKUP_TABLE default
1.32001643e+00
1.30754026e+00
1.29276714e+00
1.27796682e+00
1.26353434e+00
1.24905341e+00
1.23513339e+00
1.22114558e+00
1.20789102e+00
1.19455183e+00
1.18209171e+00
1.16953360e+00
1.15796921e+00
1.14629805e+00
1.13570094e+00
1.12499396e+00
1.11540556e+00
1.10571067e+00
1.09714352e+00
1.08848007e+00
1.08092035e+00
1.07328114e+00
1.06669228e+00
1.06004649e+00
1.05437350e+00
1.04867047e+00
1.04384453e+00
1.03901795e+00
1.03496106e+00
1.03093338e+00
1.02756271e+00
1.02424941e+00
1.02148109e+00
1.01879470e+00
1.01654700e+00
1.01440067e+00
1.01259635e+00
1.01090676e+00
1.00947482e+00
1.00816445e+00
1.00704109e+00
1.00603987e+00
1.00516893e+00
1.00441512e+00
1.00374808e+00
1.00318870e+00
1.00268428e+00
1.00227497e+00
1.00189859e+00
1.00160307e+00
1.00132618e+00
1.00111547e+00
1.00091482e+00
1.00076632e+00
1.00062321e+00
1.00051964e+00
1.00041928e+00
1.00034773e+00
1.00027857e+00
1.00022957e+00
1.00018279e+00
1.00014951e+00
1.00011845e+00
1.00009603e+00
1.00007580e+00
1.00006082e+00
1.00004789e+00
1.00003799e+00
1.00002986e+00
1.00002340e+00
1.00001838e+00
1.00001422e+00
1.00001115e+00
1.00000852e+00
1.00000668e+00
1.00000504e+00
1.00000394e+00
1.00000294e+00
1.00000229e+00
1.00000169e+00
1.00000131e+00
1.00000096e+00
1.00000074e+00
1.00000054e+00
1.00000041e+00
1.00000030e+00
1.00000022e+00
1.00000016e+00
1.00000012e+00
1.00000009e+00
1.00000006e+00
1.00000005e+00
1.00000003e+00
1.00000002e+00
1.00000002e+00
1.00000001e+00
1.00000001e+00
1.00000001e+00
1.00000000e+00
1.00000000e+00
1.00000000e+00
1.00000000e+00
1.00000000e+00
1.00000000e+00
1.00000000e+00
1.00000000e+00
1.00000000e+00
1.00000000e+00
1.00000000e+00
1.00000000e+00
1.00000000e+00
1.00000000e+00
1.00000000e+00
1.00000000e+00
1.00000000e+00
1.00000000e+00
1.00000000e+00
1.00000000e+00
1.00000000e+00
1.00000000e+00
1.00000000e+00
1.00000000e+00
1.00000000e+00
1.00000000e+00
1.00000000e+00
1.00000000e+00
1.00000000e+00
1.00000000e+00
1.11721310e+00
1.09384953e+00
1.07666919e+00
1.06447609e+00
1.06128773e+00
1.05525743e+00
1.04822490e+00
1.03778446e+00
1.04980583e+00
1.04163726e+00
1.02744275e+00
1.03961094e+00
1.02978800e+00
1.02974768e+00
1.03244434e+00
1.02935169e+00
1.02400335e+00
1.02884787e+00
1.02244348e+00
1.00664183e+00
1.03552943e+00
1.02404341e+00
1.03693780e+00
1.00345334e+00
1.03655543e+00
1.03236389e+00
1.02186020e+00
1.02293338e+00
1.03426729e+00
1.02856123e+00
1.02583796e+00
1.02107615e+00
1.02565486e+00
1.03427223e+00
1.03626244e+00
1.02932140e+00
1.02326791e+00
1.02848457e+00
1.03739174e+00
1.03411809e+00
1.03112877e+00
1.02809761e+00
1.02883338e+00
1.03404658e+00
1.03625934e+00
1.03584352e+00
1.03737606e+00
1.04226351e+00
1.03644411e+00
1.02811596e+00
1.02898497e+00
1.03389099e+00
1.03588248e+00
1.03023657e+00
1.02757676e+00
1.02981002e+00
1.03273415e+00
1.02876262e+00
1.03135486e+00
1.02945190e+00
1.02948277e+00
1.02730671e+00
1.02760859e+00
1.03274076e+00
1.02670075e+00
1.02806685e+00
1.02840669e+00
1.02522782e+00
1.03101204e+00
1.02836355e+00
1.02466109e+00
1.02785048e+00
1.02919796e+00
1.02529020e+00
1.02691605e+00
1.02733001e+00
1.02634972e+00
1.02622403e+00
1.02827106e+00
1.02501185e+00
1.02598102e+00
1.02644229e+00
1.02551408e+00
1.02576204e+00
1.02591814e+00
1.02681663e+00
1.02690278e+00
1.02551519e+00
1.02494626e+00
1.02493763e+00
1.02403685e+00
1.02474778e+00
1.02431777e+00
1.02391027e+00
1.02393534e+00
1.02383079e+00
1.02646721e+00
1.02575486e+00
1.02401649e+00
1.02389743e+00
1.02447762e+00
1.02537672e+00
1.02400888e+00
1.02203664e+00
1.02331978e+00
1.02308539e+00
1.02342397e+00
1.02304649e+00
1.02462459e+00
1.02468832e+00
1.02270375e+00
1.02275895e+00
1.02212204e+00
1.02190435e+00
1.02225890e+00
1.02135865e+00
1.02296569e+00
1.02253356e+00
1.02200860e+00
1.02110289e+00
1.01966633e+00
1.02118573e+00
1.02201967e+00
1.02026406e+00
1.01983073e+00
1.01895550e+00
1.02197792e+00
1.02062389e+00
1.09504144e+00
1.08345617e+00
1.07820692e+00
1.06199505e+00
1.05404495e+00
1.05178847e+00
1.05522237e+00
1.04537201e+00
1.04260619e+00
1.02827801e+00
1.04367513e+00
1.04078337e+00
1.02959537e+00
1.03130150e+00
1.02547614e+00
1.02076220e+00
1.02667744e+00
1.02568308e+00
1.01738027e+00
1.03460478e+00
1.02545732e+00
1.01945014e+00
1.03990224e+00
1.02654941e+00
1.02296956e+00
1.02239169e+00
1.03627387e+00
1.02387181e+00
1.02769374e+00
1.02509235e+00
1.02364144e+00
1.02604398e+00
1.03017621e+00
1.02805962e+00
1.02902562e+00
1.03209054e+00
1.02954985e+00
1.02959399e+00
1.03525385e+00
1.03127450e+00
1.02744473e+00
1.03187247e+00
1.03312239e+00
1.02700883e+00
1.02730180e+00
1.03820599e+00
1.04059228e+00
1.03406155e+00
1.03126865e+00
1.03268158e+00
1.03642737e+00
1.03370756e+00
1.02761341e+00
1.02914848e+00
1.03445474e+00
1.03044720e+00
1.03035062e+00
1.02744903e+00
1.02944116e+00
1.03342115e+00
1.02743553e+00
1.02853555e+00
1.02532706e+00
1.03155535e+00
1.03224437e+00
1.02251458e+00
1.03138681e+00
1.02792963e+00
1.02751483e+00
1.02994601e+00
1.02811961e+00
1.02559577e+00
1.02780358e+00
1.02810027e+00
1.02534075e+00
1.02601970e+00
1.02776993e+00
1.02418261e+00
1.02873988e+00
1.02819575e+00
1.02558307e+00
1.02646593e+00
1.02422746e+00
1.02790367e+00
1.02585811e+00
1.02675867e+00
1.02624714e+00
1.02556085e+00
1.02650127e+00
1.02602988e+00
1.02420892e+00
1.02535577e+00
1.02409847e+00
1.02488604e+00
1.02535503e+00
1.02497852e+00
1.02634110e+00
1.02458682e+00
1.02393727e+00
1.02515047e+00
1.02472765e+00
1.02401081e+00
1.02413480e+00
1.02438895e+00
1.02486299e+00
1.02219458e+00
1.02264766e+00
1.02343689e+00
1.02476077e+00
1.02394381e+00
1.02212377e+00
1.02138332e+00
1.02288989e+00
1.02301464e+00
1.02330576e+00
1.02117439e+00
1.02285242e+00
1.02263528e+00
1.02171098e+00
1.02110728e+00
1.02053826e+00
1.02070534e+00
1.02097409e+00
1.02154834e+00
1.02207609e+00
1.01912590e+00
1.01889074e+00
1.02144463e+00
1.07848928e+00
1.07557089e+00
1.07616738e+00
1.06740314e+00
1.06065600e+00
1.05568528e+00
1.04396360e+00
1.04145849e+00
1.04491814e+00
1.03962552e+00
1.03491151e+00
1.02915446e+00
1.03849985e+00
1.03187217e+00
1.02595361e+00
1.03275953e+00
1.02624945e+00
1.02157433e+00
1.02918693e+00
1.02782796e+00
1.02367388e+00
1.03215233e+00
1.02274093e+00
1.02952337e+00
1.03624893e+00
1.02235496e+00
1.02639811e+00
1.03037635e+00
1.02480687e+00
1.02101336e+00
1.03150183e+00
1.02915730e+00
1.02420790e+00
1.02570975e+00
1.02787246e+00
1.03039095e+00
1.03647891e+00
1.03588719e+00
1.02709257e+00
1.02993950e+00
1.03711363e+00
1.02895843e+00
1.02331807e+00
1.02705259e+00
1.03286195e+00
1.03681034e+00
1.03405130e+00
1.03281625e+00
1.03517366e+00
1.03826768e+00
1.03046708e+00
1.02806173e+00
1.03236481e+00
1.03476806e+00
1.03123588e+00
1.02623941e+00
1.03039999e+00
1.03299516e+00
1.02957419e+00
1.02664552e+00
1.02694849e+00
1.03282219e+00
1.03091201e+00
1.02464479e+00
1.02817904e+00
1.02842223e+00
1.02782948e+00
1.03114615e+00
1.02549236e+00
1.02655245e+00
1.03214538e+00
1.02696806e+00
1.02572875e+00
1.02905216e+00
1.02725057e+00
1.02538323e+00
1.02777331e+00
1.02619727e+00
1.02666748e+00
1.02744840e+00
1.02698306e+00
1.02576441e+00
1.02382324e+00
1.02679862e+00
1.02388440e+00
1.02577694e+00
1.02666710e+00
1.02464077e+00
1.02492649e+00
1.02524205e+00
1.02517930e+00
1.02703550e+00
1.02281874e+00
1.02413928e+00
1.02500799e+00
1.02581926e+00
1.02738287e+00
1.02292934e+00
1.02316413e+00
1.02416692e+00
1.02370360e+00
1.02462116e+00
1.02304714e+00
1.02361469e+00
1.02482887e+00
1.02214629e+00
1.02272654e+00
1.02265886e+00
1.02410327e+00
1.02365454e+00
1.02324238e+00
1.02205815e+00
1.02114326e+00
1.02128159e+00
1.02215206e+00
1.02208983e+00
1.02389197e+00
1.02306755e+00
1.02106666e+00
1.01941191e+00
1.02138492e+00
1.02400537e+00
1.02106614e+00
1.01847063e+00
1.01966587e+00
1.02126527e+00
1.02039809e+00
1.01862814e+00
1.06855950e+00
1.06720034e+00
1.06373153e+00
1.05845135e+00
1.06617366e+00
1.05067016e+00
1.03985384e+00
1.05405229e+00
1.04145518e+00
1.03611338e+00
1.04139340e+00
1.03251054e+00
1.03373241e+00
1.03562720e+00
1.02727409e+00
1.02757244e+00
1.03629875e+00
1.02800667e+00
1.02467508e+00
1.02760164e+00
1.02653387e+00
1.02646982e+00
1.02761588e+00
1.02776645e+00
1.01975763e+00
1.03349266e+00
1.02858875e+00
1.01968451e+00
1.02905794e+00
1.03187176e+00
1.02291021e+00
1.02006007e+00
1.02542819e+00
1.02854691e+00
1.02847418e+00
1.03129120e+00
1.03074602e+00
1.03175627e+00
1.03406519e+00
1.03347091e+00
1.03032241e+00
1.02778423e+00
1.02831471e+00
1.02831289e+00
1.03195740e+00
1.03288728e+00
1.03213338e+00
1.03779172e+00
1.03491555e+00
1.02958010e+00
1.02658643e+00
1.03337756e+00
1.03700139e+00
1.02959154e+00
1.02818820e+00
1.03028224e+00
1.02952817e+00
1.02720962e+00
1.03041926e+00
1.02866331e+00
1.03061019e+00
1.02812150e+00
1.02906911e+00
1.02921358e+00
1.02948964e+00
1.03388675e+00
1.02126066e+00
1.02738646e+00
1.03199056e+00
1.02700129e+00
1.02698156e+00
1.02579991e+00
1.02780273e+00
1.02799205e+00
1.03029688e+00
1.02636333e+00
1.02476734e+00
1.02796969e+00
1.02743576e+00
1.02537674e+00
1.02682290e+00
1.02640941e+00
1.02480071e+00
1.02664394e+00
1.02484421e+00
1.02570085e+00
1.02432586e+00
1.02488939e+00
1.02506855e+00
1.02511860e+00
1.02554679e+00
1.02567409e+00
1.02291813e+00
1.02553267e+00
1.02513767e+00
1.02398142e+00
1.02412557e+00
1.02314922e+00
1.02566267e+00
1.02478454e+00
1.02296682e+00
1.02411182e+00
1.02368978e+00
1.02514802e+00
1.02524834e+00
1.02213885e+00
1.02103013e+00
1.02224604e+00
1.02448450e+00
1.02453971e+00
1.02101079e+00
1.02205572e+00
1.02278631e+00
1.02343552e+00
1.02235484e+00
1.02109160e+00
1.02119587e+00
1.02182050e+00
1.02265013e+00
1.02033459e+00
1.01896025e+00
1.02097055e+00
1.02267243e+00
1.02154561e+00
1.02038719e+00
1.01833237e+00
1.01973289e+00
1.02068473e+00
1.06757243e+00
1.05473622e+00
1.06470541e+00
1.06113067e+00
1.05035240e+00
1.06100540e+00
1.06163354e+00
1.03887666e+00
1.03963777e+00
1.04319982e+00
1.03220301e+00
1.04168226e+00
1.03433693e+00
1.02487230e+00
1.03683870e+00
1.03504624e+00
1.01678118e+00
1.02920259e+00
1.03677684e+00
1.01961417e+00
1.03503959e+00
1.03310776e+00
1.02635175e+00
1.03073172e+00
1.02600717e+00
1.02414067e+00
1.02906794e+00
1.02862526e+00
1.02619380e+00
1.02717249e+00
1.02450703e+00
1.02419276e+00
1.01893809e+00
1.02375051e+00
1.02970091e+00
1.03325906e+00
1.03008331e+00
1.03203632e+00
1.03632219e+00
1.03242732e+00
1.02763591e+00
1.03130633e+00
1.03171649e+00
1.02969667e+00
1.02912218e+00
1.03226907e+00
1.03635672e+00
1.03495407e+00
1.02800075e+00
1.03004651e+00
1.03414601e+00
1.03217841e+00
1.03115274e+00
1.02812289e+00
1.02973258e+00
1.03160081e+00
1.03284062e+00
1.02712492e+00
1.02925032e+00
1.03344310e+00
1.02831981e+00
1.02765404e+00
1.02864217e+00
1.03379068e+00
1.02626582e+00
1.02796168e+00
1.03122910e+00
1.02729107e+00
1.02741577e+00
1.02600347e+00
1.02647252e+00
1.02669636e+00
1.02924280e+00
1.02411559e+00
1.02596975e+00
1.02730998e+00
1.02611004e+00
1.02504484e+00
1.02542882e+00
1.02548071e+00
1.02675020e+00
1.02757584e+00
1.02522963e+00
1.02533512e+00
1.02343060e+00
1.02861979e+00
1.02474283e+00
1.02417207e+00
1.02373097e+00
1.02370328e+00
1.02652212e+00
1.02560509e+00
1.02434528e+00
1.02426315e+00
1.02223388e+00
1.02521475e+00
1.02522425e+00
1.02199493e+00
1.02351480e+00
1.02360520e+00
1.02426250e+00
1.02435878e+00
1.02263757e+00
1.02413362e+00
1.02315146e+00
1.02265542e+00
1.02319489e+00
1.02210266e+00
1.02246970e+00
1.02326120e+00
1.02244096e+00
1.02316945e+00
1.02175133e+00
1.01951104e+00
1.01954846e+00
1.02306480e+00
1.02444299e+00
1.02088315e+00
1.01909238e+00
1.02005735e+00
1.02236754e+00
1.02228615e+00
1.01987611e+00
1.01947220e+00
1.02017707e+00
1.02024982e+00
1.01995107e+00
1.01936210e+00
1.05845507e+00
1.07193928e+00
1.06008426e+00
1.05564419e+00
1.05421571e+00
1.05398095e+00
1.04882046e+00
1.04715059e+00
1.04989954e+00
1.04936187e+00
1.04049109e+00
1.03470794e+00
1.03733811e+00
1.03797081e+00
1.02652389e+00
1.03621322e+00
1.03165728e+00
1.02762974e+00
1.03633500e+00
1.02378687e+00
1.02878553e+00
1.03357991e+00
1.03016955e+00
1.02747918e+00
1.02887505e+00
1.02486189e+00
1.02841909e+00
1.03212072e+00
1.02763297e+00
1.02177007e+00
1.02595691e+00
1.03029573e+00
1.02422285e+00
1.02455333e+00
1.02658710e+00
1.02979023e+00
1.03220454e+00
1.03392448e+00
1.03082878e+00
1.03001090e+00
1.03081411e+00
1.03224599e+00
1.03059894e+00
1.03331255e+00
1.03243149e+00
1.03499543e+00
1.03044801e+00
1.02913871e+00
1.03312558e+00
1.03463713e+00
1.03246986e+00
1.02744965e+00
1.02915160e+00
1.03342575e+00
1.03381852e+00
1.02639949e+00
1.02904397e+00
1.03414123e+00
1.02870096e+00
1.03196195e+00
1.02530850e+00
1.03183121e+00
1.02690799e+00
1.02873775e+00
1.02911540e+00
1.02465119e+00
1.02960047e+00
1.02614831e+00
1.02671739e+00
1.02881323e+00
1.02848965e+00
1.02343803e+00
1.02580717e+00
1.02739108e+00
1.02690697e+00
1.02508087e+00
1.02609046e+00
1.02516260e+00
1.02633947e+00
1.02785397e+00
1.02566747e+00
1.02435314e+00
1.02349079e+00
1.02919346e+00
1.02610749e+00
1.02568862e+00
1.02281856e+00
1.02566119e+00
1.02490852e+00
1.02281445e+00
1.02537546e+00
1.02406804e+00
1.02460506e+00
1.02554913e+00
1.02364468e+00
1.02298857e+00
1.02374517e+00
1.02455304e+00
1.02737847e+00
1.02317946e+00
1.02203431e+00
1.02209944e+00
1.02508280e+00
1.02685261e+00
1.02395896e+00
1.02059138e+00
1.02230945e+00
1.02248085e+00
1.02461853e+00
1.02416869e+00
1.02287174e+00
1.02243760e+00
1.02139763e+00
1.02273661e+00
1.02231227e+00
1.02117934e+00
1.02105113e+00
1.02236434e+00
1.02148146e+00
1.02110103e+00
1.01998609e+00
1.02077622e+00
1.02102710e+00
1.02072649e+00
1.02135687e+00
1.01835623e+00
1.01803671e+00
1.01793904e+00
1.04478667e+00
1.06746642e+00
1.05017029e+00
1.06010454e+00
1.05791041e+00
1.05038511e+00
1.04560372e+00
1.05910961e+00
1.04500938e+00
1.03687253e+00
1.04701109e+00
1.03956654e+00
1.03237371e+00
1.04466894e+00
1.03146051e+00
1.02946340e+00
1.03806943e+00
1.03134759e+00
1.02406050e+00
1.03603396e+00
1.03686146e+00
1.02364890e+00
1.03022464e+00
1.02656125e+00
1.02764036e+00
1.02974460e+00
1.03049203e+00
1.02781573e+00
1.02764961e+00
1.02962318e+00
1.02459447e+00
1.02532247e+00
1.02954243e+00
1.02877439e+00
1.03060818e+00
1.03220258e+00
1.03255368e+00
1.03099228e+00
1.02736381e+00
1.03093941e+00
1.03485800e+00
1.03555142e+00
1.02650865e+00
1.02622830e+00
1.03045804e+00
1.03691389e+00
1.03210075e+00
1.03085901e+00
1.03146267e+00
1.03174534e+00
1.03294730e+00
1.03244170e+00
1.03140242e+00
1.02814287e+00
1.03023907e+00
1.03180547e+00
1.03225310e+00
1.03274161e+00
1.02482828e+00
1.02851629e+00
1.03148947e+00
1.02971048e+00
1.02549665e+00
1.02460074e+00
1.02881811e+00
1.03038747e+00
1.02699767e+00
1.02789220e+00
1.02824798e+00
1.02637053e+00
1.03093406e+00
1.02760805e+00
1.02596710e+00
1.02520187e+00
1.02752457e+00
1.02671299e+00
1.02868166e+00
1.02739833e+00
1.02385813e+00
1.02549846e+00
1.02544210e+00
1.02744662e+00
1.02418069e+00
1.02300865e+00
1.02528928e+00
1.02750565e+00
1.02583219e+00
1.02476338e+00
1.02220972e+00
1.02255580e+00
1.02698669e+00
1.02556006e+00
1.02507579e+00
1.02203308e+00
1.02386691e+00
1.02547507e+00
1.02510435e+00
1.02524463e+00
1.02486392e+00
1.02024976e+00
1.02388152e+00
1.02554379e+00
1.02525372e+00
1.02284009e+00
1.02193351e+00
1.02435009e+00
1.02472736e+00
1.02183498e+00
1.02202286e+00
1.02333470e+00
1.02431208e+00
1.02458793e+00
1.02030978e+00
1.01805689e+00
1.02203647e+00
1.02541833e+00
1.02487058e+00
1.02108902e+00
1.01921750e+00
1.02031937e+00
1.02175841e+00
1.02252165e+00
1.02255568e+00
1.02001049e+00
1.01908144e+00
1.02041772e+00
1.01998960e+00
1.01908009e+00
1.06809439e+00
1.04631078e+00
1.04509142e+00
1.06302366e+00
1.05193947e+00
1.05399551e+00
1.05138361e+00
1.04356577e+00
1.03999224e+00
1.05417854e+00
1.03945073e+00
1.04501212e+00
1.04260817e+00
1.03393031e+00
1.04245262e+00
1.03532734e+00
1.03008336e+00
1.03182760e+00
1.03354444e+00
1.03845096e+00
1.02441307e+00
1.03102127e+00
1.03443245e+00
1.02288405e+00
1.03289464e+00
1.03003573e+00
1.02600686e+00
1.03210579e+00
1.03050517e+00
1.02983244e+00
1.02630983e+00
1.02483021e+00
1.02988983e+00
1.03288759e+00
1.03404621e+00
1.02903588e+00
1.02627670e+00
1.03157527e+00
1.03597462e+00
1.03493806e+00
1.02929972e+00
1.02727087e+00
1.02895659e+00
1.03470353e+00
1.03202328e+00
1.03052921e+00
1.02915353e+00
1.03334749e+00
1.03462573e+00
1.03253500e+00
1.02964444e+00
1.02913930e+00
1.03341386e+00
1.03039021e+00
1.03028425e+00
1.03275566e+00
1.02738324e+00
1.02597274e+00
1.03205268e+00
1.02905922e+00
1.02736579e+00
1.02658024e+00
1.02951020e+00
1.03162206e+00
1.02676871e+00
1.03046658e+00
1.02376112e+00
1.02591946e+00
1.03278068e+00
1.02715107e+00
1.02598578e+00
1.02617255e+00
1.02839531e+00
1.02590997e+00
1.02919606e+00
1.02697146e+00
1.02438566e+00
1.02488330e+00
1.02534399e+00
1.02836009e+00
1.02536817e+00
1.02464758e+00
1.02582881e+00
1.02353675e+00
1.02695774e+00
1.02516310e+00
1.02386695e+00
1.02443293e+00
1.02617217e+00
1.02689358e+00
1.02426016e+00
1.02246152e+00
1.02592897e+00
1.02463358e+00
1.02426626e+00
1.02340068e+00
1.02237472e+00
1.02553606e+00
1.02563911e+00
1.02246448e+00
1.02101074e+00
1.02176990e+00
1.02516718e+00
1.02570080e+00
1.02267916e+00
1.02217752e+00
1.02075559e+00
1.02176182e+00
1.02447387e+00
1.02479885e+00
1.02163783e+00
1.02023914e+00
1.02077725e+00
1.02174106e+00
1.02327397e+00
1.02189332e+00
1.02213836e+00
1.01992659e+00
1.02053433e+00
1.02266986e+00
1.02002267e+00
1.01947957e+00
1.02070436e+00
1.02434440e+00
1.02026079e+00
1.01656515e+00
1.01586300e+00
1.01900621e+00
1.04960705e+00
1.05649736e+00
1.06141535e+00
1.04869412e+00
1.04894249e+00
1.05260326e+00
1.04740163e+00
1.04899490e+00
1.04901395e+00
1.04645927e+00
1.03944066e+00
1.04964259e+00
1.03770624e+00
1.04465734e+00
1.04088630e+00
1.02644844e+00
1.04404213e+00
1.03902213e+00
1.03189662e+00
1.03781829e+00
1.02777789e+00
1.04137530e+00
1.02910929e+00
1.02637027e+00
1.04020509e+00
1.02853062e+00
1.03324694e+00
1.03179479e+00
1.02457825e+00
1.03346435e+00
1.03015412e+00
1.03446926e+00
1.03392352e+00
1.02871599e+00
1.02661521e+00
1.03294157e+00
1.03452141e+00
1.03125490e+00
1.03241155e+00
1.02851809e+00
1.02909699e+00
1.03356931e+00
1.03482519e+00
1.03215928e+00
1.02484311e+00
1.03447908e+00
1.03726131e+00
1.03201318e+00
1.02775274e+00
1.02896470e+00
1.03652058e+00
1.03189254e+00
1.02922492e+00
1.02914262e+00
1.02978114e+00
1.03094830e+00
1.03135301e+00
1.02643355e+00
1.02573625e+00
1.03076056e+00
1.02954692e+00
1.03292827e+00
1.02505228e+00
1.02943475e+00
1.02602310e+00
1.02701667e+00
1.03252552e+00
1.02355648e+00
1.02435588e+00
1.02634498e+00
1.02778709e+00
1.02600890e+00
1.02555804e+00
1.02371007e+00
1.02539150e+00
1.02748740e+00
1.02725764e+00
1.02446716e+00
1.02248512e+00
1.02599676e+00
1.02769850e+00
1.02603466e+00
1.02346316e+00
1.02324768e+00
1.02535236e+00
1.02470840e+00
1.02768962e+00
1.02403711e+00
1.02222929e+00
1.02635326e+00
1.02491426e+00
1.02506174e+00
1.02298063e+00
1.02068738e+00
1.02291404e+00
1.02608891e+00
1.02682578e+00
1.02497679e+00
1.01983347e+00
1.02263422e+00
1.02489535e+00
1.02413209e+00
1.02251015e+00
1.02238105e+00
1.02294462e+00
1.02472001e+00
1.02373225e+00
1.02206460e+00
1.02079749e+00
1.02316738e+00
1.02512984e+00
1.02404112e+00
1.01977524e+00
1.01931815e+00
1.02257673e+00
1.02247947e+00
1.02558187e+00
1.02222368e+00
1.01765666e+00
1.01877515e+00
1.02089542e+00
1.02408733e+00
1.02215871e+00
1.01934503e+00
1.01932898e+00
1.02000739e+00
1.02071392e+00
1.01965143e+00
1.04336222e+00
1.04518867e+00
1.06188841e+00
1.04567565e+00
1.04196923e+00
1.05584468e+00
1.05022369e+00
1.04560995e+00
1.05023334e+00
1.04417570e+00
1.04433661e+00
1.04383257e+00
1.03747093e+00
1.04506816e+00
1.03694627e+00
1.04321012e+00
1.04377637e+00
1.03072579e+00
1.04076389e+00
1.03817700e+00
1.02984671e+00
1.04007602e+00
1.02576477e+00
1.03978833e+00
1.03874699e+00
1.02653864e+00
1.03673562e+00
1.03375638e+00
1.03037040e+00
1.03652019e+00
1.02647739e+00
1.03160225e+00
1.03485891e+00
1.03220450e+00
1.03318145e+00
1.03263273e+00
1.03212529e+00
1.02885293e+00
1.03332227e+00
1.02995349e+00
1.03423200e+00
1.03428253e+00
1.02713368e+00
1.03145352e+00
1.03264794e+00
1.03544927e+00
1.02821916e+00
1.02911746e+00
1.03525282e+00
1.03253085e+00
1.03305345e+00
1.02792805e+00
1.02862632e+00
1.03310341e+00
1.03469640e+00
1.02609217e+00
1.02530531e+00
1.03248777e+00
1.02821286e+00
1.03274329e+00
1.02642142e+00
1.02993457e+00
1.02588881e+00
1.02902014e+00
1.03144850e+00
1.02390192e+00
1.02951335e+00
1.02583160e+00
1.02767562e+00
1.02850443e+00
1.02698811e+00
1.02364042e+00
1.02492762e+00
1.02999197e+00
1.02730899e+00
1.02393675e+00
1.02332174e+00
1.02362062e+00
1.02802373e+00
1.02725230e+00
1.02601893e+00
1.02615289e+00
1.02230062e+00
1.02535986e+00
1.02637263e+00
1.02269786e+00
1.02405839e+00
1.02355157e+00
1.02336723e+00
1.02448307e+00
1.02288890e+00
1.02489162e+00
1.02256760e+00
1.02342409e+00
1.02437798e+00
1.02240773e+00
1.02207017e+00
1.02496586e+00
1.02374984e+00
1.02472949e+00
1.02141877e+00
1.02210215e+00
1.02316364e+00
1.02501832e+00
1.02483406e+00
1.02138068e+00
1.01948388e+00
1.02126400e+00
1.02441991e+00
1.02481294e+00
1.02284921e+00
1.01956136e+00
1.01844374e+00
1.02204998e+00
1.02563788e+00
1.02083413e+00
1.02022831e+00
1.02126665e+00
1.02284310e+00
1.02062145e+00
1.01664869e+00
1.01907751e+00
1.02276596e+00
1.02397956e+00
1.02009846e+00
1.01627860e+00
1.01666735e+00
1.01993948e+00
1.05342126e+00
1.05030843e+00
1.04642455e+00
1.05437350e+00
1.05601966e+00
1.04494242e+00
1.04150689e+00
1.05517016e+00
1.04976148e+00
1.04269395e+00
1.04865287e+00
1.04070389e+00
1.04735336e+00
1.03944169e+00
1.03780064e+00
1.04930631e+00
1.03139794e+00
1.04085400e+00
1.04464757e+00
1.02831947e+00
1.03670704e+00
1.04350187e+00
1.02945559e+00
1.04175646e+00
1.03170492e+00
1.03010994e+00
1.03716651e+00
1.03170163e+00
1.03461244e+00
1.03747977e+00
1.03096072e+00
1.03355925e+00
1.03078088e+00
1.03504486e+00
1.03604020e+00
1.02966199e+00
1.03199112e+00
1.02795245e+00
1.03231084e+00
1.03548232e+00
1.03535994e+00
1.02895764e+00
1.02721986e+00
1.03378074e+00
1.03184171e+00
1.03254570e+00
1.03012345e+00
1.03087484e+00
1.03409292e+00
1.02995939e+00
1.02835900e+00
1.03268540e+00
1.03652614e+00
1.02574685e+00
1.02633361e+00
1.03357199e+00
1.02861287e+00
1.03259679e+00
1.02945868e+00
1.02745724e+00
1.02933574e+00
1.02971603e+00
1.02843881e+00
1.02195582e+00
1.02954586e+00
1.03081553e+00
1.02691948e+00
1.02840797e+00
1.02701904e+00
1.02321028e+00
1.02862516e+00
1.03044084e+00
1.02399005e+00
1.02470958e+00
1.02680642e+00
1.02751802e+00
1.02723616e+00
1.02451760e+00
1.02473752e+00
1.02531763e+00
1.02567692e+00
1.02805767e+00
1.02342096e+00
1.02251912e+00
1.02459882e+00
1.02831037e+00
1.02718809e+00
1.02214586e+00
1.02288324e+00
1.02265567e+00
1.02510550e+00
1.02956679e+00
1.02305965e+00
1.02122943e+00
1.02217710e+00
1.02506173e+00
1.02680643e+00
1.02480450e+00
1.02113997e+00
1.02257089e+00
1.02349219e+00
1.02645310e+00
1.02334093e+00
1.02198039e+00
1.02406424e+00
1.02320080e+00
1.02221747e+00
1.02160927e+00
1.02425488e+00
1.02331179e+00
1.02296455e+00
1.02253236e+00
1.02109437e+00
1.01909023e+00
1.02022864e+00
1.02388467e+00
1.02630648e+00
1.02199567e+00
1.01774589e+00
1.01858869e+00
1.02074557e+00
1.02332756e+00
1.02222186e+00
1.02032766e+00
1.01990098e+00
1.01909326e+00
1.01987197e+00
1.01883631e+00
1.06115913e+00
1.05847629e+00
1.03864363e+00
1.05147031e+00
1.05582412e+00
1.04556512e+00
1.04759918e+00
1.05223574e+00
1.03938021e+00
1.04541172e+00
1.05158549e+00
1.03693776e+00
1.04897918e+00
1.04230390e+00
1.04240732e+00
1.03980009e+00
1.03906543e+00
1.04646097e+00
1.03371628e+00
1.03642100e+00
1.04382761e+00
1.03511154e+00
1.03584160e+00
1.03881872e+00
1.03160607e+00
1.04087550e+00
1.03424023e+00
1.02801261e+00
1.03834739e+00
1.03497560e+00
1.02937431e+00
1.03911739e+00
1.03051291e+00
1.03224117e+00
1.03592143e+00
1.02988132e+00
1.03445193e+00
1.03143172e+00
1.03811568e+00
1.03418368e+00
1.02708562e+00
1.03097318e+00
1.03514953e+00
1.03540418e+00
1.02744869e+00
1.03054806e+00
1.03378760e+00
1.03147731e+00
1.02876822e+00
1.03176661e+00
1.03469287e+00
1.02976811e+00
1.02985738e+00
1.02917782e+00
1.02938269e+00
1.03561566e+00
1.02830518e+00
1.02541286e+00
1.03023393e+00
1.03116232e+00
1.02794121e+00
1.02239603e+00
1.02766123e+00
1.03021095e+00
1.02714172e+00
1.02820815e+00
1.02197091e+00
1.02408029e+00
1.02817298e+00
1.02795812e+00
1.02400888e+00
1.02458930e+00
1.02504425e+00
1.02626846e+00
1.02629377e+00
1.02553424e+00
1.02246103e+00
1.02456316e+00
1.02398365e+00
1.02748450e+00
1.02432361e+00
1.02123518e+00
1.02366811e+00
1.02665126e+00
1.02403515e+00
1.02438677e+00
1.02427011e+00
1.02018195e+00
1.02548871e+00
1.02602676e+00
1.02443487e+00
1.02440980e+00
1.02315171e+00
1.02546869e+00
1.02171879e+00
1.02091943e+00
1.02349832e+00
1.02275229e+00
1.02470571e+00
1.02520632e+00
1.02020456e+00
1.02130277e+00
1.02317246e+00
1.02670422e+00
1.02533248e+00
1.01955192e+00
1.01809782e+00
1.02218235e+00
1.02718889e+00
1.02599724e+00
1.02039705e+00
1.01820212e+00
1.01981236e+00
1.02461506e+00
1.02264755e+00
1.02167904e+00
1.02200856e+00
1.02281784e+00
1.02171238e+00
1.01932017e+00
1.01877124e+00
1.02101031e+00
1.02227556e+00
1.02401310e+00
1.02088964e+00
1.01667887e+00
1.01586235e+00
1.01838599e+00
1.05138063e+00
1.04984950e+00
1.05443233e+00
1.04945782e+00
1.04146533e+00
1.05308655e+00
1.05421461e+00
1.04297817e+00
1.04653249e+00
1.04995014e+00
1.04422016e+00
1.04286509e+00
1.04470106e+00
1.04598429e+00
1.04620696e+00
1.03688108e+00
1.04620027e+00
1.03552871e+00
1.03792035e+00
1.04807246e+00
1.03381584e+00
1.03505557e+00
1.04500358e+00
1.03597514e+00
1.03343361e+00
1.03877140e+00
1.03348667e+00
1.03810904e+00
1.03927515e+00
1.03009425e+00
1.03250899e+00
1.03833737e+00
1.03004760e+00
1.03312535e+00
1.03035600e+00
1.03404422e+00
1.04182663e+00
1.03154814e+00
1.02884814e+00
1.02803480e+00
1.03456989e+00
1.03883655e+00
1.02968254e+00
1.02864474e+00
1.02838139e+00
1.03544898e+00
1.03493556e+00
1.02839708e+00
1.02680101e+00
1.03226658e+00
1.03600627e+00
1.02725917e+00
1.02555021e+00
1.03355605e+00
1.03010814e+00
1.02652567e+00
1.03053739e+00
1.03126526e+00
1.02528255e+00
1.02968720e+00
1.02561397e+00
1.02816869e+00
1.02703021e+00
1.02967129e+00
1.02421484e+00
1.02435878e+00
1.03075843e+00
1.02620971e+00
1.02306465e+00
1.02857717e+00
1.02853394e+00
1.02636522e+00
1.02510852e+00
1.02355464e+00
1.02433524e+00
1.02871999e+00
1.02587290e+00
1.02656419e+00
1.02229974e+00
1.02266554e+00
1.02854755e+00
1.02721254e+00
1.02158838e+00
1.02394682e+00
1.02631790e+00
1.02496146e+00
1.02626401e+00
1.02538169e+00
1.02211709e+00
1.02138629e+00
1.02786838e+00
1.02704834e+00
1.02230072e+00
1.02370972e+00
1.02178528e+00
1.02504481e+00
1.02722889e+00
1.02326781e+00
1.02229668e+00
1.02333292e+00
1.02290162e+00
1.02475561e+00
1.02321215e+00
1.02451027e+00
1.02183500e+00
1.02172643e+00
1.02366171e+00
1.02371362e+00
1.02215058e+00
1.02259003e+00
1.02479267e+00
1.02366177e+00
1.01867772e+00
1.01908241e+00
1.02239705e+00
1.02443943e+00
1.02517241e+00
1.02212403e+00
1.01780853e+00
1.01729134e+00
1.01983106e+00
1.02598185e+00
1.02301375e+00
1.02043428e+00
1.01942153e+00
1.01904689e+00
1.01996482e+00
1.01851288e+00
1.03828827e+00
1.03750760e+00
1.05540037e+00
1.05124199e+00
1.04460999e+00
1.04936514e+00
1.04564854e+00
1.04624530e+00
1.05469040e+00
1.04074431e+00
1.03922921e+00
1.05525452e+00
1.03982312e+00
1.04277188e+00
1.04415369e+00
1.03915611e+00
1.04534099e+00
1.03731546e+00
1.04242979e+00
1.04106455e+00
1.03602002e+00
1.04110874e+00
1.03912119e+00
1.03580120e+00
1.03880545e+00
1.03228222e+00
1.03721093e+00
1.04261847e+00
1.02939982e+00
1.03598991e+00
1.03967578e+00
1.03102156e+00
1.03174081e+00
1.03963869e+00
1.03125213e+00
1.03337846e+00
1.03847177e+00
1.02807049e+00
1.03196841e+00
1.03473950e+00
1.03366696e+00
1.03192251e+00
1.02633808e+00
1.03460557e+00
1.03614290e+00
1.03343354e+00
1.02685125e+00
1.02900735e+00
1.03707215e+00
1.03262134e+00
1.02869493e+00
1.02913352e+00
1.03033669e+00
1.03132126e+00
1.03200267e+00
1.02978691e+00
1.02529216e+00
1.03282511e+00
1.02614763e+00
1.02895765e+00
1.02828958e+00
1.03167368e+00
1.02626160e+00
1.02514767e+00
1.03304416e+00
1.02478752e+00
1.02534901e+00
1.02710221e+00
1.02531858e+00
1.02744530e+00
1.02846396e+00
1.02452723e+00
1.02227320e+00
1.02706083e+00
1.02741818e+00
1.02667457e+00
1.02296889e+00
1.02209233e+00
1.02692882e+00
1.02612389e+00
1.02406460e+00
1.02548240e+00
1.02371174e+00
1.02360857e+00
1.02611487e+00
1.02700515e+00
1.02235044e+00
1.02547267e+00
1.02536904e+00
1.02162378e+00
1.02563391e+00
1.02560508e+00
1.02249503e+00
1.02510726e+00
1.02380094e+00
1.02343467e+00
1.02248155e+00
1.02448732e+00
1.02759409e+00
1.02256914e+00
1.01977859e+00
1.02164949e+00
1.02313740e+00
1.02577361e+00
1.02331446e+00
1.02106889e+00
1.02085519e+00
1.02209070e+00
1.02480575e+00
1.02337289e+00
1.02049939e+00
1.02030438e+00
1.02010493e+00
1.02109257e+00
1.02227265e+00
1.02327529e+00
1.02234470e+00
1.02065619e+00
1.02011375e+00
1.02015606e+00
1.01838598e+00
1.02054649e+00
1.02175503e+00
1.02285689e+00
1.02144708e+00
1.01752932e+00
1.01659961e+00
1.01946960e+00
1.04607438e+00
1.05075086e+00
1.04227556e+00
1.04347330e+00
1.05038455e+00
1.05129654e+00
1.04540175e+00
1.04685670e+00
1.04885204e+00
1.04752192e+00
1.04188658e+00
1.04938649e+00
1.04278319e+00
1.04470244e+00
1.04427988e+00
1.04248077e+00
1.03845750e+00
1.04326449e+00
1.04172125e+00
1.03959080e+00
1.04287465e+00
1.03995862e+00
1.03340056e+00
1.03637674e+00
1.04247479e+00
1.03554031e+00
1.03705745e+00
1.03532715e+00
1.03187414e+00
1.04102643e+00
1.03368353e+00
1.03457603e+00
1.03579992e+00
1.03222213e+00
1.03829103e+00
1.03509661e+00
1.03092696e+00
1.03468148e+00
1.03513512e+00
1.03016758e+00
1.03084936e+00
1.03398662e+00
1.03279292e+00
1.03708723e+00
1.02935530e+00
1.02870570e+00
1.03421655e+00
1.03419315e+00
1.03023680e+00
1.02685740e+00
1.03242668e+00
1.03285966e+00
1.03022869e+00
1.02830862e+00
1.02669401e+00
1.03494727e+00
1.02590321e+00
1.02731392e+00
1.02746078e+00
1.03053292e+00
1.03058796e+00
1.02570074e+00
1.02928946e+00
1.02267968e+00
1.02997653e+00