# vtk DataFile Version 2.0
LBM Flow Field - Timestep 1180
ASCII
DATASET STRUCTURED_POINTS
DIMENSIONS 128 128 1
ORIGIN 0.0 0.0 0.0
SPACING 1.0 1.0 1.0
POINT_DATA 16384
SCALARS density double 1
LOOKUP_TABLE default
1.32231713e+00
1.31271474e+00
1.30128838e+00
1.28984822e+00
1.27857932e+00
1.26728574e+00
1.25625636e+00
1.24519218e+00
1.23447907e+00
1.22372196e+00
1.21339497e+00
1.20301586e+00
1.19313651e+00
1.18319829e+00
1.17381871e+00
1.16437517e+00
1.15553734e+00
1.14663242e+00
1.13836778e+00
1.13003514e+00
1.12236456e+00
1.11462746e+00
1.10756146e+00
1.10043293e+00
1.09397230e+00
1.08745558e+00
1.08159216e+00
1.07568140e+00
1.07039913e+00
1.06508028e+00
1.06035629e+00
1.05560812e+00
1.05141403e+00
1.04720928e+00
1.04351242e+00
1.03981899e+00
1.03658364e+00
1.03336581e+00
1.03055438e+00
1.02777396e+00
1.02534806e+00
1.02296551e+00
1.02088687e+00
1.01886231e+00
1.01709359e+00
1.01538770e+00
1.01389310e+00
1.01246787e+00
1.01121366e+00
1.01003301e+00
1.00898784e+00
1.00801808e+00
1.00715323e+00
1.00636342e+00
1.00565286e+00
1.00501500e+00
1.00443543e+00
1.00392455e+00
1.00345533e+00
1.00304949e+00
1.00267249e+00
1.00235265e+00
1.00205213e+00
1.00180200e+00
1.00156439e+00
1.00137024e+00
1.00118395e+00
1.00103431e+00
1.00088954e+00
1.00077499e+00
1.00066349e+00
1.00057636e+00
1.00049129e+00
1.00042542e+00
1.00036114e+00
1.00031163e+00
1.00026354e+00
1.00022653e+00
1.00019092e+00
1.00016341e+00
1.00013730e+00
1.00011696e+00
1.00009801e+00
1.00008306e+00
1.00006945e+00
1.00005853e+00
1.00004885e+00
1.00004092e+00
1.00003410e+00
1.00002839e+00
1.00002362e+00
1.00001954e+00
1.00001624e+00
1.00001335e+00
1.00001108e+00
1.00000905e+00
1.00000750e+00
1.00000608e+00
1.00000503e+00
1.00000406e+00
1.00000335e+00
1.00000269e+00
1.00000221e+00
1.00000177e+00
1.00000145e+00
1.00000115e+00
1.00000094e+00
1.00000075e+00
1.00000061e+00
1.00000048e+00
1.00000039e+00
1.00000031e+00
1.00000024e+00
1.00000019e+00
1.00000015e+00
1.00000012e+00
1.00000010e+00
1.00000008e+00
1.00000006e+00
1.00000005e+00
1.00000004e+00
1.00000003e+00
1.00000002e+00
1.00000002e+00
1.00000002e+00
1.00000001e+00
1.00000001e+00
1.00000001e+00
8.04095906e+285
-1.69002783e+288
-2.30024942e+287
1.52670820e+288
5.18073796e+288
-1.20396582e+289
1.66619206e+289
-8.02318097e+287
-1.78282695e+288
-7.05534709e+288
9.66136775e+289
2.95845500e+290
8.46301216e+290
1.06239022e+291
4.23326749e+289
9.51536079e+290
4.06344057e+290
-4.33807360e+290
1.11052420e+292
-1.66966084e+292
-2.70268318e+292
8.68800307e+292
-1.21781502e+293
5.56978793e+292
-1.25897337e+293
1.02032905e+293
8.70880818e+292
3.85815011e+293
-3.62374122e+294
4.88228244e+294
-7.34544910e+294
1.58749391e+295
1.98091284e+294
8.29136311e+294
-4.23627062e+294
-1.37656486e+295
5.74316807e+295
-5.08585563e+295
2.30096010e+295
4.91114617e+294
-1.41151671e+295
2.42583589e+295
-8.42385184e+294
1.91790358e+295
-1.58890045e+295
-1.88078780e+295
2.07159357e+295
-7.39180205e+293
-4.08552339e+293
3.03974346e+294
1.95900462e+293
-3.67309702e+293
3.04005911e+294
4.82533378e+294
-5.18054402e+294
-2.04064153e+294
-1.02256393e+294
-5.73895077e+293
1.05101780e+294
-1.35068489e+294
1.16742655e+294
8.58958995e+292
2.62477104e+292
1.57172655e+291
-6.63047137e+291
2.40078730e+291
5.78845098e+290
1.41073840e+290
2.67071284e+290
-5.91413070e+290
1.73641191e+290
1.37093853e+290
1.05723406e+290
4.81572301e+289
6.48515265e+289
2.15791316e+289
1.94070275e+288
7.17057412e+287
-9.04987977e+287
-2.13232977e+287
-2.95438646e+287
-8.31567043e+286
5.71939599e+286
1.52064246e+285
1.66083558e+285
-1.68088606e+286
3.36697949e+285
2.50413236e+286
-8.15985255e+285
-4.18773505e+284
1.31440538e+285
2.93663887e+285
2.83268406e+285
1.95057837e+285
-1.62866829e+284
-7.21301305e+284
-1.81101469e+284
7.86429641e+283
-3.56227185e+283
-4.50586892e+283
2.80236577e+283
-1.52776712e+283
1.64486634e+281
1.07752042e+282
9.64181201e+281
1.82289671e+282
7.34742772e+281
1.58186162e+282
1.27723308e+282
-2.65391246e+280
-3.38946790e+281
1.00086554e+282
-7.80896195e+281
5.22671884e+280
-2.70051711e+280
3.14879352e+281
-7.91157382e+281
-4.46019840e+281
6.63778368e+280
-1.44073622e+281
1.41397280e+280
-1.20942674e+280
-4.71461010e+279
4.00658067e+279
-1.70473998e+280
-4.38498469e+280
-3.08635533e+280
8.22314226e+279
-1.21608300e+288
4.42884825e+288
1.72133745e+289
1.19856764e+289
2.89832301e+289
-4.28358149e+289
-8.73454316e+289
-2.30276363e+289
-1.41887938e+289
4.24190961e+289
-7.34088634e+289
-3.15376395e+290
9.99541091e+290
-4.03764803e+291
-3.84662709e+290
-3.14597328e+290
-2.46664278e+291
-1.25798405e+291
1.19229998e+292
3.01136330e+292
-6.40462270e+292
2.04673043e+292
4.69630205e+292
-5.78851863e+292
-1.01627514e+293
5.39603939e+293
-2.53270157e+294
1.79451839e+294
-8.75462203e+294
3.64305252e+294
-7.89950782e+294
1.03346183e+295
-2.60188779e+295
-2.45070193e+295
7.73222341e+293
-3.77486204e+295
1.06559905e+296
6.25309060e+294
-1.75143491e+295
9.57701572e+294
1.48637584e+295
-2.79306884e+295
1.58772214e+294
4.72212042e+295
1.14208057e+296
-1.22457669e+296
-4.65501649e+294
-9.38702436e+293
-8.89577856e+294
-8.23676632e+293
-6.92062212e+294
4.48831493e+294
-3.10871169e+294
6.74568469e+293
6.35064172e+293
3.91338964e+294
1.96951144e+294
-8.77573544e+294
-2.51739660e+294
-2.73950113e+294
1.48008996e+294
-1.04429505e+293
-2.98727654e+292
8.00675592e+292
-6.15764966e+291
1.25537479e+291
-1.75411155e+291
3.41789401e+290
-1.32123901e+290
8.25173863e+289
1.56758107e+290
-3.50364495e+289
-2.53942547e+290
-6.57524465e+289
-5.98930090e+289
2.97111748e+289
2.23115210e+289
2.13502515e+288
3.65333106e+287
3.00855742e+286
-6.98648793e+286
1.13775352e+288
9.87431875e+286
5.67375839e+286
1.39632133e+286
2.77920974e+286
-2.88833413e+286
6.28456181e+285
5.73102909e+284
-3.21951925e+284
8.98896030e+284
6.98938015e+284
-1.90099073e+285
-6.11468182e+284
1.78789257e+285
1.02692464e+285
-1.04008234e+284
-2.82688747e+284
-3.64212824e+284
-1.13941048e+284
-3.46569836e+284
-8.54910574e+283
-9.29320753e+282
9.69062901e+282
1.36833060e+282
-2.72049047e+282
-1.00454394e+282
-2.69981806e+282
-4.75918971e+282
-1.17940661e+282
-1.80876777e+281
6.07148088e+281
1.05317506e+282
8.06491296e+281
-1.22370550e+281
-6.08550384e+280
-2.17241047e+281
5.40836818e+281
-2.58846637e+281
-6.38436734e+280
5.88736576e+280
1.49841590e+280
-1.76102757e+279
9.09723869e+280
-4.14847501e+281
-5.48711304e+281
-6.43908089e+279
-1.58494743e+280
-3.10120575e+288
-1.84609505e+289
3.92137297e+289
-2.19556879e+289
-4.17298308e+289
1.25803854e+290
-8.39591953e+289
-6.27671849e+289
-6.04648370e+288
1.91228186e+290
2.95077385e+290
-6.81636104e+290
1.41175637e+291
1.53874998e+290
-4.16524806e+291
-7.86166653e+291
-1.38121000e+292
4.28729411e+291
-2.04363617e+291
4.53035712e+292
2.67168621e+291
1.23426498e+293
1.68056380e+293
1.03331562e+294
9.27541211e+293
9.28389203e+293
-2.47261454e+294
-1.38926768e+294
-4.41015211e+294
3.32165438e+295
-1.70865584e+295
-1.40543832e+295
6.65222079e+295
-1.84952522e+295
6.35874687e+295
3.76421289e+295
-8.17734432e+295
3.18180091e+295
1.87041284e+295
-3.17821004e+296
6.59917075e+296
5.52849345e+295
8.11425150e+295
-9.31704297e+295
1.51017496e+296
-7.15126564e+295
2.14596179e+293
-1.48200470e+293
6.97180269e+294
-2.28687147e+294
-1.14075865e+293
-9.22166145e+293
1.11287060e+295
1.87111827e+294
-2.98227022e+293
-5.69376638e+293
2.43520666e+294
-1.51214708e+294
1.43399463e+295
4.48729960e+293
9.79340534e+293
2.21966118e+293
-1.92983504e+293
1.42884164e+293
-9.52407196e+291
3.17685038e+291
-1.31302617e+290
9.84412487e+290
2.93780202e+291
2.17228759e+292
-3.85120721e+291
-9.20874689e+290
-3.37212023e+290
-5.50700591e+289
3.61715893e+288
-2.83305899e+289
4.86954495e+289
1.75756299e+289
-6.68299820e+287
2.73551075e+288
-2.76718041e+288
-2.40635166e+287
-5.63094246e+287
2.97725463e+287
1.51158966e+287
1.06752035e+286
-4.98151218e+286
2.00968460e+286
2.91941640e+285
-1.91133168e+285
2.25263197e+285
-8.26781139e+284
5.97291760e+283
5.37980622e+285
-2.59429794e+285
1.99009691e+284
5.54273441e+283
-1.00483478e+284
7.35464663e+284
2.20627518e+284
2.96128781e+284
-3.44687103e+284
-8.74580276e+283
2.18125051e+283
-3.01740690e+282
1.11434875e+282
-7.61067673e+282
-1.68223742e+282
7.15128411e+282
1.39124026e+282
2.20561788e+281
-1.24920301e+282
-1.21297593e+282
-7.52761376e+281
-3.22156080e+280
1.42215405e+281
4.66893591e+281
-8.47139090e+281
-2.66740949e+282
-3.84744686e+282
-4.05233831e+282
-5.76657983e+282
-2.96994060e+282
-2.38331799e+282
9.88675978e+281
-3.31140817e+281
-5.15497259e+280
1.11119001e+280
6.45268898e+288
-1.25159623e+289
4.44108478e+289
-1.04467448e+289
1.46705070e+290
3.47139848e+290
2.09350575e+290
-2.82971116e+290
1.16413415e+290
-8.22837825e+289
-2.29930507e+290
-1.27845919e+291
7.59977467e+290
-1.63892768e+291
8.18768352e+291
1.58823208e+291
7.79573448e+291
1.28725932e+292
-5.71243626e+291
-1.72166950e+292
-5.09970437e+292
-2.95803677e+293
-6.16841289e+292
-8.50858648e+293
-1.93471394e+294
-1.07972984e+296
-1.23444937e+297
-8.68238374e+296
-1.09513615e+297
-7.21699137e+295
8.49173878e+295
1.48157410e+296
5.50533136e+295
4.18885785e+295
-1.01927691e+296
-1.69744249e+296
7.07846833e+295
2.81817025e+294
8.49097006e+296
-2.12774695e+297
4.57417273e+296
-4.07936708e+296
3.94285569e+296
3.19917222e+296
6.54485385e+296
-1.83653108e+295
1.96982363e+294
-1.71783647e+295
-2.70954175e+294
3.00069787e+294
5.35699998e+294
-1.41852340e+295
-3.08956824e+294
-2.48775530e+295
4.77170153e+294
1.92588162e+294
-3.87640648e+294
8.97504628e+294
-6.57661214e+294
-4.14083059e+294
-4.70465849e+293
8.37237146e+293
-3.66308746e+293
5.89701958e+292
-6.64108945e+291
8.44957789e+291
-2.23978986e+291
4.68977024e+290
-6.00571995e+291
-3.60597967e+290
-5.10455104e+292
1.57236253e+292
-5.01367960e+291
-1.68611297e+291
-1.84804710e+291
2.71461078e+291
7.08545787e+290
1.43063937e+288
-2.56151881e+288
1.03007933e+289
-2.86125026e+288
8.36358445e+287
-8.41738352e+287
-1.10510987e+288
3.25883303e+286
9.47674344e+286
-5.09892378e+286
1.60595924e+287
-3.82528873e+286
-1.80151377e+284
-8.11160002e+284
-1.36819194e+286
-7.26324906e+285
-1.56224429e+285
-1.33106253e+285
9.13984606e+284
-4.58356361e+284
-1.38773364e+284
3.61941813e+284
-3.07075506e+284
1.50477994e+284
7.18511977e+284
1.55375664e+284
2.90670359e+283
-2.34245653e+282
6.46935586e+282
1.67370146e+283
-8.24067274e+281
-6.74249618e+282
-8.90963773e+281
-1.20330754e+282
3.02031847e+281
-9.45528657e+280
-1.28753630e+279
2.46301838e+282
-3.86670221e+280
-8.43549178e+281
-3.49186324e+282
2.62637996e+282
4.57005340e+282
4.84942170e+282
6.64577985e+282
2.87343064e+282
1.03060452e+282
-2.38531326e+281
-4.95939812e+281
-1.21864055e+281
2.75666245e+279
-4.45392298e+289
1.52255089e+289
5.10118111e+289
-4.40447383e+289
-2.92135716e+290
-2.09423541e+290
4.66153912e+289
1.10705425e+290
8.32504128e+290
4.22381278e+290
-1.63670564e+291
3.98165195e+291
-1.11749551e+291
-6.80013809e+290
8.59517267e+291
-2.82165768e+292
3.26868021e+292
-4.31744496e+291
-5.93351420e+292
4.77722482e+292
1.15794193e+293
4.36821441e+293
-4.60425498e+293
9.04957697e+293
4.04662047e+294
-2.47767422e+296
1.11914080e+297
1.69844391e+297
9.93490078e+296
-1.80883408e+296
-2.74727742e+295
-3.07570243e+296
-4.31655491e+295
3.99726555e+296
2.78907048e+296
-1.40400681e+296
7.75609051e+293
-1.34962579e+296
3.14817502e+296
-4.97621398e+296
3.96365001e+295
1.03371147e+297
-1.47946888e+297
-9.00035402e+295
-7.01829360e+296
2.90646166e+296
-7.91672715e+294
4.80245543e+294
-1.24205514e+294
-2.49650101e+294
8.54216584e+293
1.24295104e+295
2.41653369e+295
2.38940431e+295
-1.39957340e+294
-3.81487014e+294
8.18089166e+293
2.57489302e+294
2.89951960e+294
5.74043789e+293
-8.32923383e+293
-4.71376429e+293
-4.92962180e+293
6.71870127e+292
4.56769546e+292
5.11384628e+291
-2.06368815e+290
3.75344852e+291
-1.64291615e+291
1.15135537e+292
-5.07154365e+291
1.10049061e+292
6.80074301e+291
5.54143516e+291
-1.93014816e+291
-6.64014454e+291
5.23926380e+291
7.77704021e+289
-1.75623891e+288
-5.18625855e+288
-2.71394127e+288
4.00387991e+288
-2.16838557e+288
6.60068290e+287
2.46513205e+287
5.71667326e+287
2.47626408e+287
-7.43966467e+286
-5.47299141e+285
2.13006967e+286
-3.15821935e+286
-2.83344439e+286
2.46549335e+287
4.32510333e+285
1.06075668e+286
-7.40768358e+285
3.97568842e+285
-1.98015125e+285
6.05032301e+284
-1.28073867e+284
-2.59074785e+284
-2.87184894e+284
-1.42003390e+284
-2.93589052e+283
1.52968068e+283
-6.76896056e+282
-6.55098813e+281
4.16845658e+282
8.14984203e+281
6.72237375e+281
-3.86913115e+282
8.55424695e+281
7.41276229e+281
-1.51775113e+282
-3.44861734e+282
1.58598001e+282
1.26496882e+282
1.67463417e+282
-2.78591809e+281
-1.98581042e+282
-2.84053907e+281
-1.88254127e+282
-1.67613147e+282
-9.31678729e+281
4.70335652e+282
2.28409392e+281
-5.62363538e+281
6.25624278e+280
-4.84017895e+289
-2.19530052e+290
-8.43701451e+288
-2.52035866e+290
2.65535522e+290
1.36943888e+290
7.57649692e+290
-7.74327623e+290
-2.12611886e+291
8.56970425e+290
1.67317726e+291
4.75591674e+291
2.16958796e+290
-5.91948827e+290
9.52793391e+290
-4.68158358e+290
1.34679481e+292
1.21563379e+293
-2.70363214e+293
-2.10928453e+292
7.46111350e+292
3.48624331e+293
-1.48985519e+294
-5.11511023e+294
1.23845830e+294
5.58692583e+296
3.09988716e+296
-1.66411452e+297
3.55069731e+296
5.03605536e+296
3.12919606e+295
2.85057354e+296
-2.35158782e+296
-1.10593725e+297
7.02598793e+296
-3.66546737e+296
1.43955133e+296
-5.79692087e+294
3.05934355e+296
2.75899668e+296
-2.19527741e+296
2.86207556e+297
-6.24467477e+297
3.67037462e+297
-4.60649503e+295
-1.74235430e+296
-3.78386581e+295
1.59075704e+294
-3.30017074e+293
3.36785542e+294
-2.45050909e+294
7.53783108e+291
-2.12134171e+295
-4.39210636e+294
-5.43562179e+294
-5.69445997e+294
3.95673079e+295
6.02909870e+294
-7.92013866e+294
1.97950639e+294
4.22279748e+294
2.94519692e+293
1.96535616e+293
-3.24065989e+292
2.61742399e+292
-1.17573855e+292
-2.38327200e+291
-1.33716732e+291
1.15406863e+291
-1.67164760e+291
2.68736108e+291
-1.36135735e+292
8.50973713e+291
-4.76599875e+291
5.55510820e+291
-2.99836678e+291
1.20301159e+291
2.06303147e+290
9.44493852e+288
-1.50534921e+289
-1.21726970e+288
1.15239165e+289
5.12505105e+287
-4.60297192e+288
-3.07143260e+288
3.46072171e+287
1.16831342e+287
-9.70593366e+286
2.30324854e+287
-1.33472747e+287
2.73415935e+287
-7.63414639e+287
2.23212907e+287
-9.38760385e+285
-3.95214348e+285
-3.51205191e+285
2.50675181e+285
-7.26808775e+284
-2.18982309e+284
1.42554387e+284
-6.77407511e+283
6.30112047e+283
1.43011617e+284
1.69987763e+283
-1.01619724e+283
8.04207384e+281
-5.26752433e+282
6.44913705e+282
1.49972037e+284
8.30389575e+283
9.57948918e+282
2.29442450e+282
4.07093657e+282
-2.48102487e+282
3.21007022e+281
-1.63322923e+283
1.29864786e+282
1.87188914e+281
-3.49521893e+282
-9.95059995e+282
5.58587583e+282
-1.63079386e+282
7.44303211e+283
1.90550981e+282
5.81725971e+282
3.63563988e+282
7.27501043e+281
3.39234460e+281
4.43891795e+289
2.31536987e+290
3.23197983e+290
-2.98072607e+290
-4.43662470e+289
-5.37341416e+290
-1.31660478e+291
5.51891568e+290
-1.03753191e+291
-6.50395904e+290
-1.03877042e+292
6.78719251e+290
-1.09714715e+291
-3.11772769e+291
7.21434238e+290
2.80883827e+293
-2.55741920e+293
-1.53279888e+294
-1.38468543e+293
-5.13703700e+291
4.78845452e+292
-3.21863468e+292
1.50123910e+294
3.73240542e+294
3.43646121e+294
-1.43763037e+296
9.72211607e+296
1.79099646e+297
9.82355863e+296
-3.73270580e+296
2.74909917e+296
-2.13271772e+296
1.01246291e+296
1.06752119e+296
2.17862241e+296
-7.83408567e+295
5.60793617e+296
-3.84442522e+296
-2.07295566e+297
-4.94545917e+296
-2.64510873e+295
9.27006537e+296
-2.55138730e+297
5.47505523e+296
-7.80415088e+295
-1.41112679e+296
4.05798541e+295
2.22569389e+295
-5.30218061e+294
-2.75794288e+293
-1.80305122e+294
6.01782910e+293
-1.23050671e+294
1.68465808e+296
-2.99087579e+295
-2.46108937e+295
1.59383213e+295
-1.04221341e+296
9.16906443e+294
-3.56995645e+294
-9.46042155e+294
-1.59541564e+294
5.67873613e+292
-1.03151631e+292
1.05795823e+292
5.26343083e+291
-1.89667249e+289
-4.50412940e+291
-1.45357173e+291
-2.40574142e+291
9.38296744e+291
-2.55691974e+292
4.89360076e+292
-3.12885112e+292
-9.71718473e+290
-4.20684568e+291
1.51240620e+291
-2.04394234e+290
-4.70544572e+288
3.17791904e+289
-3.83632626e+289
4.15856880e+289
-4.97937197e+288
6.62007740e+288
-3.91802492e+288
8.43247082e+286
2.39732498e+287
3.28952221e+287
1.35756642e+287
-1.88129154e+287
2.45886297e+287
-5.02906866e+286
-3.21529046e+286
6.83588760e+283
1.74968180e+285
2.57099680e+285
1.72099037e+285
-1.99709370e+285
1.78538316e+285
1.22043780e+285
7.14081871e+284
1.08173546e+284
2.44739583e+283
-8.50831396e+283
2.19254660e+284
8.76672896e+283
1.02709288e+283
-5.69652216e+283
-3.32883152e+284
-7.87310884e+283
-5.97525137e+282
1.21329813e+283
-7.20971479e+282
-1.76835777e+282
3.68839614e+282
5.22654913e+282
1.97227143e+282
-9.33182431e+282
-3.31527945e+283
-1.17533475e+284
2.69878715e+283
-4.37170001e+283
-1.06528173e+284
1.22202172e+283
-7.27901544e+282
2.92389369e+282
-5.37265339e+282
5.26591195e+281
-4.79076011e+289
-7.61395052e+289
-3.33754195e+289
-2.67090063e+289
-5.82913231e+289
3.37086188e+290
-9.32855809e+290
2.99580464e+289
-2.75665013e+290
4.07541894e+291
-1.06180184e+291
-5.20211206e+291
4.32841982e+291
7.20674842e+292
9.57998581e+292
-9.65132023e+293
5.31249442e+294
-7.53205428e+293
8.72107848e+293
-8.55566587e+293
2.15963191e+293
1.10433947e+293
2.68257563e+293
1.30600763e+294
2.53399038e+294
-8.67593248e+295
-1.05945684e+297
-9.52671493e+296
-1.35970370e+297
-8.57929674e+296
1.87978826e+297
-9.14702411e+296
-2.40804946e+295
-8.31590233e+294
-7.72688664e+294
-2.09237361e+296
-8.50030675e+296
6.37237815e+297
6.08093036e+296
1.48949700e+297
5.88001942e+296
7.80100121e+296
1.43978875e+297
-7.85133584e+295
7.43731723e+296
-3.93510911e+296
-6.43065561e+295
-1.02109218e+295
5.93088364e+294
3.01329330e+295
4.09878191e+294
-7.29276337e+293
-1.37873884e+294
1.65996453e+296
-5.73298155e+296
1.70812475e+296
-7.07548930e+294
1.68001895e+295
4.00964704e+295
3.13335416e+294
4.23071550e+294
1.89380914e+294
9.69792288e+292
1.91912692e+292
-6.22341606e+291
5.80708304e+291
-1.28939758e+292
-6.75321644e+290
2.24853961e+291
-2.66547967e+292
-3.14632134e+292
-2.21859498e+292
9.81802788e+291
5.03554539e+291
1.17189121e+292
6.64140921e+291
6.49350807e+291
-1.58790995e+290
2.77860250e+290
-1.54644100e+289
-5.21508349e+289
2.91392676e+289
-1.28551816e+289
-8.76196044e+287
4.40765535e+288
-2.20393843e+288
-1.13302634e+288
-1.67803953e+287
-6.19761314e+287
-5.44681906e+287
8.36729822e+287
2.13877745e+287
-1.23840336e+286
-4.90502144e+285
-3.89204994e+285
-3.86972665e+285
1.54593441e+285
-1.26822010e+285
1.82369883e+284
-8.99090752e+284
-8.95934192e+284
-1.24019343e+283
5.57286130e+284
-2.04524656e+284
-3.39601941e+284
5.81239651e+282
8.91923977e+283
8.46016094e+283
1.17220755e+284
5.60700452e+282
-8.57008941e+282
-5.97774050e+282
-1.86126316e+281
1.34644187e+283
3.84197903e+282
8.93632615e+282
-5.24957148e+282
-1.70781624e+283
5.48931415e+283
2.33067658e+284
-1.81326933e+284
8.07300392e+283
-6.60372632e+283
8.47505630e+283
-7.19615314e+283
-1.86855511e+282
2.59721892e+282
-5.35943647e+281
4.72468276e+289
4.22922684e+289
-3.46144122e+290
6.92000710e+291
9.13694108e+291
-6.79000044e+290
-9.92615756e+290
5.65011196e+291
-3.07901136e+291
-3.16940408e+291
1.98111452e+292
-8.24738115e+292
1.47755334e+292
-6.79488478e+291
-9.22365652e+292
-1.67391007e+294
-4.65494452e+293
1.58394303e+294
-3.47228676e+294
-1.57732325e+294
1.70162003e+294
-1.33619372e+294
-9.94462254e+293
-2.26530743e+294
9.01580285e+293
6.60114047e+294
-1.01122077e+296
-4.95090078e+295
1.41323988e+296
-2.87846012e+296
3.83616508e+296
-7.07730770e+297
9.10080386e+297
-2.90104752e+297
-6.08169129e+295
2.17595336e+296
-2.19569405e+297
-1.32693731e+297
-2.53838808e+297
-2.04673700e+297
-6.36233135e+296
-1.63602644e+297
-5.55210608e+296
6.62879152e+295
-2.61265465e+296
1.10873187e+296
1.45126323e+296
1.55314013e+295
-1.48588247e+295
-3.97331858e+295
2.68330770e+295
2.03094909e+294
1.94946948e+294
-2.22931367e+295
-2.33717717e+295
1.66208561e+296
8.09026448e+293
-3.60123920e+294
-6.22320532e+294
-4.53362814e+293
-1.87965254e+294
-1.30925762e+293
-1.00622329e+293
1.22201921e+292
-9.53016285e+291
1.49417416e+292
3.46329505e+291
-4.55205261e+291
2.93556518e+290
2.52984462e+292
3.94663723e+292
4.72270447e+292
-2.06685732e+292
-1.64130879e+293
-1.92398378e+293
1.07705883e+292
-1.95123080e+292
2.61469127e+290
3.78777468e+290
-3.52490046e+290
7.60705421e+290
-1.23544341e+290
2.73788014e+289
2.24782893e+289
3.47764700e+288
-5.55976607e+288
7.61795486e+287
1.28834087e+288
3.81122736e+287
-9.05725142e+287
-1.98259587e+288
1.86104400e+288
-2.17480711e+286
-1.75230339e+287
1.93072696e+286
2.73954244e+286
8.92341297e+284
-1.12330503e+285
7.96407854e+284
9.24687400e+284
3.31388132e+284
-5.42525312e+284
-1.18191502e+285
7.06741672e+284
7.63442405e+284
4.21571936e+284
-3.38493927e+284
2.99244245e+284
-1.47083396e+284
1.05037336e+284
-2.39968799e+283
4.26725422e+282
1.03947994e+282
-2.96373697e+283
6.67812723e+283
-3.76003621e+283
2.16012047e+283
1.28948017e+284
-1.02308767e+284
2.78625868e+283
-5.02936157e+283
5.95393482e+283
-9.01903973e+283
7.59851061e+283
2.06757744e+283
-6.11770701e+281
-2.12595721e+282
1.69250299e+282
4.07179534e+289
-1.19108452e+290
4.53187035e+289
-7.17307348e+290
-2.63735362e+292
-3.37876597e+291
-8.04530936e+291
7.58881708e+291
-3.40124309e+292
-1.25295950e+292
6.94788731e+292
-1.50474928e+293
2.01750390e+293
-1.04239553e+292
-4.61246000e+293
-6.18693693e+293
-1.26354697e+293
7.56134882e+293
-2.04861114e+293
7.63462708e+294
-3.51439819e+294
9.61872420e+293
5.41087049e+293
7.73768110e+293
-6.00403578e+293
1.49136424e+295
-1.75550904e+295
-6.37904949e+295
-5.49848665e+295
-2.81372458e+296
2.62961117e+296
-1.88072130e+298
3.85543852e+298
-1.85548653e+298
-1.98828806e+296
8.90425391e+296
-6.60114895e+295
3.22319974e+296
1.85972363e+297
-2.63459301e+296
5.52576321e+296
1.31883896e+297
-8.42351703e+296
5.89741696e+296
-7.23137276e+296
3.38379892e+296
-6.72769987e+295
-1.52050275e+294
5.26363933e+295
-2.13348906e+295
1.53592383e+295
8.44143302e+293
1.61660904e+294
1.46749712e+294
-4.53747861e+294
-3.06956301e+293
8.15072401e+294
-4.61603244e+293
2.90329333e+294
7.92222319e+294
6.94854243e+293
2.01445995e+293
7.76694446e+292
2.77277759e+292
-3.98084417e+292
-5.78313503e+292
3.78628653e+292
-3.34511532e+292
5.02182515e+292
2.02043559e+292
-1.94395953e+292
2.10752099e+292
2.85949475e+292
5.32673075e+292
5.13588885e+293
5.83416361e+292
1.59882086e+291
2.24369824e+291
-2.39332955e+290
-1.68317173e+291
3.13199711e+291
-1.69079055e+291
-8.08216416e+289
5.18865950e+288
8.73038930e+288
-2.18430548e+289
8.09788968e+286
1.04000632e+289
1.02772605e+288
1.05098712e+289
4.80665879e+288
2.06622055e+288
1.87449767e+287
-3.48775958e+287
6.25971097e+287
-1.68982972e+287
-1.46933434e+285
-1.02138802e+286
-7.89353328e+285
1.09697536e+285
-9.86518180e+284
3.07758019e+285
-1.62861051e+285
3.97162879e+284
1.27349837e+284
-2.79506146e+285
-7.65352430e+285
5.78247829e+284
-4.25410236e+284
5.70834093e+283
-1.27768423e+284
-2.26795042e+283
6.13073328e+283
-4.63008994e+283
3.70631432e+283
-1.56061375e+283
-1.37765254e+284
1.54598394e+284
2.10037355e+284
-2.72854790e+284
8.54740709e+283
1.70705750e+284
-3.61152537e+283
-5.31230882e+283
-3.38014928e+283
1.96317631e+283
3.64308459e+283
-3.37049859e+282
3.04807189e+289
-7.87683119e+289
1.16157966e+290
-1.34658659e+291
1.16907262e+292
1.02363267e+292
6.58245434e+291
3.99986188e+292
1.14641751e+293
8.00146094e+292
1.30812338e+293
-8.59368390e+292
9.83374115e+292
-2.16251934e+293
2.77845133e+293
7.14780752e+293
9.18415266e+293
5.70550223e+293
-1.20365262e+294
-5.52946677e+294
-1.20214249e+294
1.94105656e+294
-4.46169673e+294
8.54645987e+293
-1.10272383e+294
4.86445018e+294
6.08131732e+295
1.07168454e+296
4.42195056e+295
-6.11789501e+295
-2.21577578e+296
-3.21233443e+297
9.45313960e+297
-6.96527271e+297
-4.22399272e+296
3.32029692e+295
1.33867471e+296
-4.37205189e+296
6.99195990e+295
8.55128574e+296
9.35281654e+295
4.02158386e+295
1.82345798e+296
-4.43065484e+295
-1.25680529e+296
1.21479066e+296
4.24830419e+295
-6.65181450e+295
-1.39689458e+295
1.78200465e+295
-4.36704369e+294
-8.36062841e+294
1.49308605e+295
-5.31967782e+294
-4.81044233e+294
-1.86746735e+294
-2.77841454e+294
-3.05775052e+294
3.73378258e+294
-8.62133385e+294
-1.24423037e+294
2.46212568e+293
1.13869164e+293
7.06563896e+293
1.98508755e+293
2.41401047e+293
-3.07143452e+293
2.40021361e+292
-1.11444430e+293
6.66430276e+292
1.37647477e+291
1.50754180e+292
-1.30596867e+293
9.43066369e+292
-1.96733000e+293
-1.47785792e+293
1.14870010e+292
-1.05139069e+292
7.87030476e+291
-1.02540823e+291
4.98381893e+290
-5.29894340e+290
2.68074929e+290
-1.99532430e+289
2.77051530e+289
8.68968485e+288
-1.34169859e+289
-1.78787290e+289
-4.09426857e+288
-2.46732757e+289
-8.27173353e+287
5.55653876e+287
-3.00820690e+288
7.94239661e+287
2.72563054e+286
-1.80652121e+287
1.19764454e+286
7.71198428e+285
-1.92908452e+285
7.19784753e+285
-2.58719854e+285
4.87173354e+285
-1.18717751e+286
8.14541465e+285
3.85569020e+284
2.28501848e+286
-2.65234044e+285
1.94492661e+284
-8.83843495e+283
9.29263653e+283
4.58759276e+283
2.92504330e+283
-4.32127370e+283
-3.26933799e+282
-3.48978824e+283
-2.13104932e+284
-8.26438338e+283
-1.34812223e+284
7.32307300e+283
-1.34595188e+284
-3.08527011e+283
1.64401592e+284
6.48787628e+283
1.41002410e+284
-2.40965295e+284
-1.20380783e+284
1.31985037e+283
2.96880505e+281
-4.92684363e+289
1.24304300e+290
-4.80091205e+289
1.04968322e+291
1.70583516e+291
9.94377082e+291
6.39522824e+291
-2.78921414e+292
-1.01698757e+293
-2.46456115e+293
7.18661618e+292
-1.52592625e+293
2.01803480e+293
-9.53603964e+292
1.00374087e+293
2.48265662e+292
8.72703284e+293
-2.46026023e+294
1.54527340e+294
6.15135678e+293
1.33097950e+293
-1.88326304e+295
-9.57457250e+294
-1.94346456e+294
2.16609375e+293
-1.52148284e+295
-1.62978867e+295
3.88251727e+294
2.67376017e+295
1.00749463e+296
9.44800130e+295
-1.05935045e+297
-5.12089600e+296
-1.54978296e+297
-3.66168604e+295
3.99462588e+296
8.29013564e+296
1.73174662e+296
-3.25813518e+296
1.53435043e+296
-2.87555997e+296
-2.40280211e+296
-9.07867343e+295
-1.39648686e+296
3.87240596e+295
-1.56126049e+296
2.46340428e+295
6.89536982e+295
1.98636198e+296
6.24247454e+295
3.47348525e+295
-1.88534111e+295
-5.93146518e+295
-1.88160321e+295
-1.53966812e+295
8.79331112e+294
3.85760402e+293
-3.89025573e+294
-3.19450255e+294
-1.15107950e+294
3.36365831e+294
-3.31274307e+293
-5.51064079e+293
-3.38519665e+293
-9.59358965e+292
-2.04448859e+293
-2.23024246e+292
3.79501914e+293
-1.38898491e+293
2.71418417e+293
1.12769282e+294
6.73874209e+293
1.54528158e+293
3.72904438e+293
-1.95661707e+293
-3.90591068e+292
4.56280917e+292
-1.16276112e+292
3.27004765e+291
-9.09633902e+290
-4.78454172e+290
-3.86525386e+291
-2.27336982e+291
-7.60897569e+290
-3.52594282e+290
-2.84283930e+289
2.55369748e+288
-1.60691637e+289
2.77133647e+287
3.06994308e+288
-1.09830336e+288
-7.59693605e+287
6.53190245e+286
8.82732988e+287
1.82345559e+286
2.35080351e+286
-1.28926522e+286
1.31102184e+286
-7.50988135e+286
-8.91028706e+285
1.35424579e+286
-5.04169024e+285
3.01226890e+285
-1.36030516e+286
3.51299001e+283
-3.50982178e+285
-7.61416233e+283
-1.02370570e+285
-1.29536776e+285
-5.37068168e+284
-1.25585495e+284
4.40451070e+283
4.20404431e+283
2.00497378e+283
-4.26769159e+283
5.74124954e+284
1.33409093e+284
3.74974486e+283
-9.47721587e+283
-4.60930075e+283
-1.98538127e+283
7.86040262e+283
-1.70986661e+284
9.62271615e+283
-3.27176908e+283
1.25084428e+284
2.68572295e+283
2.80116641e+282
-3.11474893e+290
-4.35063311e+290
1.47258779e+291
-2.13892572e+292
1.48886333e+293
3.51065749e+293
1.60210072e+294
-3.11722120e+293
3.80813765e+293
1.09741779e+293
1.23813496e+294
-2.03949418e+293
1.51213760e+294
-9.88035860e+293
-9.59811299e+293
-2.96101793e+294
-1.96075139e+294
-1.07273962e+294
-2.34765033e+294
-4.80324231e+294
4.74118289e+294
4.65555737e+295
9.81125456e+294
-4.73419613e+294
3.23933380e+294
-3.63943249e+294
-2.33343143e+294
-3.69570861e+294
5.50305480e+294
1.05129454e+295
1.20956885e+296
4.23976442e+296
1.52243092e+297
1.94982970e+297
-1.12001915e+297
-1.06423343e+296
-1.25200475e+297
3.22509649e+296
4.04780909e+296
-5.31431686e+296
1.24629716e+296
4.63248331e+296
-2.61696187e+296
3.37877814e+296
1.63251594e+296
1.25444538e+296
-1.41220433e+296
9.43810042e+295
-1.48155497e+296
-1.99555732e+296
6.94975707e+295
-1.07158132e+296
1.88692204e+296
3.31850097e+294
3.87632633e+295
1.07710860e+295
9.57949070e+293
8.85224737e+294
1.56006835e+294
-1.08981203e+295
5.80304913e+294
-3.43635684e+293
1.84563190e+294
1.06521513e+294
-3.88811394e+293
1.21644921e+293
8.63268195e+291
3.45891470e+292
-2.60414676e+292
-5.68221895e+293
-2.30029568e+294
-8.53894667e+293
-3.30780145e+293
-1.21743736e+293
-9.13476299e+292
6.34664334e+292
-2.48527467e+293
-2.03409261e+293
1.19240975e+291
1.06154820e+291
7.78339833e+291
2.70593512e+290
2.11558567e+291
6.41999510e+291
-3.23658665e+291
-1.61366779e+289
6.98984623e+289
-5.06688612e+289
1.50067884e+288
-2.86295330e+288
1.63606462e+288
-3.75639739e+287
-1.44752410e+287
-7.91127550e+286
-3.18797273e+286
2.94702337e+287
2.73507449e+287
5.15461642e+286
1.17913120e+287
-1.21556245e+287
-6.64275674e+285
-9.55739879e+285
-5.97327581e+285
-4.46411872e+285
-3.69892482e+285
1.27970536e+285
2.43440623e+285
4.06337133e+285
-1.63407250e+285
-2.69829461e+284
-2.36242160e+284
9.14733330e+284
-3.12634836e+284
7.80181277e+284
-5.45246405e+283
-1.79545726e+284
-2.36850794e+284
-6.15181406e+284
-4.21224009e+284
-7.39700510e+283
1.50762562e+283
-1.60070982e+284
-4.10118834e+284
2.00279345e+283
4.67564361e+283
-3.20885500e+283
-3.51422412e+283
-1.20118560e+283
6.68780221e+290
1.87380597e+291
-3.83111007e+290
-1.94442541e+293
-1.79312030e+292
-1.11071929e+294
-1.19247689e+294
-4.36211812e+293
1.68832987e+294
-1.09714136e+294
-2.13922893e+294
8.38921383e+293
1.44848251e+294
-2.45743607e+294
9.08328634e+293
4.16652991e+294
4.29936393e+294
4.49019185e+294
-3.65877983e+294
6.80893392e+294
-1.07335862e+295
-1.82929949e+295
-3.52415910e+294
-4.64998835e+294