# vtk DataFile Version 2.0
LBM Flow Field - Timestep 820
ASCII
DATASET STRUCTURED_POINTS
DIMENSIONS 128 128 1
ORIGIN 0.0 0.0 0.0
SPACING 1.0 1.0 1.0
POINT_DATA 16384
SCALARS density double 1
LOOKUP_TABLE default
1.32077149e+00
1.30927879e+00
1.29554213e+00
1.28194977e+00
1.26841806e+00
1.25513890e+00
1.24195838e+00
1.22912195e+00
1.21642806e+00
1.20414964e+00
1.19206277e+00
1.18044056e+00
1.16906252e+00
1.15817569e+00
1.14758719e+00
1.13749474e+00
1.12775394e+00
1.11849450e+00
1.10963660e+00
1.10122900e+00
1.09326690e+00
1.08571147e+00
1.07863734e+00
1.07191782e+00
1.06570537e+00
1.05979121e+00
1.05439864e+00
1.04924757e+00
1.04462074e+00
1.04018143e+00
1.03625728e+00
1.03247203e+00
1.02918184e+00
1.02598907e+00
1.02326160e+00
1.02059808e+00
1.01836226e+00
1.01616512e+00
1.01435234e+00
1.01256066e+00
1.01110653e+00
1.00966265e+00
1.00850830e+00
1.00735874e+00
1.00645153e+00
1.00554767e+00
1.00484157e+00
1.00413995e+00
1.00359551e+00
1.00305801e+00
1.00264199e+00
1.00223575e+00
1.00192065e+00
1.00161780e+00
1.00138123e+00
1.00115857e+00
1.00098252e+00
1.00082108e+00
1.00069125e+00
1.00057581e+00
1.00048098e+00
1.00039954e+00
1.00033097e+00
1.00027426e+00
1.00022524e+00
1.00018622e+00
1.00015159e+00
1.00012504e+00
1.00010090e+00
1.00008302e+00
1.00006643e+00
1.00005449e+00
1.00004326e+00
1.00003534e+00
1.00002787e+00
1.00002265e+00
1.00001776e+00
1.00001434e+00
1.00001120e+00
1.00000897e+00
1.00000698e+00
1.00000554e+00
1.00000431e+00
1.00000338e+00
1.00000263e+00
1.00000204e+00
1.00000158e+00
1.00000121e+00
1.00000094e+00
1.00000071e+00
1.00000055e+00
1.00000042e+00
1.00000032e+00
1.00000024e+00
1.00000018e+00
1.00000014e+00
1.00000010e+00
1.00000008e+00
1.00000006e+00
1.00000004e+00
1.00000003e+00
1.00000002e+00
1.00000002e+00
1.00000001e+00
1.00000001e+00
1.00000001e+00
1.00000000e+00
1.00000000e+00
1.00000000e+00
1.00000000e+00
1.00000000e+00
1.00000000e+00
1.00000000e+00
1.00000000e+00
1.00000000e+00
1.00000000e+00
1.00000000e+00
1.00000000e+00
1.00000000e+00
1.00000000e+00
1.00000000e+00
1.00000000e+00
1.00000000e+00
1.00000000e+00
1.00000000e+00
1.00000000e+00
1.00000000e+00
1.00000000e+00
1.47087535e+23
4.25461288e+23
1.90833614e+23
1.37607794e+22
-3.54786203e+22
-5.20830661e+22
1.90054235e+23
-4.68103965e+23
5.44817988e+23
-1.89383683e+24
-1.69549660e+23
-3.55152582e+24
-3.28380449e+24
3.55346358e+24
-5.10255073e+26
6.83521195e+25
-7.40104717e+26
1.35127183e+27
3.05329049e+27
3.92817403e+27
7.27049192e+27
6.71522111e+27
1.04296571e+28
1.78828856e+27
3.78115233e+27
-1.62873826e+28
-7.44715242e+28
-7.96335462e+28
-1.17436408e+29
-1.49759039e+29
-2.38915809e+29
-3.01919659e+29
-3.58266672e+29
2.15648577e+29
8.11825099e+30
-1.46412995e+30
-2.54204921e+30
5.95996368e+30
1.58538119e+30
9.87678570e+31
-1.81238085e+31
-3.36468484e+31
-1.60521637e+32
1.80906261e+32
3.61662556e+31
1.02416732e+30
2.55773166e+31
-4.84294625e+31
-3.09210313e+32
2.36324654e+31
-6.39708905e+31
-2.26233129e+31
-3.74083055e+31
-1.71783186e+31
-3.58930766e+30
-3.29382949e+29
-2.94902977e+30
-2.31527530e+30
-3.18337905e+30
-2.69066215e+30
-3.82773285e+30
-3.06460029e+30
-2.67234271e+30
-2.10522979e+30
-1.50918312e+30
-8.51706034e+29
-3.92121106e+29
-5.24141821e+29
1.74991580e+28
-1.34750102e+31
2.87449256e+31
-1.52386721e+31
1.42416012e+28
-1.13235719e+28
-2.46854746e+27
-1.06205968e+27
-5.64822797e+26
-3.11845356e+26
7.01946133e+25
1.26198773e+26
3.69223244e+25
-6.35280787e+25
-4.59198159e+24
-3.06414839e+24
-8.86888855e+23
-8.77656926e+22
-2.79917295e+22
-3.59374707e+22
1.94478871e+22
1.32255779e+23
-2.74399963e+23
1.35079171e+23
3.05254514e+20
-7.26592160e+20
-9.97821041e+19
-7.28109049e+19
-2.72186485e+19
-6.59267728e+18
-4.19733721e+18
-2.61098896e+18
1.17405790e+18
4.52396392e+16
1.75482712e+16
1.42273814e+15
-1.43106658e+15
6.42973534e+14
2.38108951e+14
3.45477237e+13
-7.02099645e+13
3.11097457e+12
7.23506361e+10
-2.44265893e+10
-1.13177645e+09
2.91032851e+07
1.88672342e+06
2.84163492e+05
1.22584571e+04
-2.46620518e+04
-2.03810602e+03
1.02603764e+00
1.00880202e+00
1.01015473e+00
1.02608427e+00
1.01729122e+00
1.00509461e+00
1.01504895e+00
1.02179860e+00
1.01335124e+00
-3.00355713e+23
-4.36237212e+23
-4.95703387e+22
2.12149618e+23
5.08535237e+22
5.09238589e+23
-6.24642832e+23
-1.45189652e+24
-1.04742869e+24
-1.98962017e+25
-2.89285307e+25
4.06652895e+25
-3.70926604e+25
-4.50630956e+25
1.02634359e+27
1.00231966e+27
4.73145281e+27
4.49164827e+28
1.99937185e+29
3.56257445e+29
2.48160151e+28
1.44035078e+30
-1.43296623e+30
5.43515212e+29
-1.38071171e+30
5.17098601e+29
-2.10661918e+30
2.19694631e+28
2.05695411e+30
-7.53685525e+29
-2.57486432e+30
-1.67489505e+30
-2.85644732e+30
-4.82293951e+30
-3.54169941e+29
-2.78846235e+31
5.05674957e+30
-5.27905795e+31
-3.25997862e+31
1.50180061e+32
-2.30916524e+32
1.67920111e+32
-2.01731800e+32
-9.71526023e+31
-1.23423892e+32
-3.58749165e+31
-1.95609022e+32
9.49063983e+31
1.90148113e+32
-2.54959720e+32
-9.83954583e+32
5.38533424e+31
-2.58356543e+32
-9.61793298e+31
-3.94895244e+31
-8.11920782e+30
2.33873517e+30
6.52952073e+30
4.32508194e+30
8.77684982e+30
7.17193667e+30
1.88482081e+31
-2.37395128e+31
1.49665776e+31
-3.25167122e+31
4.02970396e+31
-1.75983520e+31
4.15618077e+28
5.76858677e+30
-5.85561797e+31
1.13431723e+32
-5.76888854e+31
1.04151860e+29
-1.03392951e+28
-1.78463600e+28
-2.92857335e+27
-2.07844595e+27
-7.87850187e+26
-1.95358326e+26
9.75558549e+25
2.68057947e+26
1.11500352e+26
-8.77190469e+25
3.70511061e+24
-2.06445266e+24
1.49822021e+23
-4.48443331e+22
-5.39614782e+22
-1.45218828e+22
5.71155412e+22
-6.71749178e+22
2.20413663e+22
3.47358993e+19
4.65300010e+20
3.14676181e+20
6.44214537e+19
-7.34718140e+19
1.43208766e+19
9.08418932e+18
-4.18023151e+18
3.57435418e+18
-9.78813927e+16
-1.59863526e+16
1.44489761e+16
-7.76295076e+15
-7.59254842e+14
-8.25640638e+13
1.63941701e+14
-3.87150283e+13
9.68258322e+11
2.17608118e+12
-3.08288896e+10
-9.94509513e+08
-2.93222085e+07
3.23655643e+06
5.46166620e+05
3.11985942e+04
-4.56815529e+04
-3.86691517e+03
1.02653874e+00
1.02472317e+00
1.00618383e+00
1.01178143e+00
1.02447716e+00
1.01686583e+00
1.00581089e+00
1.01730614e+00
1.02428848e+00
-1.08766243e+23
1.06009412e+23
-3.52016156e+23
3.10422331e+23
1.32348492e+24
5.35860517e+23
-1.95002121e+25
-8.48327929e+25
-1.41733667e+25
-1.40311796e+26
-9.54923859e+25
4.81993432e+22
2.95058682e+26
4.21258381e+26
2.56842817e+26
-2.81963012e+24
6.09996973e+28
7.24258177e+28
3.28237309e+29
-3.62543397e+29
-1.03470831e+30
1.57984265e+30
-2.92125524e+30
1.66593473e+30
-1.91883153e+31
-9.52603557e+30
-1.91418904e+31
1.48143329e+31
-1.42781195e+31
7.49813527e+30
-3.83247530e+30
-4.66371346e+30
-1.09812886e+31
2.98495452e+30
1.72269772e+31
3.05204873e+31
1.35766704e+31
5.66827956e+31
-2.68236407e+30
1.65647937e+32
-2.22725725e+32
1.83773319e+32
4.03309267e+33
1.11571622e+33
-5.81324785e+31
1.97341323e+32
1.94682994e+32
-1.67012848e+33
-1.65050622e+33
1.31565578e+33
1.73017502e+30
3.70853240e+32
5.35164594e+32
1.94376767e+32
-5.00668071e+31
-4.38744254e+31
-2.81922644e+31
-3.66311560e+31
-4.79750061e+31
-6.42769155e+31
-1.11115671e+32
-1.32774892e+32
-2.18015882e+32
-1.52930722e+32
-1.59261791e+32
8.72019456e+31
-4.90719811e+31
-8.70219092e+30
-1.85815242e+31
-2.48253349e+31
-8.11023648e+30
-1.76170070e+31
1.88835039e+29
1.09553371e+29
3.62925887e+28
-2.88621752e+27
1.22841753e+27
2.67054042e+25
7.98923413e+25
-2.22275397e+26
6.08963604e+26
1.04450876e+26
-3.25017054e+24
4.85162269e+24
-3.69275388e+24
5.37661768e+23
3.85044009e+22
1.47772660e+23
1.40803591e+22
1.05036086e+22
8.33200228e+20
3.72227091e+21
1.95671398e+21
4.82159238e+20
3.71640981e+20
4.13712534e+20
4.89108044e+19
-1.21017422e+20
1.62905451e+19
8.38304518e+15
1.51560914e+18
-8.68327914e+16
1.26869550e+15
1.60749075e+16
-3.33542291e+15
1.25686846e+15
-1.44510610e+15
1.68764301e+13
-1.58831710e+13
5.96147788e+12
-1.63878971e+12
-5.76208244e+10
-2.34411906e+09
4.98730906e+07
5.35744698e+06
8.76291000e+05
5.19123482e+04
-7.07656985e+04
-5.98563786e+03
1.01144943e+00
1.02218978e+00
1.02066823e+00
1.00950413e+00
1.01197251e+00
1.02025174e+00
1.01527412e+00
1.00857720e+00
1.01697109e+00
4.80195091e+21
7.68726668e+23
1.25727253e+24
1.16221167e+24
2.40640933e+24
3.67700648e+24
-1.19380957e+26
1.48026604e+25
4.76024936e+26
-3.78823134e+26
-5.75637526e+26
6.58903580e+26
7.40959207e+26
-3.24246176e+26
-1.88489800e+27
3.67218216e+28
1.47756400e+29
-4.64312789e+29
1.32424917e+30
-6.89807209e+29
7.38945180e+30
-2.98084301e+30
-1.78847653e+31
-8.00381631e+31
-1.55485638e+31
1.41707788e+32
3.23918006e+31
1.21500143e+32
-2.62243481e+32
-8.62094396e+31
-2.96540474e+31
-4.54155715e+31
-1.12544692e+32
-1.41589874e+32
-4.41462232e+33
6.70950866e+33
-5.02124953e+33
5.66848234e+33
-8.30356873e+33
-6.11949933e+32
-4.00719322e+33
-3.44290669e+33
-1.05996253e+34
-3.48145821e+33
-1.33517303e+33
-2.37828716e+33
-2.06650382e+33
-2.36812091e+33
7.16970513e+33
-3.69651859e+33
-4.47637337e+33
2.87333569e+33
1.77392702e+33
1.67280513e+33
1.95361690e+33
6.26652717e+32
3.99182461e+32
3.57514315e+32
1.62680197e+32
-1.30414741e+32
-2.22035388e+32
-1.33258941e+33
-4.73905500e+32
3.88988423e+31
-8.52461131e+32
-2.13077417e+32
-4.59679591e+32
-1.98771360e+31
-2.09727272e+32
-3.84381204e+31
1.04511354e+32
-2.52033363e+31
-2.29809831e+30
6.31736147e+30
-2.31644634e+30
-2.75591993e+29
5.35831016e+28
1.00304030e+28
-7.12214954e+27
-1.77046384e+27
2.09123107e+26
2.29406062e+26
3.55436629e+25
2.78220987e+25
1.87663553e+24
-5.87767442e+23
-3.31251007e+23
2.15610697e+23
1.42863000e+23
6.29825116e+22
-1.52677872e+22
-6.55819054e+21
2.80273077e+20
-2.68215750e+20
-1.42646469e+21
-1.56397972e+20
6.74833187e+19
-1.34295144e+20
5.29697373e+18
5.03993042e+18
-1.79692680e+18
-5.64675361e+16
-9.64106600e+15
1.52213863e+16
-8.62368476e+14
1.22093525e+15
-3.04258085e+14
8.71093838e+13
4.56396516e+13
-4.10489029e+12
-5.78759589e+11
-3.72366334e+10
-4.19451526e+08
-2.79861413e+07
7.42637083e+06
1.31804069e+06
7.62642927e+04
-1.03513055e+05
-8.62707762e+03
1.00981396e+00
1.01392717e+00
1.02259412e+00
1.01742244e+00
1.01038737e+00
1.01463913e+00
1.01790315e+00
1.01216697e+00
1.00642515e+00
7.23586057e+23
4.95852340e+23
-2.06010476e+24
-5.34213334e+24
-2.10975393e+25
-7.70188184e+25
-5.50561396e+25
3.21149967e+26
-4.53001230e+27
5.37295869e+27
1.18596399e+28
9.72695814e+27
1.84694025e+28
2.33284907e+28
-4.67633493e+28
1.36524751e+29
-3.14449193e+29
-1.11500883e+30
1.05934675e+29
5.50918941e+30
-7.22555040e+30
-1.51852059e+31
1.00118113e+31
-2.67423746e+31
8.39263022e+31
2.10296045e+32
-3.47215061e+32
-5.95662921e+32
-8.91546449e+32
-3.90051592e+33
1.19737038e+34
-2.03299938e+32
1.95608505e+33
-8.16439768e+33
-5.15974445e+33
1.94220294e+34
-7.86347661e+33
1.23371954e+34
-7.86838501e+33
-4.06644910e+33
7.98486733e+33
6.18715194e+33
6.82044258e+33
2.72479203e+33
-5.43466603e+33
1.59760183e+33
-1.10377133e+33
5.09793528e+33
1.17515854e+33
3.04894042e+34
-1.15235159e+34
-4.87540281e+33
-3.25124545e+33
-3.08036497e+33
-1.03100037e+32
2.35390707e+33
-1.26221231e+33
2.26212001e+33
-3.27738459e+33
-7.86461689e+33
-5.36904865e+33
-7.18871304e+33
6.19546544e+32
2.31778193e+33
7.31015688e+33
-1.79106815e+33
-8.57337137e+33
-1.41508583e+33
-1.36069085e+33
1.51173972e+33
1.19525348e+32
-5.05801932e+31
-7.81670751e+30
3.37841194e+31
-1.12242338e+31
6.05570914e+29
4.87367553e+29
1.15687705e+29
2.23826956e+28
3.82140952e+27
4.42981123e+26
9.93938842e+26
1.18047577e+26
3.29999135e+24
1.49050537e+26
3.37334773e+25
-6.92072099e+24
-4.02182720e+24
-1.53189635e+24
-2.71701148e+23
-1.66796812e+23
-6.33041075e+22
-1.89113428e+21
-8.84371074e+21
7.03719768e+20
-2.65287286e+20
1.36519620e+20
-1.78742374e+20
-1.72530554e+19
2.20573160e+19
1.68567795e+17
-4.27151471e+16
-2.50902445e+16
9.55814615e+15
5.46623368e+15
-6.82771540e+14
7.99035946e+13
2.14140158e+13
2.49853011e+10
1.36529276e+11
1.04889776e+10
-4.80910962e+10
-1.98439564e+09
4.61476385e+07
1.10223326e+07
1.93312397e+06
1.08432360e+05
-1.47894823e+05
-1.20503229e+04
1.01669568e+00
1.00992498e+00
1.01726555e+00
1.02120808e+00
1.01498771e+00
1.01155265e+00
1.01334302e+00
1.01542458e+00
1.01205903e+00
3.07219237e+24
6.96387134e+24
9.02967347e+24
1.29381461e+25
1.37736478e+26
6.22437262e+26
3.08804478e+27
-1.17347214e+26
-1.21175769e+28
-2.66427896e+28
-7.13283389e+28
-1.15040263e+29
-1.57551968e+29
1.60092881e+29
-1.44110432e+29
-9.36398000e+29
-2.61747728e+30
-4.39421994e+32
-6.61247088e+33
-5.86097651e+33
-2.81481457e+33
6.11581387e+32
1.11828839e+33
-5.18464113e+32
-9.33665223e+32
-4.01574629e+32
-1.28879711e+34
-1.02621313e+35
-5.29246201e+34
1.41822609e+35
6.83056990e+35
5.27411672e+35
9.27285868e+35
5.20354761e+35
1.49704519e+34
-7.16709406e+34
-8.44383024e+34
-1.15928530e+35
-2.22862305e+35
3.91693236e+34
5.46760950e+34
2.50841540e+34
-7.72954508e+32
-2.47794139e+34
-3.61291547e+34
-1.13902467e+34
-1.75865647e+34
2.27674616e+34
-1.44466438e+34
-1.46940367e+34
-2.09248451e+34
-2.30552700e+34
-1.84249532e+34
-3.03442676e+34
-5.86417666e+34
7.59934081e+34
-8.92214760e+33
9.51972785e+33
2.11265797e+34
3.97687301e+36
-6.49409285e+36
2.68643276e+36
-8.49616419e+34
-3.65397934e+34
1.96252497e+33
5.74742287e+34
4.04136071e+34
-1.02716609e+34
7.30737119e+33
8.49667056e+33
1.56209718e+33
2.68502966e+31
2.32789122e+31
1.55754727e+31
8.30632053e+30
1.20535603e+31
2.22376335e+30
5.29995536e+29
1.56004492e+29
3.61018271e+28
3.46564154e+27
1.23961908e+27
4.95397568e+26
-2.73968015e+26
-2.46874640e+26
2.97672741e+26
-8.41512220e+24
-8.57171662e+24
-1.45305482e+25
-3.17486072e+24
-1.42066772e+23
-4.32526139e+22
2.76092680e+22
-7.63562746e+21
7.13113869e+20
1.15089001e+21
3.18256815e+20
-3.83719181e+20
2.17661989e+17
2.09030163e+19
3.55990423e+18
3.05646966e+17
-9.31888984e+15
1.83689873e+16
3.44309699e+15
-1.27555994e+15
1.47611150e+13
7.66999466e+12
-1.41474564e+12
2.77501967e+11
6.16663751e+09
-1.26639530e+10
5.11759768e+09
1.24543020e+07
1.55538096e+07
2.80453097e+06
1.52593159e+05
-2.09285455e+05
-1.66203402e+04
1.02778543e+00
1.01588156e+00
1.00892583e+00
1.01683340e+00
1.02162428e+00
1.01369711e+00
1.01268585e+00
1.01542473e+00
1.01568680e+00
3.51634882e+25
9.63818842e+25
2.53042636e+26
6.98772356e+26
2.18714161e+27
4.24489535e+27
-2.49085988e+26
-1.64363450e+28
-4.72924190e+28
-8.66408758e+28
-2.30029637e+29
-8.28945556e+29
-2.11272912e+30
3.05047818e+29
-5.32411327e+30
2.21581645e+30
6.73497775e+30
-6.87296315e+33
4.18699779e+33
1.23495511e+34
-1.57424431e+34
1.49993039e+35
8.19970241e+34
-2.16010853e+34
2.58875638e+32
4.36057267e+33
1.87387598e+35
1.60531275e+36
3.02167418e+36
4.78386457e+36
-5.07050183e+36
-2.26156289e+35
-1.36330466e+36
7.60693072e+34
1.06196959e+35
6.10392174e+35
1.29059718e+34
1.27459476e+36
2.07297609e+35
-4.61783859e+35
-4.42633079e+35
-3.55326750e+35
2.70234881e+35
3.93829937e+35
-1.16885719e+34
5.30708719e+35
-2.30997076e+35
3.56338060e+35
-1.75807710e+35
1.56225567e+35
8.02651137e+34
7.58406751e+34
5.30093063e+34
-1.28012988e+35
1.88022506e+35
-7.84940000e+34
1.18197467e+35
-1.00684587e+35
2.88419618e+35
1.31974275e+37
-2.59287974e+37
1.32632687e+37
2.19840823e+35
-1.26250301e+35
-2.86612465e+34
-8.61598434e+34
1.37159309e+34
7.73650515e+34
-8.80740210e+34
1.21830846e+33
5.04624691e+33
-2.84594328e+31
2.83852755e+31
-7.61601093e+31
-4.24953754e+31
-2.25581751e+31
-9.72138367e+30
-1.49251389e+30
-1.47548813e+29
8.13262248e+28
3.13264742e+28
2.60538967e+27
-5.79061017e+24
-5.83805470e+25
-7.75330204e+25
4.11293047e+26
1.22379795e+25
5.84020048e+24
1.68945354e+25
-1.07462365e+25
-4.05510899e+24
1.12142736e+23
-3.98757015e+22
-3.81480330e+21
-5.70201257e+21
8.03537163e+19
5.76788454e+20
-2.32803823e+20
-8.57070424e+18
-1.08297084e+19
9.40450923e+18
-6.89029264e+16
3.30915059e+16
1.49305243e+16
-7.50491039e+14
-1.18381995e+15
-8.43038969e+13
-2.35183067e+13
2.44095271e+12
-2.79423517e+12
-5.43209202e+10
-5.15865721e+10
-9.62239946e+09
9.65738788e+07
2.20801219e+07
4.05057460e+06
2.14037404e+05
-2.94860608e+05
-2.27962705e+04
1.01343831e+00
1.02202732e+00
1.01570245e+00
1.01172143e+00
1.01800967e+00
1.01559604e+00
1.01125670e+00
1.01547796e+00
1.01943567e+00
2.56863508e+26
6.09183735e+26
1.42882577e+27
3.25376007e+27
5.40282507e+27
-2.97903240e+27
-3.04384786e+28
-1.72530042e+28
1.60314617e+29
6.90899339e+28
9.60331059e+29
-1.83424950e+29
1.28095568e+31
4.84452249e+30
2.86335222e+30
7.73532811e+30
-1.74996131e+31
-1.18572893e+34
1.27348605e+34
-2.39290667e+33
-3.44322238e+34
-4.52223524e+35
8.26600727e+34
2.35207626e+34
-2.44208122e+33
1.59375014e+35
9.50190281e+35
-6.50317086e+36
1.23900594e+36
4.88646958e+36
5.89225159e+36
-1.11474262e+37
9.14104718e+36
1.05688825e+36
-1.58397081e+35
8.59627771e+35
-4.72003181e+35
1.18944222e+36
7.94026987e+36
1.85555682e+36
1.18354531e+36
-4.85888212e+36
1.11064890e+35
-2.08164663e+35
-4.92648044e+35
-2.27832562e+36
-2.28045627e+36
-6.64972048e+35
8.16624983e+34
-7.37914138e+35
-2.77101089e+35
4.03486983e+35
1.27476498e+36
1.59846222e+35
1.17868594e+35
6.21305949e+35
1.52849850e+36
-1.99232082e+36
-7.58491113e+36
-1.93387327e+36
-9.42597523e+36
4.11622562e+36
-9.53170587e+34
4.47840378e+34
5.76491109e+34
-6.02921457e+34
3.13081204e+34
-1.51808708e+37
1.51327424e+38
1.30745403e+38
8.32002301e+33
-1.07499016e+34
8.79022639e+33
-5.34881160e+33
4.19244398e+33
1.46912958e+33
6.34319332e+31
-1.35523372e+31
-5.99792463e+30
-9.76165843e+29
2.47527596e+28
2.81793387e+28
3.20011131e+27
1.14356833e+28
5.98474944e+27
-2.10386803e+27
-5.61455430e+27
-7.11606827e+26
-1.09455690e+26
-2.49701839e+25
-1.47118084e+25
2.26075362e+24
-1.52321608e+23
-2.20414175e+22
-3.63123753e+21
-2.53370727e+20
1.48261399e+21
1.49000053e+19
-2.90726046e+19
-6.82472316e+18
7.50908014e+18
-9.10526652e+16
6.01392555e+16
6.03216145e+16
-3.62339257e+15
-2.59292090e+15
9.31890388e+13
-1.32289913e+13
7.26059424e+12
-3.20800350e+12
1.67909067e+11
1.32895061e+10
3.76850606e+09
7.30443473e+07
3.07752406e+07
3.83430795e+06
-2.65934595e+05
-4.14698888e+05
-3.12092991e+04
1.00863962e+00
1.01397600e+00
1.02040996e+00
1.01403449e+00
1.01275356e+00
1.02007628e+00
1.01719843e+00
1.00795158e+00
1.01313970e+00
1.08710813e+27
1.84226414e+27
3.90962109e+27
8.13468879e+27
8.83442720e+27
-3.39599313e+28
-7.35679626e+28
-1.14373542e+29
-8.07205852e+29
-8.76092304e+30
1.94397544e+31
-3.68388123e+31
2.61542913e+31
-8.97589458e+30
-2.86059367e+31
1.70007391e+32
2.20377853e+32
-5.88019697e+33
1.02241448e+34
-1.36147672e+34
1.71847659e+35
2.86823502e+35
2.09848196e+35
2.16456680e+35
5.81937959e+35
-8.46611000e+34
3.23027812e+35
-1.53541538e+37
1.57017694e+37
-6.31934502e+36
-3.86600154e+36
-2.60287407e+36
-1.28691652e+37
7.56297627e+36
-8.94013046e+36
-9.82046957e+36
-1.40768008e+37
-8.14917402e+36
-2.10325868e+37
-5.26065828e+36
1.26077390e+37
-1.84188586e+36
-6.01966335e+36
1.07359151e+37
-6.00975026e+36
-1.15775502e+37
-4.53328738e+36
-8.60600909e+36
-5.37096433e+36
4.23244208e+36
-3.14813001e+35
-9.98782794e+35
-2.32543075e+36
-8.72877096e+35
2.03809265e+35
-9.98408709e+35
-6.87403792e+35
-9.79892520e+36
1.23563147e+37
8.34970238e+36
6.60526898e+35
3.36112844e+36
1.83871883e+36
2.06818234e+35
-2.68947368e+35
-4.32715014e+35
-7.80777311e+34
-3.52835413e+37
-4.62719579e+38
-3.57027878e+37
-4.37943011e+34
-3.00434226e+33
-4.37249532e+32
5.91807185e+32
2.76577585e+33
7.73061312e+33
1.66527387e+33
1.37522531e+31
-8.77662048e+30
-8.86174675e+30
-1.35994495e+30
-2.58226263e+29
-3.09387367e+28
-2.80833962e+28
2.24139454e+27
4.22681067e+27
6.06531713e+27
-2.99190678e+27
1.84796727e+26
7.21228441e+25
-2.41775871e+25
-3.41829264e+24
-2.20830341e+23
-7.18029752e+22
-1.75599464e+22
-1.84724040e+21
9.28379883e+20
3.83004070e+20
-1.25053575e+20
-1.59879576e+19
1.01809642e+19
3.81825891e+17
2.21358373e+17
7.29458597e+16
-2.22389100e+15
2.15465377e+15
-3.88909381e+14
-2.06714489e+12
5.17333177e+12
-3.58865247e+12
3.57765956e+11
-3.21348490e+09
5.82392779e+08
1.44301647e+08
4.40835126e+07
9.19439207e+06
-6.93294071e+05
-5.82559334e+05
-4.26989411e+04
1.02011781e+00
1.01100646e+00
1.01727639e+00
1.02200255e+00
1.01111047e+00
1.01133055e+00
1.02107142e+00
1.01564228e+00
1.00738961e+00
-1.95729291e+27
4.62795975e+27
3.22611139e+27
-5.95837367e+27
4.20078563e+28
-1.70791349e+29
4.34048876e+30
2.99738914e+29
-4.68798451e+30
-4.04001743e+31
7.00065878e+31
6.92421665e+30
-7.90094747e+30
-5.55480342e+31
3.20215082e+32
6.08749414e+32
-3.38455612e+33
-6.03326120e+33
7.17226698e+33
-1.26468872e+34
-1.09391498e+35
1.82709237e+33
-5.28737838e+35
-5.13537557e+35
-6.58698742e+35
9.40148818e+35
-2.61115555e+36
-6.37294685e+36
-5.07949825e+35
7.93840813e+36
-5.78975484e+36
4.97605048e+36
-1.12341630e+37
1.94541178e+35
7.81341104e+36
1.29478425e+37
2.35293089e+37
7.76572442e+37
3.61012480e+36
2.27931077e+38
5.66663599e+37
1.43258261e+38
2.21281526e+37
8.19129741e+37
5.93130716e+37
1.37040239e+38
4.99642817e+37
7.20947220e+37
3.90817942e+36
2.66286859e+36
1.60866482e+36
-2.18086797e+35
1.61469884e+36
-6.66026065e+35
1.04907238e+36
1.21597743e+36
6.13402075e+35
1.46101518e+36
3.35718673e+36
-1.14229870e+37
4.08030333e+36
-1.21039147e+36
-1.17141414e+35
-2.80281682e+36
2.65786875e+36
5.26599107e+35
-8.93743145e+35
1.32612335e+38
1.49743165e+38
-1.42802010e+37
1.43247414e+34
4.63268706e+34
-2.34457648e+34
3.49002771e+33
-3.01419027e+34
-9.97996333e+33
1.13089193e+34
1.03909535e+32
2.47057243e+30
-1.46390952e+31
-1.21143705e+31
-1.86854669e+30
-1.48685854e+29
5.89844636e+28
1.10313813e+28
-5.86270444e+27
1.29846510e+27
1.23316333e+27
-5.26621485e+26
2.79642001e+26
-6.58179175e+24
3.73246866e+24
-5.73986125e+23
-2.24579797e+23
-4.93748599e+22
-9.88559975e+21
-1.92638928e+21
2.08463567e+20
-1.60668565e+19
-5.36496376e+19
5.53711327e+18
-3.25941532e+18
1.19740764e+17
1.06262907e+17
2.24275632e+16
1.54544100e+15
-5.61013734e+14
6.29742880e+13
2.58599901e+12
-4.72353378e+12
6.15812415e+11
3.39391563e+10
1.29848482e+09
1.51228418e+08
6.96070239e+07
9.84709023e+06
-1.41543653e+06
-8.17741582e+05
-5.84086817e+04
1.02633784e+00
1.02008391e+00
1.00923181e+00
1.01763986e+00
1.02000888e+00
1.01236845e+00
1.01400302e+00
1.02155043e+00
1.01704423e+00
1.69135651e+28
1.04683367e+29
2.29603181e+29
1.01385148e+30
1.57643374e+30
2.33813644e+30
1.21219485e+31
2.37132286e+30
5.03900563e+31
-1.11728683e+32
-1.64561697e+34
3.32606698e+34
-1.67290268e+34
3.27748689e+32
-4.02054257e+32
1.50838444e+33
1.07254350e+34
2.11612684e+34
-8.21256746e+34
-1.37051301e+35
-3.41009407e+35
-1.58561190e+36
-5.95265557e+36
-7.22987217e+36
-1.00052059e+37
-9.88902206e+36
-6.92371171e+36
-1.02724371e+37
-4.14061945e+36
1.26939836e+37
-9.64599776e+35
-3.20324477e+37
-4.81723432e+37
1.13921864e+36
3.87065399e+37
4.61244783e+37
-6.38950805e+37
-9.17341200e+37
-3.92720368e+38
-7.52052306e+38
-1.66155957e+38
-1.98758368e+38
-5.03371284e+38
3.84975678e+38
-1.21574299e+39
-6.20908861e+39
-2.72756042e+39
-9.05091786e+39
-3.38708466e+39
-1.89167943e+38
4.16940527e+35
5.53292126e+36
2.99421591e+37
9.78051934e+36
1.70535062e+37
3.88806709e+36
-1.40895372e+36
1.63778938e+36
6.67789400e+36
6.36899738e+36
1.15511503e+37
-1.04176052e+37
3.25314224e+36
6.31982117e+37
3.02483633e+37
3.63360190e+37
-2.32634932e+36
-1.59529711e+36
-4.11854056e+35
8.88524539e+35
1.41907161e+34
-3.21556017e+35
3.37055211e+35
-3.31969791e+33
-1.57849278e+34
-9.58323053e+33
1.37856555e+34
1.95599440e+32
5.98420682e+31
8.20941545e+31
-9.28536644e+29
4.39180621e+30
2.42496624e+30
7.12748817e+29
1.40367401e+29
1.53993089e+28
-4.44468305e+26
2.26049335e+27
6.29412626e+26
-5.15528875e+26
-2.56694050e+25
3.03749766e+24
7.09709331e+22
6.71532419e+22
-1.93669310e+23
-4.55960942e+22
-6.22679829e+21
-9.06269946e+20
-2.80188022e+20
-6.47786895e+19
-2.73715775e+18
2.64537706e+18
-5.41907988e+17
1.91232257e+17
1.26104395e+16
-1.66546219e+16
1.00113874e+15
3.12192604e+14
6.54365336e+11
-2.09729554e+12
1.14837523e+12
-7.14033022e+10
-1.45355343e+10
1.22254586e+08
1.00192718e+08
1.63117835e+07
-2.26358571e+06
-1.14700903e+06
-7.98902280e+04
9.91086959e-01
1.02041347e+00
1.01787684e+00
1.01438847e+00
1.02001518e+00
1.01874686e+00
1.00823854e+00
1.01564933e+00
1.02700687e+00
2.93534616e+29
1.11576470e+30
2.22766595e+30
4.18657006e+30
6.55779251e+30
6.84281787e+30
1.40847395e+31
-1.57117023e+32
-4.63683028e+32
-6.06001301e+32
-6.57013614e+34
1.33086305e+35
-6.76611920e+34
-2.89632599e+33
2.61051802e+32
3.60111428e+33
-3.52102526e+33
-3.06857506e+33
-4.92130071e+35
3.13689740e+37
1.20517404e+37
-7.64098614e+36
4.47455778e+36
8.23588234e+36
9.31593899e+36
1.25402291e+37
-4.82734672e+37
-3.85072095e+37
3.81761355e+37
-5.64769786e+37
-1.37535490e+37
1.63486951e+37
9.57611765e+37
-1.53972561e+36
6.21754200e+38
4.62244906e+39
3.45006562e+38
4.99905650e+39
-2.18666845e+39
-5.61763557e+38
-9.80230488e+38
-2.66818913e+39
-1.12691462e+39
2.00730908e+39
-2.52175902e+39
7.61124481e+39
7.97604540e+39
8.57202023e+39
6.15205599e+38
-3.07715826e+39
-8.09274964e+36
4.73433026e+36
-2.96076270e+37
-2.37516654e+37
-1.71804851e+37
-5.09203726e+36
-3.62604867e+36
8.38812764e+35
-1.20570434e+37
-2.66509155e+37
1.77227286e+37
-2.68478533e+37
-2.98966654e+37
2.79211590e+38
-5.56278229e+38
-3.78506106e+37
6.35737972e+37
1.26217689e+37
2.66645790e+36
1.00618804e+36
9.30384197e+35
-1.64959783e+36
3.68065618e+35
1.16323264e+35
-1.50519269e+35
-2.50655187e+34
1.09089373e+34
9.29830614e+32
4.88411363e+31
-9.10990021e+31
-6.56081181e+31
1.59059661e+31
1.80939824e+31
3.52557409e+30
5.79738138e+29
7.21893860e+27
2.70408022e+27
-9.38740181e+26
5.41736690e+27
1.32324935e+27
-9.59255259e+25
5.95974699e+24
4.24483180e+24
7.17702542e+23
-1.24276637e+23
-1.49879346e+23
-2.32631259e+22
-1.98519196e+21
-5.83084943e+20
-6.58461095e+19
-1.92295651e+19
3.52924572e+16
8.92046703e+17
2.31124789e+17
2.37999439e+16
-6.06304902e+15
6.42347719e+15
-1.39473262e+14
-5.43556090e+12
-3.37349935e+12
1.26001485e+12
3.82596407e+10
1.35684694e+10
-1.39188357e+08
1.47063686e+08
2.07131525e+07
-3.76774519e+06
-1.60765778e+06
-1.09267552e+05
1.10689789e+00
1.02508362e+00
1.01922576e+00
1.01396933e+00
1.01005380e+00
1.02353062e+00
1.01943159e+00
1.00418125e+00
1.01029643e+00
1.32943030e+30
1.45617580e+30
-7.70729099e+29
-5.92232613e+30
-1.69663957e+31
-1.20715341e+32
2.08390828e+32
1.05312208e+33
2.59998429e+33
1.24676533e+33
-1.26990705e+34
3.03902667e+34
-1.68753834e+34
-3.55991335e+33
8.08191856e+33
-1.12123658e+34
-1.82154555e+34
-1.16888027e+35
-9.22754770e+35
7.30497358e+36
-1.03198894e+38
4.32418543e+36
-2.02925844e+37
1.09858198e+37
2.40757947e+37
6.02261664e+37
5.02522346e+37
2.56586919e+38
1.42150126e+38
-4.41739840e+37
8.95676052e+37
2.68404137e+38
-2.00522665e+37
7.96574816e+36
4.72822684e+39
-6.92650170e+39
-1.28392071e+40
1.81151932e+40
-7.11322449e+39
2.56882603e+39
5.09516017e+39
9.13299234e+38
-1.40935057e+39
3.93940977e+39
1.72704838e+38
-3.79752115e+39
-1.89220136e+39
-8.57548750e+38
6.26741564e+39
4.09110590e+38
-2.10381716e+37
-4.43810866e+36
-6.27431139e+36
-1.04238160e+38
-4.08088981e+37
2.48499694e+36
-1.72769961e+37
3.98769072e+37
-7.33849926e+36
1.94268420e+36
1.81756963e+37
3.00370692e+37
-8.15325818e+38
1.65911412e+39
-7.46155921e+38
2.96707651e+38
-1.25221929e+38
8.12188862e+35
1.34895493e+37
3.50201700e+37
1.08656665e+37
2.58056366e+35
-3.97481532e+35
2.61016834e+35
1.97999062e+34
-2.60847244e+35
-1.74973809e+34
-3.17501055e+33
5.66486436e+33
1.45695538e+32
4.57494216e+32
1.13032512e+32
4.15732516e+31
8.73859870e+30
1.69409512e+30
3.60696763e+29
3.79334595e+28
-1.77211104e+27
-4.22920544e+27
4.36461917e+27
-4.15630060e+26
1.51299159e+26
2.48380359e+25
7.16156239e+24
1.24915679e+24
-1.92952633e+23
-6.73504299e+22
-1.05524285e+22
-1.59533207e+21
-2.55025930e+20
-2.89522908e+19
-6.76189297e+18
-6.67888290e+17
1.40852372e+17
7.51212494e+16
-1.36715829e+16
4.25988586e+14
-8.12050404e+13
-1.89095414e+13
2.76013371e+12
1.61270944e+12
-1.56764344e+10
3.02564466e+09
7.63099673e+08
2.10730564e+08
2.76700565e+07
-6.07637529e+06
-2.25050130e+06
-1.49247375e+05
1.02419281e+01
8.56302275e-01
1.00581686e+00
1.03240181e+00
1.01261481e+00
1.00584170e+00
1.02485551e+00
1.02312888e+00
1.00561323e+00
-3.62444511e+31
-8.81047622e+31
2.07472457e+32
-2.69135637e+32
-2.31249453e+32
-2.73357619e+32
1.42625737e+33
-9.64721153e+32
-1.79072069e+33
-1.26970671e+33
-5.24103194e+33
-6.10814934e+33
1.29277215e+34
1.77823776e+34
4.93460979e+34
1.78144178e+34
-7.52190480e+35
-1.28788867e+36
-2.05328538e+36
-1.23689174e+37
1.99471507e+37
4.45822825e+37
2.41302591e+37
1.97680751e+37
-5.57306311e+35
-1.32728276e+38
1.46281368e+38
3.97737276e+38
-1.77606088e+39
6.78134104e+37
-3.16497552e+38
-3.45683188e+38
7.19307149e+37
-2.80596301e+38
-3.24289420e+38
-1.20541447e+40
-3.66217310e+40
-1.78478644e+38
6.11090793e+39
1.04387950e+40
5.55667613e+39
5.67172409e+39
-5.62962062e+39
-2.48873116e+38
1.13863012e+40
2.79164454e+40
-4.53171316e+39
-3.21091606e+39
2.53172450e+39
-5.89431299e+38
-1.45284993e+38
-3.82516904e+37
2.10982421e+38
-1.14999531e+38
4.31109319e+38
3.19898933e+37
-1.60510322e+38
1.58122951e+38
-9.19268700e+37
3.11857206e+38
-1.34469766e+37
8.25853413e+37
-3.44861792e+38
1.52367081e+38
5.07059516e+37
1.47861604e+38
-8.57700902e+37
-6.55121172e+37
-3.24006830e+37
-6.94669035e+37
3.56795961e+37
2.13140294e+36
-6.22109242e+35
-9.25729264e+35
-7.44438745e+35
-3.07598954e+35
-1.47907182e+35
-3.05955113e+34
-4.32394786e+33
-2.12412749e+33
-5.85656185e+32
-1.61553254e+32
2.83748924e+32
-7.55690235e+29
-1.33075081e+30
8.12340547e+29
2.00318591e+29
2.78981967e+28
-2.36571193e+28
-3.17943492e+27
-9.29701927e+26
4.91445469e+26
1.52666398e+26
3.11969146e+25
3.42372453e+24
5.96920936e+23
-7.12813767e+22
-3.09850755e+22
-3.93818941e+21
-6.18501922e+20
-8.74099965e+19
-9.70107715e+18
3.48011354e+17
2.43710347e+17
5.08496529e+16
3.10490780e+15
-1.50426534e+15
-4.77225876e+12
6.68246980e+12
2.05836908e+12
1.47054155e+12
-2.08780150e+10
-2.61206706e+09
-3.35881625e+07
3.08202934e+08
3.74835300e+07
-9.44909853e+06
-3.13254940e+06
-2.00076556e+05
4.45208201e+02
2.88763650e+01
1.16184202e+00
9.64555665e-01
1.02520324e+00
1.01594671e+00
1.00256452e+00
1.02268731e+00
1.02468502e+00
-2.66221507e+32
7.84433293e+31
1.43266357e+32
-4.59176794e+33
-1.76824527e+33
2.49320805e+33
4.83180483e+31
-2.18569720e+33
-5.87652285e+32