# vtk DataFile Version 2.0
LBM Flow Field - Timestep 580
ASCII
DATASET STRUCTURED_POINTS
DIMENSIONS 128 128 1
ORIGIN 0.0 0.0 0.0
SPACING 1.0 1.0 1.0
POINT_DATA 16384
SCALARS density double 1
LOOKUP_TABLE default
1.31901631e+00
1.30533417e+00
1.28909608e+00
1.27292990e+00
1.25709924e+00
1.24139954e+00
1.22619413e+00
1.21119076e+00
1.19679995e+00
1.18269240e+00
1.16927079e+00
1.15622010e+00
1.14388357e+00
1.13200700e+00
1.12083125e+00
1.11019996e+00
1.10022134e+00
1.09086120e+00
1.08207959e+00
1.07397457e+00
1.06635780e+00
1.05945564e+00
1.05294502e+00
1.04716436e+00
1.04168079e+00
1.03691916e+00
1.03236926e+00
1.02851112e+00
1.02479315e+00
1.02171748e+00
1.01872652e+00
1.01631336e+00
1.01394575e+00
1.01208146e+00
1.01023832e+00
1.00881934e+00
1.00740916e+00
1.00634437e+00
1.00528473e+00
1.00449643e+00
1.00371498e+00
1.00313878e+00
1.00257359e+00
1.00215753e+00
1.00175688e+00
1.00145999e+00
1.00118174e+00
1.00097240e+00
1.00078313e+00
1.00063732e+00
1.00051120e+00
1.00041100e+00
1.00032862e+00
1.00026078e+00
1.00020797e+00
1.00016280e+00
1.00012952e+00
1.00010001e+00
1.00007934e+00
1.00006046e+00
1.00004778e+00
1.00003598e+00
1.00002828e+00
1.00002109e+00
1.00001643e+00
1.00001217e+00
1.00000937e+00
1.00000691e+00
1.00000525e+00
1.00000386e+00
1.00000288e+00
1.00000213e+00
1.00000156e+00
1.00000115e+00
1.00000083e+00
1.00000061e+00
1.00000043e+00
1.00000032e+00
1.00000022e+00
1.00000016e+00
1.00000011e+00
1.00000008e+00
1.00000006e+00
1.00000004e+00
1.00000003e+00
1.00000002e+00
1.00000001e+00
1.00000001e+00
1.00000001e+00
1.00000000e+00
1.00000000e+00
1.00000000e+00
1.00000000e+00
1.00000000e+00
1.00000000e+00
1.00000000e+00
1.00000000e+00
1.00000000e+00
1.00000000e+00
1.00000000e+00
1.00000000e+00
1.00000000e+00
1.00000000e+00
1.00000000e+00
1.00000000e+00
1.00000000e+00
1.00000000e+00
1.00000000e+00
1.00000000e+00
1.00000000e+00
1.00000000e+00
1.00000000e+00
1.00000000e+00
1.00000000e+00
1.00000000e+00
1.00000000e+00
1.00000000e+00
1.00000000e+00
1.00000000e+00
1.00000000e+00
1.00000000e+00
1.00000000e+00
1.00000000e+00
1.00000000e+00
1.00000000e+00
1.00000000e+00
1.00000000e+00
1.00000000e+00
1.11746558e+00
1.09028292e+00
1.07323910e+00
1.06872548e+00
1.06384960e+00
1.05749091e+00
1.05366763e+00
1.04568225e+00
1.04601785e+00
1.04328988e+00
1.03735515e+00
1.03956841e+00
1.03981238e+00
1.03982598e+00
1.03801887e+00
1.04132921e+00
1.03677242e+00
1.03751563e+00
1.04210107e+00
1.03798918e+00
1.03758685e+00
1.04076260e+00
1.04044708e+00
1.03533046e+00
1.03970843e+00
1.03871885e+00
1.03802042e+00
1.04148231e+00
1.03937367e+00
1.03419137e+00
1.03413288e+00
1.03629424e+00
1.04051826e+00
1.04966745e+00
1.05567675e+00
1.04779456e+00
1.03632823e+00
1.03860517e+00
1.05103983e+00
1.05106363e+00
1.04203735e+00
1.03414597e+00
1.03670352e+00
1.04366108e+00
1.04417941e+00
1.03983341e+00
1.03714618e+00
1.04301829e+00
1.04379072e+00
1.04024381e+00
1.04011280e+00
1.04102244e+00
1.04004931e+00
1.03948879e+00
1.03891773e+00
1.03983944e+00
1.04063059e+00
1.03746653e+00
1.03936018e+00
1.03625524e+00
1.03810440e+00
1.03985926e+00
1.03714431e+00
1.03865128e+00
1.03606289e+00
1.03876240e+00
1.03839339e+00
1.03496194e+00
1.03717670e+00
1.03737311e+00
1.03540579e+00
1.03669721e+00
1.03687311e+00
1.03367070e+00
1.03495347e+00
1.03782568e+00
1.03607581e+00
1.03482717e+00
1.03529000e+00
1.03624307e+00
1.03560080e+00
1.03441822e+00
1.03597926e+00
1.03481203e+00
1.03291762e+00
1.03552861e+00
1.03426548e+00
1.03445780e+00
1.03291654e+00
1.03317375e+00
1.03410768e+00
1.03418068e+00
1.03346738e+00
1.03280193e+00
1.03102747e+00
1.03445235e+00
1.03407486e+00
1.03222306e+00
1.03168740e+00
1.03180361e+00
1.03326017e+00
1.03191277e+00
1.03082143e+00
1.03375883e+00
1.02989201e+00
1.03146483e+00
1.03154755e+00
1.03021405e+00
1.02934447e+00
1.02947204e+00
1.03071526e+00
1.03112295e+00
1.02919501e+00
1.02970407e+00
1.03050953e+00
1.02804002e+00
1.02914307e+00
1.02813067e+00
1.02890311e+00
1.02690632e+00
1.02721438e+00
1.02842030e+00
1.02797495e+00
1.02577675e+00
1.02736835e+00
1.02573215e+00
1.02673872e+00
1.02538216e+00
1.09002782e+00
1.08643608e+00
1.08376584e+00
1.06907317e+00
1.05709844e+00
1.05497254e+00
1.05840222e+00
1.04632724e+00
1.04257704e+00
1.04208557e+00
1.04437872e+00
1.04239815e+00
1.03682495e+00
1.03885185e+00
1.03920172e+00
1.04013010e+00
1.03826301e+00
1.03701658e+00
1.03731359e+00
1.04235562e+00
1.04038353e+00
1.03533080e+00
1.04100132e+00
1.04076377e+00
1.03607114e+00
1.03711066e+00
1.04198053e+00
1.03789087e+00
1.03638272e+00
1.03695233e+00
1.03366006e+00
1.03555981e+00
1.03941528e+00
1.04409734e+00
1.04591229e+00
1.04629338e+00
1.04401392e+00
1.04324204e+00
1.04620878e+00
1.04130132e+00
1.03996162e+00
1.04536552e+00
1.04575415e+00
1.03987781e+00
1.03687745e+00
1.04154832e+00
1.04113181e+00
1.04102580e+00
1.04059892e+00
1.03981557e+00
1.04140464e+00
1.04274906e+00
1.03940944e+00
1.03871245e+00
1.03931800e+00
1.03832608e+00
1.04132750e+00
1.03943097e+00
1.03727184e+00
1.04059815e+00
1.03682371e+00
1.03681489e+00
1.03672320e+00
1.03745572e+00
1.03992216e+00
1.03374749e+00
1.03929453e+00
1.03917444e+00
1.03646120e+00
1.03659911e+00
1.03497543e+00
1.03385560e+00
1.03662351e+00
1.03679555e+00
1.03385809e+00
1.03629415e+00
1.03544249e+00
1.03701780e+00
1.03459884e+00
1.03592925e+00
1.03583693e+00
1.03360343e+00
1.03523762e+00
1.03756487e+00
1.03352167e+00
1.03549491e+00
1.03460729e+00
1.03604964e+00
1.03407745e+00
1.03311277e+00
1.03402326e+00
1.03463595e+00
1.03396770e+00
1.03437487e+00
1.03235079e+00
1.03342445e+00
1.03187917e+00
1.03185481e+00
1.03265452e+00
1.03245826e+00
1.03233374e+00
1.03082855e+00
1.03233035e+00
1.03432183e+00
1.03060287e+00
1.03057098e+00
1.03069646e+00
1.03098987e+00
1.03103408e+00
1.02905152e+00
1.02897673e+00
1.03108885e+00
1.02930370e+00
1.02962484e+00
1.02930747e+00
1.02762419e+00
1.02912590e+00
1.02836737e+00
1.02872184e+00
1.02759708e+00
1.02620450e+00
1.02703345e+00
1.02784642e+00
1.02586897e+00
1.02866184e+00
1.02526664e+00
1.02612435e+00
1.02575318e+00
1.07696839e+00
1.07992246e+00
1.07768989e+00
1.06779668e+00
1.06236673e+00
1.05729293e+00
1.04880858e+00
1.04637668e+00
1.04992989e+00
1.04430498e+00
1.04030483e+00
1.03943355e+00
1.04018567e+00
1.04024876e+00
1.03732088e+00
1.03629263e+00
1.03853928e+00
1.04036257e+00
1.03652006e+00
1.03617292e+00
1.04163061e+00
1.04109330e+00
1.03904412e+00
1.03772525e+00
1.03791390e+00
1.03926663e+00
1.03846923e+00
1.03686619e+00
1.03786402e+00
1.03843025e+00
1.03553093e+00
1.03497424e+00
1.04084416e+00
1.04238268e+00
1.04069853e+00
1.04327838e+00
1.04731503e+00
1.03976728e+00
1.03751247e+00
1.04272258e+00
1.04658494e+00
1.04356517e+00
1.04038273e+00
1.04082489e+00
1.04293191e+00
1.04364960e+00
1.03949508e+00
1.03785416e+00
1.04091879e+00
1.04425773e+00
1.04072703e+00
1.03986781e+00
1.03792822e+00
1.04062472e+00
1.04141357e+00
1.03824624e+00
1.03777580e+00
1.04127019e+00
1.03873917e+00
1.03828894e+00
1.03929844e+00
1.03678985e+00
1.03686901e+00
1.03617818e+00
1.03912953e+00
1.03810331e+00
1.03673670e+00
1.03927413e+00
1.03507894e+00
1.03349567e+00
1.03924109e+00
1.03753716e+00
1.03425250e+00
1.03553114e+00
1.03693471e+00
1.03690978e+00
1.03363410e+00
1.03511323e+00
1.03550162e+00
1.03442308e+00
1.03636207e+00
1.03464161e+00
1.03431911e+00
1.03531404e+00
1.03379423e+00
1.03612148e+00
1.03466982e+00
1.03523973e+00
1.03321963e+00
1.03254544e+00
1.03566701e+00
1.03524831e+00
1.03229795e+00
1.03062439e+00
1.03360965e+00
1.03514604e+00
1.03195747e+00
1.02998220e+00
1.03337110e+00
1.03222349e+00
1.03193362e+00
1.02988336e+00
1.03261386e+00
1.03277846e+00
1.02826586e+00
1.03210346e+00
1.03255429e+00
1.02968218e+00
1.02966269e+00
1.03115479e+00
1.03035282e+00
1.03069410e+00
1.02738652e+00
1.03021077e+00
1.02868210e+00
1.02828999e+00
1.02915584e+00
1.02864449e+00
1.02818028e+00
1.02750386e+00
1.02760937e+00
1.02800152e+00
1.02551227e+00
1.02545784e+00
1.02850919e+00
1.02663072e+00
1.02627014e+00
1.02586707e+00
1.07521195e+00
1.06974610e+00
1.06536203e+00
1.07447064e+00
1.07007743e+00
1.04714050e+00
1.04635587e+00
1.06163292e+00
1.04966515e+00
1.04021949e+00
1.04488341e+00
1.03991178e+00
1.03937759e+00
1.04301616e+00
1.03864921e+00
1.03817673e+00
1.03931702e+00
1.03787039e+00
1.03934190e+00
1.03803774e+00
1.03879142e+00
1.04220200e+00
1.03852225e+00
1.03965839e+00
1.03972335e+00
1.03592001e+00
1.03957537e+00
1.04053963e+00
1.03590425e+00
1.03826528e+00
1.03789508e+00
1.03625925e+00
1.04111734e+00
1.04377145e+00
1.04385409e+00
1.04290464e+00
1.04233019e+00
1.03877733e+00
1.04147979e+00
1.04275212e+00
1.04190081e+00
1.03859003e+00
1.04352667e+00
1.04612578e+00
1.04390563e+00
1.03775417e+00
1.03844571e+00
1.04255802e+00
1.04344837e+00
1.04059268e+00
1.03805615e+00
1.04324871e+00
1.04238341e+00
1.03737160e+00
1.03735559e+00
1.03911893e+00
1.03731997e+00
1.03990681e+00
1.04127006e+00
1.03640328e+00
1.03970625e+00
1.03850371e+00
1.03756755e+00
1.03852413e+00
1.03421139e+00
1.04045152e+00
1.03576959e+00
1.03752222e+00
1.03954518e+00
1.03502525e+00
1.03467388e+00
1.03680273e+00
1.03650536e+00
1.03548787e+00
1.03698302e+00
1.03518923e+00
1.03425307e+00
1.03454381e+00
1.03734990e+00
1.03301875e+00
1.03401407e+00
1.03346878e+00
1.03761537e+00
1.03475416e+00
1.03240860e+00
1.03354146e+00
1.03360315e+00
1.03471894e+00
1.03478744e+00
1.03205944e+00
1.03324585e+00
1.03283700e+00
1.03376676e+00
1.03208976e+00
1.03351656e+00
1.03301451e+00
1.03148162e+00
1.03202090e+00
1.03335013e+00
1.03100990e+00
1.03014995e+00
1.03142633e+00
1.03275737e+00
1.03279567e+00
1.02744877e+00
1.02953137e+00
1.03118870e+00
1.03072733e+00
1.03166070e+00
1.03078983e+00
1.02911189e+00
1.03072453e+00
1.02875368e+00
1.03032971e+00
1.02978340e+00
1.02753021e+00
1.02919158e+00
1.02742950e+00
1.02960530e+00
1.02676493e+00
1.02617990e+00
1.02961119e+00
1.02681809e+00
1.02507766e+00
1.02617822e+00
1.02546146e+00
1.02699473e+00
1.02560705e+00
1.07833028e+00
1.06092903e+00
1.06524420e+00
1.06696487e+00
1.05821559e+00
1.06144682e+00
1.06357079e+00
1.05011770e+00
1.04228132e+00
1.04779853e+00
1.04480430e+00
1.04591348e+00
1.04049380e+00
1.03531591e+00
1.04172993e+00
1.04333627e+00
1.03467173e+00
1.03555644e+00
1.04319874e+00
1.03769102e+00
1.03677284e+00
1.04230574e+00
1.04043629e+00
1.04016511e+00
1.04087485e+00
1.03900204e+00
1.03786832e+00
1.04164399e+00
1.03821476e+00
1.03582386e+00
1.04043752e+00
1.04378356e+00
1.03931639e+00
1.04202991e+00
1.04348173e+00
1.04394775e+00
1.04049897e+00
1.04092115e+00
1.04340291e+00
1.03862760e+00
1.03835620e+00
1.04267789e+00
1.04489408e+00
1.04051293e+00
1.03894109e+00
1.04220963e+00
1.04245926e+00
1.03905708e+00
1.03882863e+00
1.04312918e+00
1.04453266e+00
1.04207897e+00
1.03879721e+00
1.03665476e+00
1.04040514e+00
1.04122639e+00
1.03875547e+00
1.03569391e+00
1.03747623e+00
1.04116102e+00
1.04036501e+00
1.03792633e+00
1.03369402e+00
1.03973370e+00
1.03583187e+00
1.03735048e+00
1.03848784e+00
1.03444891e+00
1.03723989e+00
1.03938321e+00
1.03693287e+00
1.03636933e+00
1.03612800e+00
1.03424069e+00
1.03502236e+00
1.03596834e+00
1.03636210e+00
1.03484734e+00
1.03333812e+00
1.03504792e+00
1.03870182e+00
1.03449786e+00
1.03504381e+00
1.03360790e+00
1.03357120e+00
1.03734699e+00
1.03404634e+00
1.03269283e+00
1.03224369e+00
1.03354931e+00
1.03498898e+00
1.03292682e+00
1.03222321e+00
1.03161734e+00
1.03359120e+00
1.03515457e+00
1.03188810e+00
1.03140859e+00
1.03261371e+00
1.03157289e+00
1.03268776e+00
1.03226001e+00
1.03055115e+00
1.03130606e+00
1.02877442e+00
1.03272864e+00
1.03097192e+00
1.02833514e+00
1.03001329e+00
1.02994294e+00
1.03122572e+00
1.02971279e+00
1.02862577e+00
1.02707290e+00
1.02954426e+00
1.02998417e+00
1.03000833e+00
1.02529804e+00
1.02838744e+00
1.02789306e+00
1.02899312e+00
1.02829104e+00
1.02717289e+00
1.02668724e+00
1.02842548e+00
1.02455999e+00
1.02707516e+00
1.02683211e+00
1.06411245e+00
1.06803439e+00
1.06678596e+00
1.05991714e+00
1.06036495e+00
1.06331941e+00
1.05710261e+00
1.05210330e+00
1.05287789e+00
1.05346783e+00
1.04166096e+00
1.04186653e+00
1.04642533e+00
1.04336396e+00
1.03647756e+00
1.04100996e+00
1.03988979e+00
1.03947240e+00
1.03938182e+00
1.03766978e+00
1.03901042e+00
1.03893171e+00
1.04219664e+00
1.04109540e+00
1.04255089e+00
1.04180665e+00
1.03736017e+00
1.03601314e+00
1.03687850e+00
1.04497443e+00
1.04272415e+00
1.04148581e+00
1.04173779e+00
1.04391141e+00
1.03948013e+00
1.04168337e+00
1.04645754e+00
1.04382185e+00
1.04053013e+00
1.03783573e+00
1.04006139e+00
1.04506894e+00
1.04376410e+00
1.03985296e+00
1.03880356e+00
1.04058521e+00
1.03884588e+00
1.03874863e+00
1.04501525e+00
1.04611341e+00
1.04079921e+00
1.03845118e+00
1.04032258e+00
1.03977860e+00
1.03974369e+00
1.03608100e+00
1.03836065e+00
1.04257045e+00
1.03906139e+00
1.03871769e+00
1.03485937e+00
1.03723268e+00
1.03566514e+00
1.03909975e+00
1.03712644e+00
1.03156922e+00
1.03839768e+00
1.03908282e+00
1.03695720e+00
1.03578837e+00
1.03541037e+00
1.03502142e+00
1.03459586e+00
1.03673369e+00
1.03408737e+00
1.03479916e+00
1.03380869e+00
1.03853532e+00
1.03441118e+00
1.03338395e+00
1.03502466e+00
1.03456980e+00
1.03526131e+00
1.03723036e+00
1.03296690e+00
1.03403740e+00
1.03158605e+00
1.03527953e+00
1.03607711e+00
1.03403439e+00
1.03345231e+00
1.03232964e+00
1.03443868e+00
1.03385330e+00
1.03340865e+00
1.03159792e+00
1.03032783e+00
1.03318933e+00
1.03554226e+00
1.03061816e+00
1.03099121e+00
1.03217005e+00
1.03140909e+00
1.03287756e+00
1.02864399e+00
1.03167285e+00
1.03099907e+00
1.02905261e+00
1.03346663e+00
1.02881213e+00
1.02860236e+00
1.02862088e+00
1.02956595e+00
1.02981018e+00
1.02752489e+00
1.02858079e+00
1.03026789e+00
1.02671895e+00
1.02999654e+00
1.02651112e+00
1.02753756e+00
1.02884805e+00
1.02667162e+00
1.02663598e+00
1.02868900e+00
1.02480319e+00
1.02516591e+00
1.02599974e+00
1.05771898e+00
1.06889636e+00
1.05760611e+00
1.06053970e+00
1.06605293e+00
1.05873033e+00
1.05456084e+00
1.05894441e+00
1.04965220e+00
1.04596854e+00
1.05540457e+00
1.05199047e+00
1.04324413e+00
1.03875826e+00
1.04022656e+00
1.04556724e+00
1.04246716e+00
1.04478968e+00
1.03735508e+00
1.03893055e+00
1.04296217e+00
1.04118649e+00
1.04206641e+00
1.04163632e+00
1.04172642e+00
1.03808096e+00
1.04405494e+00
1.04085539e+00
1.03555728e+00
1.04349773e+00
1.04440972e+00
1.04313604e+00
1.04215413e+00
1.04261677e+00
1.04077856e+00
1.04357730e+00
1.04470535e+00
1.03955346e+00
1.03755167e+00
1.04244034e+00
1.04605332e+00
1.04386550e+00
1.04181553e+00
1.04180509e+00
1.04126999e+00
1.03833444e+00
1.04059949e+00
1.03878500e+00
1.04081586e+00
1.04114512e+00
1.04460102e+00
1.04444684e+00
1.03924215e+00
1.03401892e+00
1.03971050e+00
1.04293858e+00
1.03847217e+00
1.03776132e+00
1.03843684e+00
1.03743516e+00
1.04109840e+00
1.03816960e+00
1.03413925e+00
1.03331782e+00
1.03846380e+00
1.04123230e+00
1.03666883e+00
1.03641884e+00
1.03703526e+00
1.03567882e+00
1.03857760e+00
1.03862429e+00
1.03126758e+00
1.03327538e+00
1.03513805e+00
1.03756399e+00
1.03486115e+00
1.03510741e+00
1.03369300e+00
1.03320929e+00
1.03736886e+00
1.03612863e+00
1.03204958e+00
1.03214772e+00
1.03531490e+00
1.03813182e+00
1.03418585e+00
1.03299171e+00
1.03336813e+00
1.03401279e+00
1.03582234e+00
1.03330367e+00
1.03241366e+00
1.03153275e+00
1.03342505e+00
1.03424788e+00
1.03118464e+00
1.03029454e+00
1.03155814e+00
1.03006485e+00
1.03386066e+00
1.03127244e+00
1.02881833e+00
1.02997123e+00
1.03105598e+00
1.03443734e+00
1.03152885e+00
1.02552311e+00
1.02721665e+00
1.03082021e+00
1.03127851e+00
1.03017548e+00
1.02751960e+00
1.02821838e+00
1.02757111e+00
1.02992647e+00
1.02970572e+00
1.02732588e+00
1.02906775e+00
1.02787694e+00
1.02700430e+00
1.02824586e+00
1.02594331e+00
1.02588039e+00
1.02827254e+00
1.02544055e+00
1.02606579e+00
1.02416238e+00
1.06901853e+00
1.05748503e+00
1.05478565e+00
1.07036590e+00
1.06224949e+00
1.05448990e+00
1.05600530e+00
1.05648853e+00
1.05214269e+00
1.05402879e+00
1.05272625e+00
1.04865182e+00
1.04787176e+00
1.04465773e+00
1.05016842e+00
1.04724523e+00
1.03698402e+00
1.04471708e+00
1.04643499e+00
1.04530347e+00
1.03967537e+00
1.04291170e+00
1.04593558e+00
1.04090609e+00
1.04707932e+00
1.03837144e+00
1.03680856e+00
1.04727756e+00
1.04532268e+00
1.04038239e+00
1.04378103e+00
1.04455306e+00
1.04143614e+00
1.04382495e+00
1.04496039e+00
1.04175198e+00
1.03625059e+00
1.04234679e+00
1.04494945e+00
1.04377644e+00
1.03913727e+00
1.04012142e+00
1.04460835e+00
1.04657711e+00
1.04036599e+00
1.03761857e+00
1.04021321e+00
1.03957122e+00
1.04259252e+00
1.04359023e+00
1.03958415e+00
1.03920728e+00
1.04103326e+00
1.04025362e+00
1.03679806e+00
1.03914516e+00
1.03692725e+00
1.03854085e+00
1.04424969e+00
1.03700789e+00
1.03592905e+00
1.03480212e+00
1.03934920e+00
1.04080020e+00
1.03281279e+00
1.03936353e+00
1.03601974e+00
1.03664325e+00
1.04121843e+00
1.03670002e+00
1.03122301e+00
1.03736754e+00
1.03646991e+00
1.03794656e+00
1.03449671e+00
1.03328089e+00
1.03464287e+00
1.03537183e+00
1.03590145e+00
1.03313130e+00
1.03433735e+00
1.03301189e+00
1.03523198e+00
1.03527981e+00
1.03469226e+00
1.03392560e+00
1.03170747e+00
1.03487097e+00
1.03595085e+00
1.03401362e+00
1.03147116e+00
1.03131652e+00
1.03566239e+00
1.03495497e+00
1.03220336e+00
1.02982593e+00
1.03145946e+00
1.03400760e+00
1.03384468e+00
1.02937526e+00
1.03210587e+00
1.03197720e+00
1.02976238e+00
1.03258547e+00
1.03032412e+00
1.03173245e+00
1.02782545e+00
1.03216493e+00
1.03178435e+00
1.02942196e+00
1.02764697e+00
1.02931524e+00
1.03073086e+00
1.03083394e+00
1.02791197e+00
1.02979031e+00
1.02721741e+00
1.02630980e+00
1.03096877e+00
1.02706365e+00
1.02542547e+00
1.02690801e+00
1.02732133e+00
1.02734399e+00
1.02674996e+00
1.02299086e+00
1.02660191e+00
1.02682017e+00
1.06837758e+00
1.06170385e+00
1.06289744e+00
1.06072592e+00
1.05498544e+00
1.06215722e+00
1.05998988e+00
1.05230120e+00
1.05175037e+00
1.05580459e+00
1.05123788e+00
1.05031808e+00
1.05232771e+00
1.05161745e+00
1.04197836e+00
1.04324530e+00
1.05572256e+00
1.04705115e+00
1.03996924e+00
1.04961701e+00
1.04177364e+00
1.04727212e+00
1.04787130e+00
1.03640374e+00
1.04740598e+00
1.04600647e+00
1.04286467e+00
1.04103273e+00
1.04032275e+00
1.04441051e+00
1.04578533e+00
1.04286186e+00
1.04232152e+00
1.04066101e+00
1.04118087e+00
1.04564633e+00
1.04555724e+00
1.04424572e+00
1.03966033e+00
1.03626740e+00
1.03815420e+00
1.04623838e+00
1.04529994e+00
1.04238849e+00
1.03809404e+00
1.04304639e+00
1.04354651e+00
1.03927541e+00
1.03887549e+00
1.04177868e+00
1.04126345e+00
1.04203027e+00
1.04057980e+00
1.03901219e+00
1.03608896e+00
1.03781796e+00
1.04234328e+00
1.03729186e+00
1.03566319e+00
1.03870850e+00
1.04022182e+00
1.04012603e+00
1.03331682e+00
1.03676147e+00
1.03242663e+00
1.03805240e+00
1.04194899e+00
1.03411693e+00
1.03385181e+00
1.03859778e+00
1.03668359e+00
1.03711893e+00
1.03262069e+00
1.03505572e+00
1.03491731e+00
1.03577111e+00
1.03500934e+00
1.03447690e+00
1.03289002e+00
1.03551339e+00
1.03942996e+00
1.03484165e+00
1.03256052e+00
1.03259251e+00
1.03346761e+00
1.03689844e+00
1.03352994e+00
1.03369251e+00
1.03146328e+00
1.03397116e+00
1.03427211e+00
1.03241385e+00
1.03298957e+00
1.03117883e+00
1.03275214e+00
1.03613153e+00
1.03347656e+00
1.03144946e+00
1.02897065e+00
1.03154509e+00
1.03371856e+00
1.03380206e+00
1.02822670e+00
1.03253590e+00
1.02976873e+00
1.03287199e+00
1.02900510e+00
1.02839366e+00
1.02916413e+00
1.03019968e+00
1.03041872e+00
1.03065438e+00
1.02815405e+00
1.02741493e+00
1.02716834e+00
1.03028608e+00
1.03062051e+00
1.02493391e+00
1.02800378e+00
1.02689948e+00
1.02697667e+00
1.02689166e+00
1.02448285e+00
1.02697597e+00
1.02848705e+00
1.02457823e+00
1.02615629e+00
1.02656047e+00
1.05529521e+00
1.05817572e+00
1.06814614e+00
1.05957465e+00
1.05300495e+00
1.06150307e+00
1.05710657e+00
1.05206374e+00
1.05478243e+00
1.05587513e+00
1.05036457e+00
1.04908834e+00
1.05043960e+00
1.05454506e+00
1.04412018e+00
1.04749527e+00
1.05383266e+00
1.04200973e+00
1.04811715e+00
1.05121116e+00
1.03911955e+00
1.04282939e+00
1.04529444e+00
1.04908253e+00
1.04638483e+00
1.03764383e+00
1.04418132e+00
1.04416755e+00
1.04464922e+00
1.04816314e+00
1.04436517e+00
1.04060894e+00
1.04362304e+00
1.04346457e+00
1.03970880e+00
1.04196983e+00
1.04598471e+00
1.04351852e+00
1.04064382e+00
1.04075787e+00
1.04327853e+00
1.04096069e+00
1.03638288e+00
1.04353362e+00
1.04375005e+00
1.04019888e+00
1.03870409e+00
1.04080015e+00
1.04302568e+00
1.04265426e+00
1.04127365e+00
1.04076129e+00
1.03754343e+00
1.03660822e+00
1.04116090e+00
1.03523213e+00
1.03830838e+00
1.04059340e+00
1.04015910e+00
1.04041269e+00
1.03584542e+00
1.03611578e+00
1.03297218e+00
1.03745154e+00
1.03906237e+00
1.03314271e+00
1.03669859e+00
1.03704035e+00
1.03820722e+00
1.03650509e+00
1.03432918e+00
1.03419457e+00
1.03465754e+00
1.03761756e+00
1.03462260e+00
1.03341525e+00
1.03033961e+00
1.03596591e+00
1.03619970e+00
1.03372913e+00
1.03274812e+00
1.03194440e+00
1.03407461e+00
1.03694334e+00
1.03339107e+00
1.03324478e+00
1.02966569e+00
1.03652083e+00
1.03334636e+00
1.03300942e+00
1.03103389e+00
1.03255990e+00
1.03507263e+00
1.03367417e+00
1.03118432e+00
1.03237549e+00
1.03080734e+00
1.03466067e+00
1.03350166e+00
1.03214801e+00
1.03002315e+00
1.03067819e+00
1.03031506e+00
1.03429265e+00
1.02856026e+00
1.02769119e+00
1.02886566e+00
1.03307352e+00
1.03280601e+00
1.03043930e+00
1.02854006e+00
1.02777219e+00
1.02973049e+00
1.03166914e+00
1.02924004e+00
1.02627084e+00
1.02700403e+00
1.02747796e+00
1.03134714e+00
1.02606350e+00
1.02647437e+00
1.02819512e+00
1.02653310e+00
1.02677908e+00
1.02730970e+00
1.02545696e+00
1.02747266e+00
1.02506374e+00
1.05995459e+00
1.05905321e+00
1.05706900e+00
1.06018880e+00
1.05911376e+00
1.05675315e+00
1.05722979e+00
1.05785354e+00
1.05348110e+00
1.05208319e+00
1.05452448e+00
1.05580847e+00
1.05041130e+00
1.04376430e+00
1.04728223e+00
1.05524980e+00
1.04596914e+00
1.04929670e+00
1.05084650e+00
1.03697284e+00
1.04507391e+00
1.05304192e+00
1.04265032e+00
1.04767923e+00
1.04459675e+00
1.04053682e+00
1.04449275e+00
1.04565526e+00
1.04235660e+00
1.04479990e+00
1.04765819e+00
1.04461723e+00
1.04053112e+00
1.04244705e+00
1.04392619e+00
1.04523029e+00
1.04371286e+00
1.04023977e+00
1.03953061e+00
1.04230508e+00
1.04392639e+00
1.03933842e+00
1.03973473e+00
1.04733871e+00
1.04380822e+00
1.03608568e+00
1.03766720e+00
1.04029648e+00
1.04325838e+00
1.04457294e+00
1.04210257e+00
1.04255736e+00
1.04048129e+00
1.03353802e+00
1.03716943e+00
1.03727238e+00
1.03740729e+00
1.04083639e+00
1.04232971e+00
1.03664103e+00
1.03725328e+00
1.03751775e+00
1.03727391e+00
1.03233455e+00
1.03543657e+00
1.03957824e+00
1.03704263e+00
1.03572504e+00
1.03771731e+00
1.03470735e+00
1.03690466e+00
1.03900298e+00
1.03247733e+00
1.03291187e+00
1.03342820e+00
1.03828520e+00
1.03417203e+00
1.03421422e+00
1.03314780e+00
1.03227288e+00
1.03466627e+00
1.03529183e+00
1.03291653e+00
1.03270036e+00
1.03306835e+00
1.03753348e+00
1.03319591e+00
1.03534215e+00
1.03028500e+00
1.03376626e+00
1.03624100e+00
1.03439977e+00
1.03445082e+00
1.03092322e+00
1.03195000e+00
1.03438459e+00
1.03240800e+00
1.03101918e+00
1.02974677e+00
1.03141395e+00
1.03431688e+00
1.03272570e+00
1.02904503e+00
1.03117467e+00
1.02834119e+00
1.03229773e+00
1.03243514e+00
1.03000640e+00
1.02883643e+00
1.02752890e+00
1.03182550e+00
1.03093852e+00
1.02810047e+00
1.02773575e+00
1.02828395e+00
1.02883165e+00
1.02904937e+00
1.02497517e+00
1.02931737e+00
1.02683605e+00
1.02797150e+00
1.02789646e+00
1.02588322e+00
1.02657191e+00
1.02699755e+00
1.02387568e+00
1.02833125e+00
1.02632031e+00
1.06777156e+00
1.05934761e+00
1.05059752e+00
1.06011317e+00
1.06245952e+00
1.05688452e+00
1.05559968e+00
1.05385229e+00
1.05188571e+00
1.05744618e+00
1.05477838e+00
1.04915071e+00
1.05407667e+00
1.05229531e+00
1.04693587e+00
1.04819374e+00
1.04722388e+00
1.05305906e+00
1.04845307e+00
1.04289814e+00
1.04824221e+00
1.04891744e+00
1.04261695e+00
1.04674157e+00
1.04743387e+00
1.04604935e+00
1.03862012e+00
1.03987630e+00
1.04746812e+00
1.04628148e+00
1.04106274e+00
1.04586296e+00
1.04453192e+00
1.04264036e+00
1.04447600e+00
1.04532895e+00
1.04018356e+00
1.04301380e+00
1.04483655e+00
1.03743275e+00
1.03752065e+00
1.04548989e+00
1.04650253e+00
1.04474548e+00
1.03698215e+00
1.03774103e+00
1.04102796e+00
1.04025778e+00
1.04009737e+00
1.04543966e+00
1.04228973e+00
1.03909301e+00
1.03906747e+00
1.03646973e+00
1.03435477e+00
1.03874350e+00
1.04080934e+00
1.03936601e+00
1.04029086e+00
1.03639215e+00
1.03770693e+00
1.03479178e+00
1.03620017e+00
1.03912816e+00
1.03420750e+00
1.03869016e+00
1.03678321e+00
1.03399804e+00
1.03943893e+00
1.03933950e+00
1.03284185e+00
1.03426524e+00
1.03213697e+00
1.03711180e+00
1.03491343e+00
1.03419527e+00
1.03409918e+00
1.03544643e+00
1.03656194e+00
1.03392069e+00
1.03212008e+00
1.03267376e+00
1.03766052e+00
1.03654982e+00
1.03337765e+00
1.03295287e+00
1.03148470e+00
1.03504913e+00
1.03487292e+00
1.03406863e+00
1.03255787e+00
1.02954744e+00
1.03612222e+00
1.03303169e+00
1.03232751e+00
1.03077499e+00
1.02928970e+00
1.03209296e+00
1.03390853e+00
1.03111727e+00
1.02913020e+00
1.02936347e+00
1.03054849e+00
1.03439196e+00
1.03014507e+00
1.02953054e+00
1.02913882e+00
1.03115060e+00
1.03312946e+00
1.02823102e+00
1.02773206e+00
1.02784843e+00
1.02941827e+00
1.03074760e+00
1.02838197e+00
1.02774181e+00
1.02897079e+00
1.02672139e+00
1.03032503e+00
1.02728396e+00
1.02889403e+00
1.02839235e+00
1.02558360e+00
1.02696428e+00
1.02776243e+00
1.02423835e+00
1.02567527e+00
1.02558954e+00
1.06298166e+00
1.05767243e+00
1.06284023e+00
1.05518993e+00
1.05259569e+00
1.06331567e+00
1.06143336e+00
1.04952193e+00
1.04918959e+00
1.05878471e+00
1.05490362e+00
1.04738750e+00
1.05584686e+00
1.05325308e+00
1.04568543e+00
1.05066509e+00
1.05537975e+00
1.04656438e+00
1.04539428e+00
1.05263196e+00
1.04491739e+00
1.04431136e+00
1.04878278e+00
1.04785273e+00
1.04388245e+00
1.04588169e+00
1.04356659e+00
1.04376567e+00
1.04557662e+00
1.04438761e+00
1.04590977e+00
1.04438520e+00
1.04368339e+00
1.04189642e+00
1.04248471e+00
1.04631719e+00
1.04590758e+00
1.04186305e+00
1.03935420e+00
1.03594130e+00
1.04590591e+00
1.04850612e+00
1.03992952e+00
1.04085832e+00
1.04197344e+00
1.04300208e+00
1.03962031e+00
1.03743395e+00
1.03998206e+00
1.04499760e+00
1.04313597e+00
1.03860741e+00
1.03576193e+00
1.03868807e+00
1.03913947e+00
1.03683831e+00
1.03923427e+00
1.03700775e+00
1.03847067e+00
1.03990383e+00
1.03690365e+00
1.03574984e+00
1.03045680e+00
1.03956567e+00
1.03472536e+00
1.03307984e+00
1.03942544e+00
1.03595500e+00
1.03613701e+00
1.03618205e+00
1.03289623e+00
1.03656474e+00
1.03348684e+00
1.03339050e+00
1.03297909e+00
1.03293790e+00
1.03468560e+00
1.03417212e+00
1.03215268e+00
1.03193305e+00
1.03628905e+00
1.03541264e+00
1.03504488e+00
1.03195942e+00
1.03260051e+00
1.03541694e+00
1.03359649e+00
1.03434913e+00
1.03100660e+00
1.03304245e+00
1.03574634e+00
1.03256480e+00
1.03359776e+00
1.02909588e+00
1.03313729e+00
1.03643199e+00
1.03265563e+00
1.03095127e+00
1.03220655e+00
1.03199529e+00
1.03293632e+00
1.03145961e+00
1.03053340e+00
1.02928229e+00
1.02809732e+00
1.03480507e+00
1.03304240e+00
1.02864968e+00
1.02806129e+00
1.02828219e+00
1.03196437e+00
1.02965551e+00
1.02704163e+00
1.03026571e+00
1.02828936e+00
1.02883176e+00
1.03108965e+00
1.02729171e+00
1.02759203e+00
1.02391333e+00
1.02890710e+00
1.03069673e+00
1.02447553e+00
1.02299189e+00
1.02517642e+00
1.02435128e+00
1.02748129e+00
1.02383751e+00
1.05101401e+00
1.04996228e+00
1.06712084e+00
1.05798672e+00
1.05109922e+00
1.05631827e+00
1.05687764e+00
1.05360262e+00
1.05566925e+00
1.05429955e+00
1.04747703e+00
1.05602701e+00
1.05785924e+00
1.04805451e+00
1.04878432e+00
1.05300711e+00
1.04970129e+00
1.04740876e+00
1.05105251e+00
1.04799009e+00
1.04242075e+00
1.04880272e+00
1.05053147e+00
1.04746062e+00
1.04387272e+00
1.04335740e+00
1.04480298e+00
1.05004618e+00
1.04303246e+00
1.04600662e+00
1.04844361e+00
1.03836752e+00
1.04110309e+00
1.04511641e+00
1.04429603e+00
1.04386507e+00
1.04498536e+00
1.04161934e+00
1.04063752e+00
1.04174982e+00
1.04495334e+00
1.03914808e+00
1.03922071e+00
1.04668327e+00
1.04448684e+00
1.03693089e+00
1.03788728e+00
1.04108002e+00
1.04476231e+00
1.04004407e+00
1.03828701e+00
1.04187680e+00
1.03832940e+00
1.03506007e+00
1.03881432e+00
1.03643533e+00
1.03838025e+00
1.04136054e+00
1.03972871e+00
1.03543956e+00
1.03346022e+00
1.04106103e+00
1.03351260e+00
1.03380346e+00
1.03549023e+00
1.03414991e+00
1.03922103e+00
1.03835804e+00
1.03551438e+00
1.03371108e+00
1.03534327e+00
1.03713392e+00
1.03439316e+00
1.03410765e+00
1.03356974e+00
1.03298705e+00
1.03273885e+00
1.03445548e+00
1.03553585e+00
1.03327851e+00
1.03387188e+00
1.03266962e+00
1.03299890e+00
1.03392312e+00
1.03343123e+00
1.03461669e+00
1.03129743e+00
1.03523063e+00
1.03321970e+00
1.03393573e+00
1.03314988e+00
1.03073581e+00
1.03480948e+00
1.03375498e+00
1.03346767e+00
1.03242436e+00
1.03085556e+00
1.03295741e+00
1.03457464e+00
1.03100919e+00
1.03034034e+00
1.02985394e+00
1.03086620e+00
1.03316902e+00
1.02976874e+00
1.03141428e+00
1.02850071e+00
1.02879373e+00
1.02927167e+00
1.02945630e+00
1.03142758e+00
1.02778512e+00
1.02674343e+00
1.03034133e+00
1.02971820e+00
1.02852445e+00
1.02897547e+00
1.02760279e+00
1.03184667e+00
1.02583550e+00
1.02590202e+00
1.02719062e+00
1.02664317e+00
1.02650667e+00
1.02682734e+00
1.02403642e+00
1.02731951e+00
1.02628531e+00
1.04958388e+00
1.05965432e+00
1.05710022e+00
1.04970290e+00
1.05420614e+00
1.06028843e+00
1.05536249e+00
1.05211311e+00
1.05989157e+00
1.05393243e+00
1.04616712e+00
1.05789911e+00
1.05480709e+00
1.04608211e+00
1.05248498e+00
1.05619905e+00
1.04480088e+00
1.05098997e+00
1.05207816e+00
1.04302705e+00
1.04670295e+00
1.05536981e+00
1.04625081e+00
1.04348051e+00
1.05198241e+00
1.04489337e+00
1.04000306e+00
1.05066553e+00
1.04387624e+00
1.04726864e+00
1.04574852e+00
1.04393904e+00
1.04459905e+00
1.04132052e+00
1.04267776e+00
1.04557416e+00
1.04132080e+00
1.04394822e+00
1.04557071e+00
1.03961294e+00
1.03754315e+00
1.04292542e+00
1.04553618e+00
1.04633776e+00
1.03800521e+00
1.03704334e+00
1.04123515e+00
1.04103931e+00
1.04165770e+00
1.04355105e+00
1.04135261e+00
1.03931580e+00
1.03636446e+00
1.03616785e+00
1.03650927e+00
1.03985734e+00
1.03847164e+00
1.03782354e+00
1.04015202e+00
1.03901801e+00
1.03670488e+00
1.03453227e+00
1.03406633e+00
1.03229142e+00
1.03638022e+00