# vtk DataFile Version 2.0
LBM Flow Field - Timestep 1030
ASCII
DATASET STRUCTURED_POINTS
DIMENSIONS 128 128 1
ORIGIN 0.0 0.0 0.0
SPACING 1.0 1.0 1.0
POINT_DATA 16384
SCALARS density double 1
LOOKUP_TABLE default
1.32176551e+00
1.31152165e+00
1.29923278e+00
1.28710139e+00
1.27493697e+00
1.26305113e+00
1.25111562e+00
1.23957040e+00
1.22796244e+00
1.21684428e+00
1.20565427e+00
1.19503903e+00
1.18434712e+00
1.17429854e+00
1.16417299e+00
1.15474176e+00
1.14523777e+00
1.13646096e+00
1.12762000e+00
1.11952109e+00
1.11137068e+00
1.10396000e+00
1.09651401e+00
1.08978965e+00
1.08304899e+00
1.07699796e+00
1.07095162e+00
1.06555135e+00
1.06017778e+00
1.05539771e+00
1.05066638e+00
1.04646969e+00
1.04234281e+00
1.03868806e+00
1.03512232e+00
1.03196512e+00
1.02891346e+00
1.02620794e+00
1.02362115e+00
1.02132124e+00
1.01914953e+00
1.01721009e+00
1.01540436e+00
1.01378207e+00
1.01229506e+00
1.01094910e+00
1.00973625e+00
1.00862876e+00
1.00764892e+00
1.00674530e+00
1.00596110e+00
1.00523017e+00
1.00460832e+00
1.00402229e+00
1.00353359e+00
1.00306802e+00
1.00268730e+00
1.00232091e+00
1.00202678e+00
1.00174127e+00
1.00151584e+00
1.00129560e+00
1.00112413e+00
1.00095602e+00
1.00082654e+00
1.00069960e+00
1.00060249e+00
1.00050772e+00
1.00043536e+00
1.00036540e+00
1.00031183e+00
1.00026078e+00
1.00022138e+00
1.00018456e+00
1.00015576e+00
1.00012952e+00
1.00010862e+00
1.00009012e+00
1.00007507e+00
1.00006217e+00
1.00005141e+00
1.00004252e+00
1.00003490e+00
1.00002882e+00
1.00002348e+00
1.00001936e+00
1.00001566e+00
1.00001289e+00
1.00001035e+00
1.00000850e+00
1.00000678e+00
1.00000555e+00
1.00000441e+00
1.00000359e+00
1.00000284e+00
1.00000230e+00
1.00000181e+00
1.00000146e+00
1.00000115e+00
1.00000092e+00
1.00000072e+00
1.00000057e+00
1.00000045e+00
1.00000035e+00
1.00000028e+00
1.00000021e+00
1.00000017e+00
1.00000013e+00
1.00000010e+00
1.00000008e+00
1.00000006e+00
1.00000005e+00
1.00000004e+00
1.00000003e+00
1.00000002e+00
1.00000002e+00
1.00000001e+00
1.00000001e+00
1.00000001e+00
1.00000001e+00
1.00000000e+00
1.00000000e+00
1.00000000e+00
1.00000000e+00
1.00000000e+00
1.00000000e+00
1.00000000e+00
1.00000000e+00
-1.06777822e+180
-4.01736316e+180
2.40992119e+181
5.43709403e+181
-1.55764863e+182
-3.86688177e+181
7.20082988e+181
-2.36490348e+180
-5.62900374e+181
-2.84395321e+182
1.30158029e+181
-1.18052996e+182
-1.07439208e+182
1.25801714e+181
6.49098236e+181
1.29618023e+182
-1.09921761e+182
5.02751895e+181
-3.68156472e+182
-1.59626590e+183
-9.11922161e+183
-8.28828250e+182
2.83128167e+184
-3.02605799e+184
-1.83432948e+185
-2.32574629e+185
-3.73649605e+185
1.16275458e+186
-2.70858380e+185
2.21710508e+184
1.65051667e+186
-1.46006367e+186
3.08549373e+186
1.13524481e+187
7.59587214e+186
-9.89384696e+186
-3.07663467e+186
1.43541639e+187
4.04657564e+186
-9.26213166e+187
-1.16944918e+187
-3.62034322e+187
8.50351894e+186
-2.33228823e+186
6.21389942e+185
1.13863573e+186
6.86178556e+185
-2.31050447e+186
2.95000304e+186
1.57667662e+185
-7.05002373e+186
-3.72590578e+186
-7.50052154e+186
3.34663325e+185
2.16617131e+186
-8.57043754e+185
1.36683659e+186
-1.62634585e+187
2.85970794e+187
-2.73277676e+187
7.39336994e+186
4.77259238e+186
1.04989792e+187
-3.74937545e+186
5.36889662e+186
-3.44017251e+185
-5.90166598e+185
-7.01565333e+184
-1.13193330e+185
-3.87698950e+184
5.82242375e+184
7.34132244e+184
6.26165150e+182
7.45937060e+183
2.01478052e+183
1.01337936e+182
-1.35816783e+182
-9.64182344e+182
-4.16556715e+182
5.18216373e+182
1.06506268e+182
1.49883417e+183
4.53968316e+183
2.23534249e+183
-9.51234397e+182
-1.12727649e+183
1.67593832e+183
2.19526362e+183
1.53691596e+183
1.89787573e+183
-4.46710434e+182
1.58637811e+183
-2.01485402e+183
6.21870804e+182
-2.34655948e+182
3.22394986e+180
-8.89504011e+181
-2.12912454e+181
-2.01085658e+181
-1.03315901e+181
-1.85559618e+181
2.14280493e+180
8.69428466e+180
3.70318023e+180
7.29923739e+180
2.43181429e+180
-8.43238332e+179
-2.29888544e+179
3.39425400e+179
-2.99943570e+178
1.16162154e+179
5.30162126e+178
6.27916448e+177
8.64062812e+175
-9.88102932e+175
1.45969117e+176
4.69082713e+175
-3.28508470e+175
-1.28241043e+175
-2.36578088e+174
9.92029805e+173
-2.17186945e+173
-3.67737293e+172
-2.55111368e+172
-4.26177417e+171
-7.80490908e+170
-1.29280192e+171
1.31710792e+171
3.18053447e+180
7.14536001e+180
-1.26480205e+181
-4.40704996e+181
-2.95723337e+178
1.07348768e+182
-1.79813713e+182
1.96521290e+182
1.26253643e+182
1.15626296e+182
4.55707930e+181
-1.99808946e+181
3.32281630e+182
8.01589665e+180
1.28878271e+182
-9.03227823e+182
-1.73358576e+182
2.15027070e+181
1.26397519e+182
-5.15929905e+183
9.56847609e+183
1.57501789e+184
-7.26321114e+183
4.00585057e+184
1.61833247e+185
2.18168446e+185
8.14133981e+185
1.59334406e+185
-6.81014570e+185
-8.06699433e+185
-2.65167498e+186
-2.68030255e+186
2.83574278e+186
2.38716649e+186
-4.49544120e+186
-9.29159827e+186
-2.40982352e+186
-1.42225489e+187
-8.20344448e+187
1.21285178e+188
9.16665822e+187
-5.24253510e+187
3.91784957e+187
-2.25501672e+186
1.06859193e+186
2.69147216e+186
-5.92224224e+186
6.64031743e+186
8.50971750e+186
3.70343900e+185
-4.18694907e+187
3.61785117e+186
-3.68052281e+186
-3.26085636e+186
1.59117441e+186
-1.21602443e+187
2.05493410e+187
-1.61961574e+187
-1.30495095e+187
1.93423638e+187
1.15365105e+187
-7.56140310e+185
-5.38312439e+186
-1.30477753e+186
-4.66193474e+186
-2.14262794e+187
6.97118927e+186
-5.76297748e+185
-1.31736532e+186
5.84573123e+185
9.17227300e+184
-1.62756092e+185
3.57190673e+184
-4.26946586e+183
5.31181644e+183
5.39387352e+183
6.12845477e+182
-1.62851264e+183
4.22684831e+183
-1.65766386e+184
6.61472369e+183
1.10054246e+184
1.81462630e+184
1.80131394e+184
7.75063236e+183
1.38656182e+184
1.09468526e+184
8.76834253e+183
-6.82289161e+183
-1.02860149e+184
-6.61078705e+183
1.27031252e+184
-2.53671885e+183
3.24411369e+183
-1.91862689e+183
-1.24348621e+183
-2.68762368e+182
-6.39600277e+181
4.30895909e+181
3.43730481e+181
-1.66017686e+181
-1.72156271e+181
-1.01098100e+181
-1.14934550e+181
-6.42305691e+180
-3.70268289e+180
2.62988027e+180
-1.51156764e+180
1.29329497e+180
2.59911214e+178
-2.85958339e+179
-7.18542033e+178
5.02126840e+176
1.08590880e+177
1.12551399e+177
-4.83035368e+176
1.23206122e+176
9.09963421e+174
-1.74552720e+175
-1.90467769e+175
-1.43938048e+174
-2.36941938e+173
1.65297223e+173
-1.60800849e+173
-7.85275281e+171
9.60432180e+170
-7.38578817e+171
1.78279615e+171
-2.11337178e+181
1.97977660e+181
-1.81167328e+182
2.31576261e+182
-1.32799774e+182
-2.46302254e+182
-1.24827356e+181
-2.58854952e+182
-4.94484469e+182
1.25550832e+182
7.27896690e+181
2.52289073e+181
-1.06582808e+182
-5.11650595e+181
2.21359794e+182
-3.08984451e+181
5.98810831e+182
6.15665178e+181
-4.19276780e+181
-5.00538361e+183
1.08235568e+184
-4.03119986e+184
-2.29701008e+185
7.14612727e+185
1.63698668e+186
-2.24125035e+185
-2.97091750e+185
-1.48974127e+186
1.16163629e+185
3.44441978e+185
-6.17088271e+185
-3.45384120e+186
3.60610806e+187
1.79505707e+187
-3.54722139e+186
-1.77685024e+186
3.86375762e+186
3.82112352e+186
-1.24391230e+186
-1.49752742e+187
-5.86811208e+187
2.49751223e+187
3.66537844e+187
2.90024519e+186
-1.05513009e+186
-2.09076656e+186
-4.43428397e+186
4.59022968e+185
-5.93118400e+186
3.47431905e+187
4.36291252e+187
-4.13464729e+187
3.88803311e+186
1.02178743e+186
-3.75460944e+186
-3.53676097e+186
3.79661685e+186
-2.05739126e+186
3.01189975e+186
1.03072471e+187
-1.49173776e+187
1.93332436e+187
3.13530741e+186
2.33382843e+187
-3.43524322e+186
-1.51720894e+186
6.22750029e+186
-2.47471907e+186
2.86947237e+186
5.53088540e+185
6.58492690e+185
-6.83105746e+185
-7.27314382e+184
-1.97598212e+184
8.28096074e+183
1.88657948e+183
-1.40559912e+184
2.08301254e+183
5.26888445e+183
1.83366231e+183
4.93813079e+183
-1.15440918e+184
-2.67429979e+184
-7.66830775e+183
-1.08826380e+184
-4.56957813e+184
-6.88437660e+183
-3.97026371e+184
3.68624026e+184
-2.89823825e+184
-4.54645316e+184
-3.43749163e+184
6.37809485e+183
8.88050915e+183
-4.33293048e+182
-6.59181679e+182
-1.48967661e+183
-4.57433322e+182
-2.79387590e+181
3.52339921e+181
1.31358370e+182
-1.09708516e+181
6.74614290e+180
1.84066639e+181
-9.60873931e+180
-8.86382124e+180
1.60360691e+181
-6.55213068e+180
2.51940920e+179
5.95016571e+178
2.59709715e+179
1.57435534e+178
-3.28876913e+178
2.91393466e+177
1.05142333e+177
-2.49006151e+176
-3.40387594e+176
2.36117905e+175
6.61114345e+175
1.85797794e+175
2.11765968e+175
-1.52690625e+175
4.10259569e+173
-2.83461664e+173
3.76323787e+171
1.49822443e+172
2.39221492e+171
-6.84694133e+170
3.52856505e+180
4.89806515e+181
-3.67336128e+182
7.05068174e+182
3.06804690e+182
-2.24790121e+182
-5.14109662e+181
-8.20250684e+181
5.54218414e+182
2.21559509e+182
2.14552103e+182
3.71126914e+181
-4.61946906e+182
6.59588400e+180
-1.43492380e+183
3.85364040e+182
3.47382799e+182
1.57459845e+182
-1.66873277e+183
2.06370831e+182
2.60148062e+183
2.68291203e+184
4.90024604e+185
-5.07918873e+186
6.01480803e+185
1.28854334e+185
4.48733396e+185
1.98730314e+186
1.08104704e+185
1.07709597e+186
2.49273192e+186
5.48797948e+186
5.71956094e+186
-1.13678638e+188
-2.37100673e+186
3.12482004e+186
-5.09455941e+186
9.75757174e+186
-3.96509766e+186
5.55830381e+187
-1.52061183e+187
3.93878022e+187
-1.02406683e+188
-1.13650801e+187
-3.11443394e+186
7.66578866e+185
1.94803570e+187
-1.35459616e+187
4.98198428e+187
-5.31650712e+187
2.47164911e+187
-3.58943694e+187
1.64231646e+187
2.45446705e+186
8.50336682e+185
8.76106275e+185
-1.01751407e+187
-2.00903605e+186
3.69143044e+186
-9.57342039e+186
-1.22050806e+187
3.84488016e+187
-3.68564678e+187
1.01420478e+187
7.82733435e+186
3.13073154e+185
-2.30550514e+186
-3.46070435e+185
1.71765143e+186
-2.62780653e+186
2.09337628e+186
-8.35975260e+185
-4.68080221e+184
-4.79438413e+183
-3.11420720e+183
-1.11761413e+183
3.44107029e+183
6.70957750e+183
-5.70389124e+182
4.27610127e+184
1.67163275e+185
6.48585202e+184
1.45407615e+185
1.09298546e+185
-5.73588627e+184
1.00099649e+184
-2.98653831e+184
-1.90727807e+184
5.09160967e+184
5.59159935e+184
5.49123541e+184
-4.09347510e+184
9.47792969e+182
3.46382633e+184
-3.40276788e+184
-1.85689991e+184
1.13131967e+183
-2.76329864e+183
-3.52705756e+182
-1.09197918e+182
-1.12086256e+182
1.49761682e+181
-6.97288516e+180
-5.49240022e+180
8.67956984e+179
9.28895290e+179
2.48238519e+180
-3.31531000e+180
-1.36638124e+179
-4.58584095e+179
2.65464151e+179
-3.64107717e+178
1.45762483e+177
2.39177490e+177
2.36208384e+177
-2.47804580e+176
-5.48349518e+176
6.91384649e+175
2.15306366e+175
-5.52851877e+175
1.07909644e+176
-5.75982395e+175
1.65356293e+174
1.46625284e+173
-9.15547777e+172
-7.81974319e+171
-7.94626823e+171
2.51234223e+171
6.64091851e+181
7.73683457e+181
-1.23485962e+182
-2.58676346e+181
-3.11064035e+182
2.07798169e+182
-2.80289088e+182
3.86604945e+182
1.65267901e+182
-8.84282709e+181
-5.33857286e+182
-4.77868248e+182
-5.32417402e+182
7.06564599e+182
-1.31470628e+183
4.70211645e+183
-2.73274601e+183
1.78712848e+183
-1.39611353e+182
5.41502662e+183
-2.08157052e+184
4.52733229e+184
1.62884901e+186
6.91901579e+185
-3.59934478e+185
-1.88537427e+185
-7.69066403e+184
-1.12442273e+186
-1.36405595e+186
-2.44365666e+186
2.65915599e+186
1.05673936e+188
8.19082050e+188
3.45177992e+188
2.52556724e+188
2.54899842e+187
6.12089852e+187
4.51089417e+187
-4.92057287e+186
1.13231616e+187
-3.68008221e+187
-2.74106509e+187
6.04986521e+187
-7.84299217e+186
4.09982698e+187
1.09019013e+187
3.40511098e+186
-6.73957711e+187
6.19333535e+187
7.48491164e+187
-4.07558152e+188
-4.61402001e+188
2.06225079e+187
9.40792737e+186
-2.22481115e+186
1.96456436e+186
-8.84372919e+185
4.77363326e+186
1.76692034e+186
-7.84261578e+186
2.71280470e+187
-3.40504159e+187
-1.01584974e+187
-4.27601749e+187
1.27825273e+187
4.14343607e+186
1.59961128e+186
4.71254125e+185
-1.09282324e+186
1.17828059e+186
3.53939680e+186
-1.93510134e+186
1.17466055e+185
1.11484273e+185
4.17796918e+184
1.17339970e+184
9.24130992e+183
6.35081828e+183
4.06173823e+184
5.89865391e+184
-1.61681433e+185
-1.51482053e+185
-4.42830549e+185
5.29940514e+185
-1.57837537e+185
8.15438736e+184
1.15289841e+185
3.25831298e+184
-1.38792836e+185
1.25397084e+184
2.95812991e+184
1.91351671e+184
5.74554562e+183
8.99310022e+183
-1.12287312e+184
7.62587964e+184
-2.97955188e+183
1.54208796e+184
2.77302517e+183
-1.51654763e+182
1.23338140e+182
-1.07956153e+181
-1.11816983e+181
-1.82127877e+181
6.73459364e+180
-2.54135428e+179
-6.93776997e+179
-4.28892894e+180
-6.94650733e+179
-4.01058914e+180
-5.57471160e+179
-9.05433472e+178
-3.86111552e+178
-1.39271911e+178
3.64395735e+177
-3.51951809e+176
1.90293409e+177
-9.48021153e+175
-6.62471659e+175
1.79104124e+175
4.57716045e+174
-2.12547390e+174
4.94856535e+174
-4.90480701e+173
-3.93580398e+173
-6.10535136e+171
3.15458282e+172
-2.42550818e+171
-4.63719099e+181
-6.10299779e+181
-9.24695139e+181
3.52334641e+182
-5.59107904e+182
3.01041875e+181
-4.35815332e+182
-1.75420848e+181
-6.56115180e+182
-2.95168556e+183
1.41662457e+181
-1.13115820e+183
1.05187799e+183
2.87114770e+182
1.75929507e+182
-1.37572967e+182
-2.43286083e+183
3.51980797e+183
1.63363525e+183
-1.40354961e+184
-8.92771116e+183
2.51411403e+184
-5.78621271e+184
-7.03062442e+184
-1.41187810e+184
-6.94859021e+183
1.48085124e+183
2.12295108e+185
-3.21414953e+185
3.80445071e+186
-5.72828194e+186
4.65121634e+188
-9.63820468e+188
-7.48740623e+188
-1.26866975e+188
-9.75357095e+187
-9.51000649e+187
-8.37762999e+187
2.41240974e+187
6.68007156e+187
8.60419990e+187
1.53543941e+188
6.15218477e+187
-1.84865292e+188
4.13811027e+187
6.13352262e+186
-8.34469108e+186
1.02831897e+186
-3.54146382e+187
5.02159682e+187
1.46685313e+189
3.91918527e+187
2.31597358e+187
-1.60530817e+187
1.06124568e+187
7.60587524e+186
-1.49143213e+187
-1.15045945e+186
-6.56597143e+186
-2.95839904e+187
6.06964307e+187
-2.04196069e+187
9.93988312e+186
-1.30035822e+187
7.51146638e+186
-9.73100869e+186
-9.98609326e+185
9.40414408e+186
-9.94273271e+186
7.50982167e+186
-2.14776100e+186
9.02351426e+186
-5.70245913e+186
-8.81640855e+184
1.68801785e+184
3.37722584e+184
-5.00809974e+183
-2.16227614e+184
-6.05094984e+184
-1.80235684e+185
-6.08521648e+185
-2.91709936e+186
-4.49074542e+185
2.38091015e+184
1.19597753e+185
3.16120872e+185
1.21143078e+184
1.60585534e+185
-4.02492570e+184
1.36170116e+184
1.77128430e+183
-2.72436861e+184
-2.03652269e+184
-2.82561927e+183
1.71294232e+183
-1.65902073e+184
-3.16931909e+184
-3.24459959e+184
2.79022121e+184
4.50089417e+182
3.91964686e+181
-4.34198435e+180
3.46025669e+181
3.70611682e+181
3.09889229e+181
1.28470449e+181
1.63583781e+181
-1.27578837e+181
4.22057707e+180
3.91777736e+180
-2.87061407e+179
1.94584428e+179
-1.42451517e+178
-2.44951553e+178
2.04903659e+177
2.03332430e+176
-4.44430008e+176
-1.08085529e+177
2.49594293e+176
-1.29681187e+176
-3.20140271e+175
2.20400518e+175
7.57129975e+173
1.72652552e+174
7.57406015e+173
5.88891584e+172
-2.61101449e+170
-5.92620776e+171
2.26104975e+181
2.88871898e+180
3.71593567e+182
3.22032493e+182
-3.64259045e+182
2.39986662e+182
1.63637173e+182
4.66133988e+182
-1.22863103e+182
2.59804016e+183
8.30557686e+183
-1.76227464e+183
-6.17940631e+182
1.04850626e+183
5.14342777e+182
1.41353646e+183
1.70148070e+183
2.24389098e+183
-9.03235393e+183
4.53096801e+184
2.03533183e+184
1.07179124e+185
2.17908849e+185
2.52848732e+185
5.13352355e+185
1.45525295e+186
1.72225435e+185
2.28247584e+185
2.66158060e+186
-1.02705147e+187
8.28886297e+186
-1.76263117e+188
-3.34791045e+188
7.67225456e+188
-2.87378369e+188
-2.41296632e+188
-1.34379134e+188
-5.07748987e+187
-6.29698174e+187
-7.08912309e+187
-3.40191209e+187
-9.47581764e+187
1.73126249e+187
-1.51741538e+187
-1.22362251e+186
1.73474423e+187
7.43277994e+186
5.42024438e+187
-8.50048091e+187
-4.66858670e+188
-6.02892471e+188
3.68819084e+187
4.00366804e+187
-1.15257609e+188
-6.45264215e+187
-2.45627322e+187
2.44964919e+187
1.04214484e+187
3.69519956e+187
-7.88930630e+187
2.38939394e+187
1.48920645e+187
1.79632867e+184
-6.15985726e+186
1.29546739e+187
9.66011584e+186
8.34616673e+186
3.08855310e+187
-6.08063463e+187
2.05304000e+187
-2.15322266e+187
3.44223468e+187
-1.24727387e+187
-1.47441133e+186
-4.06521415e+185
-6.15430651e+184
2.04374147e+184
-1.53989572e+183
5.87671798e+184
6.38961421e+184
-2.83546658e+186
4.92621449e+186
1.97048927e+186
-2.80882344e+185
-2.47787428e+184
-3.09070310e+185
-1.20657572e+186
-3.25803571e+186
1.24755318e+185
2.16346449e+185
-2.04914636e+185
-8.79708597e+184
3.32530000e+184
4.14878777e+184
-1.64803570e+184
-3.39325014e+182
1.26277484e+184
-3.00138491e+184
1.31689050e+184
-1.17654852e+183
-2.90125440e+182
-1.69588970e+182
-3.59623373e+181
-8.50358522e+181
-2.22688915e+181
-2.85334953e+181
4.90687978e+181
-3.28940199e+180
-5.82959148e+180
8.06393610e+179
3.73903212e+179
2.28585739e+179
-4.54073083e+178
-4.52051598e+177
1.95774451e+177
-1.80243690e+177
7.81470647e+176
4.12259179e+176
5.95661137e+176
-3.90808879e+176
2.13416578e+175
3.09581357e+175
1.23223175e+174
-5.22134785e+174
-3.54719545e+174
4.60948725e+172
2.18646767e+172
1.70449548e+172
-4.93070497e+181
-8.56601250e+181
-8.61466881e+182
-2.94953896e+181
3.05919917e+182
1.79498058e+182
1.08127212e+182
2.62318012e+183
-2.86551652e+183
4.88323944e+182
-5.29208161e+183
-1.42688029e+183
-3.80954744e+183
3.06717408e+183
2.27396531e+183
-3.21194298e+182
7.06481060e+182
1.11881588e+184
5.91216892e+184
5.30108049e+183
-1.14238164e+185
-1.07688677e+185
-3.34954009e+185
-3.98658966e+185
-8.30680546e+185
-1.35474495e+186
-2.20997699e+186
1.30858085e+186
4.11967464e+186
5.79644490e+186
-1.17118177e+186
-7.31077122e+187
2.05222093e+187
-5.48464276e+188
-8.44173025e+188
5.39509007e+188
2.53277878e+188
-1.77651060e+187
-7.12162905e+187
3.22489293e+187
8.33064995e+186
-3.13615565e+187
-1.52484756e+188
1.33240465e+188
1.95194915e+189
3.64453795e+188
-5.68960450e+186
3.57470321e+187
2.25721469e+188
2.87238056e+188
3.14093140e+188
5.60273414e+187
1.37455037e+188
8.02974405e+187
-7.65789234e+187
1.19707322e+187
-5.23658542e+186
-1.20728684e+187
2.48375682e+187
2.23789326e+187
1.53591070e+187
1.77123311e+187
1.43218090e+188
7.63270718e+187
1.09051189e+188
-3.85512599e+185
-2.11948927e+187
-8.41188716e+186
-1.82099652e+187
-4.49924190e+187
-1.53367427e+187
-1.77628303e+187
1.11542860e+186
1.39079311e+186
-9.22831217e+185
-1.07293838e+185
1.29601244e+185
2.13133620e+184
-6.35100674e+184
-2.51584317e+185
-2.94340067e+185
1.28697891e+186
-4.71652246e+186
2.29072850e+186
-8.10567478e+184
-7.30220469e+185
1.17101821e+187
-1.09476223e+186
3.21725991e+186
-9.34072272e+185
2.70128609e+185
-6.18502967e+183
-1.60479243e+184
-3.31728989e+184
-2.99814439e+184
-3.21751351e+184
-2.87213789e+184
2.78468254e+183
1.38079522e+184
-5.73961082e+183
1.03671934e+182
6.22632741e+182
-2.59695858e+182
-2.05730267e+182
-4.51483986e+181
-2.64211725e+182
-6.50954359e+180
-9.25764679e+180
6.53906978e+180
1.85946294e+180
-4.18509931e+179
-9.98505263e+178
1.25538728e+178
8.09498808e+177
1.46702098e+178
-3.81504671e+177
-1.05573714e+177
-1.83539075e+176
-1.21484747e+176
1.13638734e+176
-2.22909824e+176
1.67282314e+175
-1.51446097e+174
1.59713280e+175
-5.69303821e+173
1.20280219e+170
1.31089915e+173
3.43056307e+172
3.08098593e+181
3.52918534e+182
1.65385492e+182
1.55924502e+182
-1.48505984e+182
-5.93504920e+182
-5.34242655e+182
8.55188829e+182
-3.59840443e+183
4.82326794e+182
5.02061270e+182
3.83891362e+183
-3.10504002e+182
1.54640314e+183
5.13364350e+183
-1.00064044e+184
3.61306278e+184
-1.23697814e+185
-1.78319585e+185
-6.15241795e+185
2.60040599e+186
1.26559722e+186
-8.97558978e+186
8.40815047e+186
2.16821866e+185
-8.61547544e+185
1.05802707e+186
1.23307894e+187
-2.38441491e+187
-4.38727566e+186
-4.48502307e+187
-1.54105941e+188
1.51959365e+188
2.62520365e+188
8.16167494e+188
5.37230407e+185
2.41029168e+188
-1.31314721e+188
6.14473358e+187
3.70587482e+187
-1.95834897e+187
-9.84442682e+187
7.37782738e+187
-1.33939512e+189
-2.92739807e+189
2.08847591e+189
-1.41094902e+188
-1.19580231e+188
2.44115123e+188
-2.63368758e+188
-5.86459389e+188
-3.84684135e+188
2.89054666e+188
-1.41058521e+188
-2.45515685e+188
-1.41859305e+188
-1.51928746e+188
-1.48748254e+188
-2.65907611e+187
-9.76446965e+186
-9.30300461e+186
5.65575990e+187
-1.43960428e+188
-2.02274458e+188
-4.14140794e+187
-1.33381083e+187
1.76850926e+187
3.24930091e+187
3.29661777e+187
5.51323565e+187
-1.46891878e+186
1.41815468e+187
2.76485168e+187
3.17066882e+187
1.48868255e+186
-1.87556987e+186
9.32512586e+184
3.18081892e+185
2.68283596e+185
4.10551209e+185
6.56959576e+185
1.09987087e+186
3.75671900e+186
6.45934502e+186
-2.87866990e+186
-2.22094291e+186
3.93137763e+185
-1.22112296e+187
6.78820170e+185
-1.40400129e+186
8.25202779e+184
-1.65159529e+185
1.07297789e+185
-8.77712790e+183
1.87632885e+185
-4.60466800e+184
-4.37698060e+184
1.83344331e+184
-1.68524594e+184
-7.01802455e+182
-9.33280302e+182
5.38233031e+182
8.91497314e+182
2.11739339e+181
9.97498159e+182
1.69220795e+182
1.78136630e+182
-1.13016138e+181
9.93137601e+180
-8.20488017e+179
-1.29903953e+179
-1.59138826e+179
-2.42409686e+178
-2.49607075e+177
-1.65690658e+177
-1.31610758e+178
9.64622875e+177
6.73531592e+176
2.09778499e+176
2.37898502e+176
1.56865721e+175
3.96518255e+174
-2.38929095e+174
-2.60526113e+174
-1.81898737e+174
-2.18792569e+173
-6.84451851e+172
1.62226210e+172
-5.86923829e+181
-2.28114970e+179
-1.81346775e+182
2.45662249e+182
6.99598429e+181
-6.82585898e+181
9.55450324e+182
4.50587291e+183
-4.58381291e+183
2.06348846e+182
4.07341368e+183
3.68535818e+183
-7.97015090e+184
-3.06092813e+184
3.68224756e+183
5.49449703e+182
1.63738009e+185
1.10060669e+185
2.16987362e+185
2.95232297e+186
9.86628374e+186
-1.84316922e+187
-6.41494973e+186
-2.50501665e+187
3.81826971e+187
-6.41775570e+186
1.58414684e+186
7.67029592e+186
-2.78129847e+187
-1.74758482e+186
3.38770599e+187
4.15365490e+187
1.54907622e+188
-1.49089548e+188
-3.91340885e+187
5.14903552e+186
-1.34236532e+188
-2.11913214e+188
2.15885874e+187
-1.25958272e+188
1.32526749e+188
2.87203780e+188
-1.42708585e+189
2.46251168e+189
-1.50970987e+189
-1.14459174e+187
8.90647827e+187
7.84839542e+187
-5.31870693e+188
8.03989745e+188
-2.84779088e+188
-1.11146661e+189
1.46270300e+189
-6.91273617e+188
2.56694592e+188
2.58635157e+188
3.52657814e+188
-1.74148933e+187
1.59094104e+187
4.80631562e+187
-1.02691916e+187
-7.25725977e+187
-4.47618055e+187
1.42059923e+188
-2.10077965e+187
-5.99808048e+187
4.80814342e+186
2.82616773e+187
-4.47704904e+187
3.99177267e+187
-4.17952791e+187
7.11369106e+187
-1.65956592e+188
2.05844544e+187
2.67579127e+186
-3.82325558e+186
-1.58723158e+185
2.12193782e+185
6.68741253e+185
8.04931559e+185
-4.39537256e+185
-2.68963098e+186
1.14678402e+185
-5.05553705e+186
-7.91963576e+185
9.73865560e+184
-3.95153870e+184
4.07341049e+186
2.93931473e+186
8.41286801e+184
1.14324824e+186
-2.97919586e+185
-2.19089788e+186
-2.15407916e+186
1.35842665e+187
1.36488577e+185
3.97125072e+183
8.26883177e+183
4.25321811e+184
-1.97129907e+184
-5.34971490e+183
1.74757416e+183
-1.76562970e+182
-7.31725135e+182
-3.72407094e+182
-3.68326697e+182
-2.19620002e+182
2.30249079e+181
1.45082197e+181
-5.85777407e+179
4.07150594e+179
5.52493915e+177
-9.79961145e+178
-1.45729591e+179
-1.62552632e+178
-9.06639233e+178
2.47221628e+178
4.32381640e+177
-1.78237503e+176
3.10625217e+176
-1.17890339e+175
-6.03498182e+175
5.86587280e+174
3.70057817e+174
-2.21480766e+174
-4.87239812e+174
-2.44261942e+174
-1.96515458e+174
-9.89150377e+181
3.08924677e+181
2.56291403e+182
-8.62634019e+181
-3.07796447e+182
3.90340350e+182
9.35913437e+179
4.00117074e+182
9.22354005e+182
-1.48838103e+183
-4.35847141e+182
-4.57650669e+183
-3.01982687e+184
2.23802278e+185
-1.54320685e+184
7.67012232e+184
1.12022922e+185
1.83863350e+185
-1.24898739e+186
-3.75189518e+186
2.71277161e+187
-5.02947700e+187
5.24954335e+185
-1.21786830e+188
5.43203464e+187
1.07534632e+188
-4.22769239e+188
1.57246358e+188
2.95608680e+187
8.44020549e+187
-1.43443354e+188
-2.60187861e+188
5.00186712e+188
-2.68675901e+188
-3.84217500e+188
-4.31414266e+188
-4.19192930e+188
2.91286841e+188
-5.28994872e+187
-2.08088822e+187
-3.56115559e+188
2.31197533e+189
-2.98277071e+189
-1.34534809e+189
2.56304421e+187
-7.65377178e+187
3.48853076e+188
-8.47586578e+188
-2.02929327e+189
-8.16722419e+189
-5.44778271e+188
1.94866550e+189
1.68025235e+189
-3.15736596e+189
2.28123347e+189
9.87984565e+187
3.68515240e+188
1.80938932e+187
-3.98865729e+187
-1.89794881e+187
-9.62225186e+186
-1.50437857e+186
-3.18929495e+187
-1.47567562e+188
-1.27950025e+188
6.01271403e+187
-1.99293961e+188
5.45692797e+187
-1.29008092e+188
1.83067815e+188
-2.11372833e+188
2.21834750e+188
-2.02342472e+188
7.68672032e+187
9.17857350e+186
-5.06413023e+186
-1.16552521e+186
-2.04588762e+186
8.01607573e+185
3.22346835e+186
2.24931222e+185
-8.30875141e+186
5.78405048e+186
-9.53946611e+185
-9.58276102e+185
-2.46990074e+185
1.95715461e+186
2.26545921e+186
1.96240872e+186
-2.44153062e+186
-4.37038493e+186
-7.80638989e+185
1.40847268e+187
-4.64649271e+187
1.38914313e+187
1.41910744e+184
-6.08746497e+183
8.00346278e+183
6.48271992e+184
-1.90855804e+185
6.18445040e+184
-9.15479467e+184
1.00039499e+184
1.32195268e+184
-4.39288926e+183
-8.10795367e+182
6.35886019e+181
-7.06360992e+181
-9.81251691e+180
1.10197813e+181
4.66724306e+179
-3.46294414e+178
2.85898086e+179
2.09845510e+179
4.37667640e+178
-2.18157203e+178
-1.35110987e+178
2.21722345e+178
-1.14959614e+177
3.97856354e+176
-7.33512163e+175
1.24737040e+176
2.94400183e+175
-5.91980866e+174
-4.11795706e+174
2.37870755e+174
7.74924859e+174
1.30631202e+174
1.20496956e+181
4.55046539e+182
-2.61294006e+182
-2.53011997e+182
-1.88806453e+182
-2.56175713e+182
-2.63232355e+182
-2.41169416e+182
6.00219261e+182
1.83086023e+183
6.11861212e+182
-5.38590685e+182
7.32861307e+183
7.44530052e+183
-1.87226496e+186
-6.37303532e+186
-2.39888049e+186
1.22365464e+187
6.89266025e+186
-2.96898709e+186
3.11553478e+187
-2.71387558e+187
-1.41948046e+188
-2.20699764e+187
5.44470979e+188
-9.58497647e+188
-1.42506560e+188
-9.32485124e+188
3.83990362e+188
1.28369666e+188
-3.93855188e+188
-4.06514383e+187
-5.88397609e+188
-2.81641925e+188
5.54511850e+188
9.07386006e+188
6.13999364e+188
3.84791864e+187
-3.33376042e+188
2.40679063e+188
-5.78527968e+188
7.01629735e+188
2.00620877e+189
2.52547989e+188
-3.75277772e+188
-7.65442619e+188
1.09405369e+189
-2.60911139e+188
6.51146733e+189
9.44007803e+189
-6.36932986e+189
-9.17811882e+188
-5.87487591e+189
5.81312401e+189
-1.86632444e+189
-1.84521949e+189
1.83511161e+188
7.16746203e+187
3.41373916e+187
6.79789417e+187
6.50075265e+186
4.67484678e+186
7.95251208e+187
7.16103999e+186
1.39022173e+188
3.61739213e+187
1.36680605e+188
2.81895021e+189
3.58907043e+189
8.92375028e+189
1.10869140e+189
1.91474873e+187
-5.52248565e+187
6.52271706e+187
1.32814295e+188
-1.06149370e+187
7.40668460e+186
-2.60529828e+186
-5.45085027e+186
-3.41601262e+186
9.62067908e+186
-8.59841031e+186
1.22445573e+186
-2.07671761e+186
-6.56985330e+186
1.01558519e+187
-5.48950115e+186
-8.99877795e+186
-8.73425914e+185
-1.54731718e+186
1.03728961e+187
-2.19654235e+186
1.26152589e+187
-2.31215283e+186
-1.91339434e+186
-7.87501596e+183
1.73718466e+184
1.52909876e+183
-9.55008318e+183
-1.66002306e+184
5.24980368e+184
-9.32630683e+184
3.15526126e+185
-8.66156712e+184
6.57024685e+183
-3.23034191e+183
2.91993743e+182
-6.58414383e+181
-1.59503206e+181
2.00110472e+181
-2.18780549e+180
-2.41623230e+179
-1.59388168e+179
3.67462153e+178
5.95518288e+178
1.19594871e+178
-3.69431059e+178
3.40574545e+178
6.34562483e+176
2.21801384e+176
-4.90140804e+176
4.16819582e+175
1.55722837e+176
-6.95869283e+175
4.19308026e+175
-7.83357881e+174
-9.28538301e+174
-1.39842334e+175
4.49668803e+181
-1.50385169e+182
-5.46202179e+182
-8.15055369e+182
-3.30190534e+183
1.44725190e+183
2.27263662e+183
8.80683748e+183
-5.94199802e+183
7.88506108e+183
-9.34966763e+183
2.27576284e+184
2.56878829e+184
2.62351646e+184
3.15155941e+186
1.26378039e+187
3.67411145e+186
2.36336373e+186
-2.71662108e+187
-1.39711741e+187
-1.46266978e+187
-1.66821749e+188
-9.63307369e+187
3.47916273e+188
1.77047889e+189
-6.92691396e+188
1.96384655e+189
-5.23344762e+188
3.91262460e+188
6.07582950e+188
7.78740675e+188
5.87014131e+188
1.25112059e+188
5.51043300e+188
-4.89756002e+188
1.33902519e+187
5.51927211e+187
-1.25690358e+186
1.10093134e+189
-1.75587478e+188
2.40144575e+187
3.28648796e+188
2.28925940e+187
2.35112553e+188
5.63442269e+188
1.95847195e+189
6.59566224e+189
9.55979447e+190
1.92472918e+190
2.68740346e+189
6.94844026e+187
-9.57069080e+188
6.48223948e+189
2.87180118e+189
-6.24001110e+189
1.47192147e+189
4.06441525e+188
3.46768130e+187
-2.66561761e+188
-2.43354758e+187
1.03671726e+187
4.88933626e+187
-3.03671045e+187
5.41723980e+187
4.96798605e+187
-8.74925643e+187
-1.69506427e+189
-1.08069908e+189
-8.38304445e+189
-1.03570767e+190
4.93142739e+189
1.07622339e+187
6.90497849e+187
-4.04147981e+188
9.55190277e+187
-2.51623807e+185
7.50485484e+186
-9.54125491e+186
1.38790949e+186
-9.27207414e+186
1.97502654e+187
2.14107583e+186
1.51306469e+187
1.02700249e+187
-2.69898983e+186
-2.48418253e+185
-1.81916747e+187
6.32687478e+186
6.08044809e+186
-3.43131440e+186
-5.96858024e+186
4.89348867e+186
3.62479781e+184
-1.84400946e+185
8.80988844e+183
5.30659784e+184
1.00404962e+184
-6.67118657e+183
2.82036021e+183
2.50686623e+183
-8.22345541e+183
6.84980538e+183
1.76150609e+184
-9.80163663e+184
1.95141147e+183
-4.27058021e+182
-3.10012142e+182
2.04482067e+182
-5.09226715e+181
1.47495517e+181
-9.84957461e+179
2.36813842e+180
-4.60882346e+179
1.51824024e+179
-3.93983876e+178
-3.74288312e+178
-4.25975274e+178
2.11716225e+178
8.45515889e+177
-1.54145209e+177
-2.58075660e+176
-3.24783144e+176
1.89767665e+176
8.21206451e+175
2.06365597e+175
2.33742923e+174
9.92201976e+174
3.19678202e+175
-1.68859157e+181
5.82792265e+181
9.95827714e+182
9.72576949e+182
8.22075563e+183
1.87178477e+184
1.20795513e+184
2.08779409e+184
1.39446581e+185
6.84998202e+185
1.08431550e+186
1.29636947e+186
3.35803204e+186
-2.76443667e+185
-1.31618161e+183
-6.26555609e+186
-5.48336809e+185
-1.05458680e+187
5.73054654e+187
1.12419103e+188
-7.66631756e+187
-3.62200682e+188
3.88270131e+188
5.32991254e+188
6.15084113e+188
-5.80734399e+189