# vtk DataFile Version 2.0
LBM Flow Field - Timestep 640
ASCII
DATASET STRUCTURED_POINTS
DIMENSIONS 128 128 1
ORIGIN 0.0 0.0 0.0
SPACING 1.0 1.0 1.0
POINT_DATA 16384
SCALARS density double 1
LOOKUP_TABLE default
1.31953963e+00
1.30655793e+00
1.29098760e+00
1.27572348e+00
1.26041244e+00
1.24563522e+00
1.23079396e+00
1.21668206e+00
1.20250226e+00
1.18920745e+00
1.17585471e+00
1.16349754e+00
1.15110574e+00
1.13977301e+00
1.12844071e+00
1.11818489e+00
1.10797382e+00
1.09881435e+00
1.08974997e+00
1.08167618e+00
1.07375008e+00
1.06672530e+00
1.05989919e+00
1.05386568e+00
1.04807647e+00
1.04296066e+00
1.03812629e+00
1.03384401e+00
1.02986946e+00
1.02633082e+00
1.02311391e+00
1.02022753e+00
1.01766428e+00
1.01534076e+00
1.01332993e+00
1.01148453e+00
1.00993114e+00
1.00848565e+00
1.00730358e+00
1.00618751e+00
1.00530102e+00
1.00445211e+00
1.00379650e+00
1.00316087e+00
1.00268236e+00
1.00221420e+00
1.00186922e+00
1.00153033e+00
1.00128444e+00
1.00104352e+00
1.00087010e+00
1.00070202e+00
1.00058094e+00
1.00046593e+00
1.00038221e+00
1.00030506e+00
1.00024776e+00
1.00019700e+00
1.00015821e+00
1.00012546e+00
1.00009952e+00
1.00007877e+00
1.00006168e+00
1.00004874e+00
1.00003766e+00
1.00002971e+00
1.00002266e+00
1.00001783e+00
1.00001344e+00
1.00001053e+00
1.00000786e+00
1.00000612e+00
1.00000453e+00
1.00000350e+00
1.00000257e+00
1.00000196e+00
1.00000144e+00
1.00000108e+00
1.00000080e+00
1.00000059e+00
1.00000043e+00
1.00000031e+00
1.00000023e+00
1.00000017e+00
1.00000012e+00
1.00000009e+00
1.00000006e+00
1.00000004e+00
1.00000003e+00
1.00000002e+00
1.00000002e+00
1.00000001e+00
1.00000001e+00
1.00000001e+00
1.00000000e+00
1.00000000e+00
1.00000000e+00
1.00000000e+00
1.00000000e+00
1.00000000e+00
1.00000000e+00
1.00000000e+00
1.00000000e+00
1.00000000e+00
1.00000000e+00
1.00000000e+00
1.00000000e+00
1.00000000e+00
1.00000000e+00
1.00000000e+00
1.00000000e+00
1.00000000e+00
1.00000000e+00
1.00000000e+00
1.00000000e+00
1.00000000e+00
1.00000000e+00
1.00000000e+00
1.00000000e+00
1.00000000e+00
1.00000000e+00
1.00000000e+00
1.00000000e+00
1.00000000e+00
1.00000000e+00
1.00000000e+00
1.00000000e+00
1.00000000e+00
1.11506563e+00
1.09103807e+00
1.07312659e+00
1.06572239e+00
1.06130617e+00
1.05535253e+00
1.04911869e+00
1.04119909e+00
1.04449780e+00
1.04053706e+00
1.03657537e+00
1.04058613e+00
1.03455549e+00
1.03712569e+00
1.03296115e+00
1.03338831e+00
1.03284191e+00
1.03262019e+00
1.03733456e+00
1.02298066e+00
1.03484361e+00
1.03715344e+00
1.03449856e+00
1.03006407e+00
1.03221615e+00
1.03355346e+00
1.03135729e+00
1.03646648e+00
1.03681995e+00
1.03332981e+00
1.03184934e+00
1.03172645e+00
1.03242844e+00
1.03447920e+00
1.03742244e+00
1.02907703e+00
1.02322026e+00
1.03810238e+00
1.05158192e+00
1.04757441e+00
1.04030221e+00
1.03628721e+00
1.03874284e+00
1.03994049e+00
1.03413026e+00
1.03262211e+00
1.03511638e+00
1.03873013e+00
1.03743086e+00
1.03355807e+00
1.03550410e+00
1.03547529e+00
1.03541756e+00
1.03597004e+00
1.03471090e+00
1.03529969e+00
1.03561246e+00
1.03276662e+00
1.03485742e+00
1.03254248e+00
1.03324952e+00
1.03437229e+00
1.03368279e+00
1.03392803e+00
1.03004980e+00
1.03616561e+00
1.03334948e+00
1.02901555e+00
1.03418335e+00
1.03223371e+00
1.03008892e+00
1.03124755e+00
1.03046235e+00
1.03083733e+00
1.03223926e+00
1.02932555e+00
1.03075511e+00
1.02950110e+00
1.02865351e+00
1.02984141e+00
1.02930887e+00
1.03102087e+00
1.02958088e+00
1.02836044e+00
1.02790519e+00
1.02906642e+00
1.02969284e+00
1.02897099e+00
1.02655491e+00
1.02930273e+00
1.02855489e+00
1.02800372e+00
1.02801712e+00
1.02719979e+00
1.02674845e+00
1.02668895e+00
1.02839187e+00
1.02795318e+00
1.02549595e+00
1.02668911e+00
1.02795392e+00
1.02684049e+00
1.02618143e+00
1.02560680e+00
1.02577300e+00
1.02628838e+00
1.02522121e+00
1.02677213e+00
1.02551328e+00
1.02598396e+00
1.02528722e+00
1.02611843e+00
1.02602960e+00
1.02393003e+00
1.02328836e+00
1.02571291e+00
1.02560432e+00
1.02485457e+00
1.02413316e+00
1.02401758e+00
1.02468076e+00
1.02386487e+00
1.02434511e+00
1.02392177e+00
1.02227696e+00
1.02421240e+00
1.02255058e+00
1.02236786e+00
1.09053603e+00
1.08521886e+00
1.08047956e+00
1.06209894e+00
1.05475359e+00
1.05365214e+00
1.05516039e+00
1.04537885e+00
1.04229838e+00
1.03642964e+00
1.04372677e+00
1.03904878e+00
1.03147101e+00
1.03895494e+00
1.03378517e+00
1.03294189e+00
1.03557799e+00
1.02995559e+00
1.03142072e+00
1.03727332e+00
1.03354158e+00
1.02894511e+00
1.03802955e+00
1.03580015e+00
1.02816281e+00
1.03375491e+00
1.03604427e+00
1.03465654e+00
1.03147077e+00
1.03521329e+00
1.03557863e+00
1.03277979e+00
1.03467392e+00
1.03424686e+00
1.03180726e+00
1.02904156e+00
1.02828978e+00
1.03452817e+00
1.04107134e+00
1.03941385e+00
1.03795828e+00
1.04269975e+00
1.03920950e+00
1.03407905e+00
1.03323748e+00
1.03821384e+00
1.03844737e+00
1.03287252e+00
1.03455116e+00
1.03568233e+00
1.03722807e+00
1.03659676e+00
1.03410201e+00
1.03494054e+00
1.03492917e+00
1.03394056e+00
1.03558366e+00
1.03382884e+00
1.03102936e+00
1.03451595e+00
1.03350486e+00
1.03376708e+00
1.03087978e+00
1.03421079e+00
1.03434087e+00
1.02879383e+00
1.03573004e+00
1.03234028e+00
1.03203278e+00
1.03487354e+00
1.02850442e+00
1.03014075e+00
1.03179451e+00
1.02974813e+00
1.03200078e+00
1.03060409e+00
1.03036139e+00
1.03201948e+00
1.02765809e+00
1.03054065e+00
1.02821181e+00
1.02925201e+00
1.02931748e+00
1.03102165e+00
1.02907024e+00
1.02843063e+00
1.02687560e+00
1.02903919e+00
1.02755409e+00
1.02777447e+00
1.02730543e+00
1.02761742e+00
1.02831306e+00
1.02688304e+00
1.02730216e+00
1.02675089e+00
1.02822483e+00
1.02777308e+00
1.02765653e+00
1.02748467e+00
1.02618613e+00
1.02605551e+00
1.02561174e+00
1.02660920e+00
1.02769473e+00
1.02629379e+00
1.02402705e+00
1.02714485e+00
1.02685763e+00
1.02675306e+00
1.02455258e+00
1.02394780e+00
1.02639660e+00
1.02540250e+00
1.02284308e+00
1.02445625e+00
1.02481534e+00
1.02562278e+00
1.02353990e+00
1.02388271e+00
1.02414196e+00
1.02236231e+00
1.02387115e+00
1.02493362e+00
1.02304793e+00
1.02358394e+00
1.02339861e+00
1.02236947e+00
1.07501980e+00
1.07425281e+00
1.07411833e+00
1.06459054e+00
1.06031523e+00
1.05898936e+00
1.04661351e+00
1.03864713e+00
1.04889438e+00
1.04497678e+00
1.03704379e+00
1.03560284e+00
1.04093237e+00
1.03287576e+00
1.03504653e+00
1.03606403e+00
1.03286302e+00
1.03800553e+00
1.03113771e+00
1.03221906e+00
1.03241729e+00
1.03705807e+00
1.03240867e+00
1.03352329e+00
1.03503135e+00
1.03282259e+00
1.03284010e+00
1.03427368e+00
1.03257644e+00
1.03341384e+00
1.03567959e+00
1.03597640e+00
1.03508059e+00
1.03546576e+00
1.02860102e+00
1.02739456e+00
1.03494031e+00
1.03807811e+00
1.03179837e+00
1.03761568e+00
1.04386281e+00
1.03903113e+00
1.03233913e+00
1.03721268e+00
1.03989155e+00
1.03618518e+00
1.03628659e+00
1.03389042e+00
1.03580392e+00
1.03615874e+00
1.03575725e+00
1.03543202e+00
1.03504738e+00
1.03467268e+00
1.03474183e+00
1.03493874e+00
1.03230768e+00
1.03470605e+00
1.03367346e+00
1.03322265e+00
1.03400962e+00
1.03361583e+00
1.03265386e+00
1.03069192e+00
1.03383900e+00
1.03123997e+00
1.03053507e+00
1.03566348e+00
1.02900019e+00
1.03236017e+00
1.03360637e+00
1.03043790e+00
1.02898528e+00
1.02929246e+00
1.03116512e+00
1.03230246e+00
1.03030169e+00
1.03103818e+00
1.02825603e+00
1.02963407e+00
1.02879450e+00
1.02920670e+00
1.02864114e+00
1.02947263e+00
1.02778180e+00
1.02898181e+00
1.02919926e+00
1.02753851e+00
1.02678246e+00
1.02810484e+00
1.02906455e+00
1.02847116e+00
1.02800268e+00
1.02490908e+00
1.02695429e+00
1.02821027e+00
1.02935528e+00
1.02630732e+00
1.02625116e+00
1.02884240e+00
1.02753464e+00
1.02643941e+00
1.02656828e+00
1.02523120e+00
1.02751101e+00
1.02629121e+00
1.02554541e+00
1.02703628e+00
1.02510076e+00
1.02566512e+00
1.02638724e+00
1.02489949e+00
1.02437180e+00
1.02420722e+00
1.02385881e+00
1.02470937e+00
1.02376801e+00
1.02423673e+00
1.02343473e+00
1.02321583e+00
1.02434728e+00
1.02333279e+00
1.02362035e+00
1.02329241e+00
1.02285857e+00
1.02350264e+00
1.02258231e+00
1.02385699e+00
1.06837055e+00
1.06753294e+00
1.06358580e+00
1.06471188e+00
1.06698650e+00
1.05281647e+00
1.04515786e+00
1.05516061e+00
1.04527396e+00
1.03670745e+00
1.04179692e+00
1.03989761e+00
1.03995546e+00
1.03731881e+00
1.03463038e+00
1.03351383e+00
1.03683046e+00
1.03515689e+00
1.03176628e+00
1.03562437e+00
1.03018029e+00
1.03444975e+00
1.03211309e+00
1.03450814e+00
1.03015920e+00
1.03199146e+00
1.03146986e+00
1.03018091e+00
1.03525518e+00
1.03807169e+00
1.03675558e+00
1.03245978e+00
1.03357757e+00
1.03304556e+00
1.03181363e+00
1.03341118e+00
1.03045700e+00
1.03163577e+00
1.04171318e+00
1.04483743e+00
1.03933757e+00
1.03287979e+00
1.03440795e+00
1.03964878e+00
1.03882503e+00
1.03462434e+00
1.03544632e+00
1.03718259e+00
1.03753255e+00
1.03401942e+00
1.03396442e+00
1.03696762e+00
1.03704507e+00
1.03327695e+00
1.03157529e+00
1.03600743e+00
1.03334226e+00
1.03424194e+00
1.03742945e+00
1.03200780e+00
1.03283033e+00
1.03253030e+00
1.03553408e+00
1.03161191e+00
1.03014173e+00
1.03679513e+00
1.02633637e+00
1.03236871e+00
1.03393510e+00
1.03183503e+00
1.03220441e+00
1.03165739e+00
1.02923876e+00
1.03145341e+00
1.03028898e+00
1.02951001e+00
1.03021190e+00
1.03157138e+00
1.03079234e+00
1.02867219e+00
1.02659691e+00
1.02932163e+00
1.03054844e+00
1.03100350e+00
1.02802177e+00
1.02776840e+00
1.02908991e+00
1.02763312e+00
1.02760824e+00
1.02934833e+00
1.02801462e+00
1.02705442e+00
1.02953778e+00
1.02849514e+00
1.02794409e+00
1.02590226e+00
1.02688801e+00
1.02609359e+00
1.02750021e+00
1.02810914e+00
1.02662420e+00
1.02641409e+00
1.02801447e+00
1.02660138e+00
1.02641184e+00
1.02470512e+00
1.02423574e+00
1.02802000e+00
1.02575515e+00
1.02478977e+00
1.02376032e+00
1.02564177e+00
1.02589062e+00
1.02523357e+00
1.02400983e+00
1.02480513e+00
1.02279943e+00
1.02452507e+00
1.02435247e+00
1.02413763e+00
1.02343581e+00
1.02217282e+00
1.02355570e+00
1.02358784e+00
1.02302768e+00
1.02395835e+00
1.02206630e+00
1.02270511e+00
1.07101078e+00
1.05756096e+00
1.06414429e+00
1.06357447e+00
1.05194410e+00
1.05908766e+00
1.06003275e+00
1.04484926e+00
1.04354991e+00
1.04714882e+00
1.03954451e+00
1.04245920e+00
1.03671145e+00
1.03238619e+00
1.04215617e+00
1.03855980e+00
1.02722243e+00
1.03349649e+00
1.04133048e+00
1.02911649e+00
1.03238352e+00
1.03539962e+00
1.03421658e+00
1.03414825e+00
1.03108031e+00
1.02875047e+00
1.02951927e+00
1.03183785e+00
1.03357565e+00
1.03508099e+00
1.03756072e+00
1.03757613e+00
1.03499074e+00
1.03218606e+00
1.03159388e+00
1.03155862e+00
1.02945269e+00
1.03572620e+00
1.04307030e+00
1.03729646e+00
1.03530496e+00
1.03837383e+00
1.03846794e+00
1.03616341e+00
1.03337417e+00
1.03811976e+00
1.04141686e+00
1.03576271e+00
1.03390472e+00
1.03438127e+00
1.03833769e+00
1.03612947e+00
1.03338497e+00
1.03456945e+00
1.03406324e+00
1.03533635e+00
1.03618757e+00
1.03241536e+00
1.03175794e+00
1.03319752e+00
1.03418530e+00
1.03305398e+00
1.03253206e+00
1.03488705e+00
1.02862440e+00
1.03355313e+00
1.03184907e+00
1.02700877e+00
1.03205199e+00
1.03327911e+00
1.02959915e+00
1.03287967e+00
1.02983498e+00
1.02874316e+00
1.02959612e+00
1.03151561e+00
1.03253337e+00
1.02924830e+00
1.02613906e+00
1.02929652e+00
1.02942436e+00
1.03016499e+00
1.02779380e+00
1.02825691e+00
1.02839428e+00
1.02850194e+00
1.02869574e+00
1.02682729e+00
1.02613323e+00
1.02924195e+00
1.02895867e+00
1.02720373e+00
1.02779859e+00
1.02597477e+00
1.02594664e+00
1.02724438e+00
1.02834001e+00
1.02502685e+00
1.02587556e+00
1.02854732e+00
1.02738774e+00
1.02702501e+00
1.02467781e+00
1.02488421e+00
1.02598355e+00
1.02760808e+00
1.02619272e+00
1.02772537e+00
1.02333596e+00
1.02608860e+00
1.02524540e+00
1.02672423e+00
1.02488995e+00
1.02389915e+00
1.02348220e+00
1.02641844e+00
1.02309378e+00
1.02336867e+00
1.02159047e+00
1.02420050e+00
1.02510223e+00
1.02297994e+00
1.02397548e+00
1.02157500e+00
1.02205180e+00
1.02518604e+00
1.02374519e+00
1.02223899e+00
1.06132006e+00
1.06978356e+00
1.06386923e+00
1.05765870e+00
1.05472039e+00
1.05655120e+00
1.05450829e+00
1.04988430e+00
1.04770932e+00
1.04919877e+00
1.04073301e+00
1.03649520e+00
1.04382195e+00
1.04391435e+00
1.03075671e+00
1.03474829e+00
1.03865270e+00
1.03689625e+00
1.03752205e+00
1.03033823e+00
1.03705624e+00
1.03140203e+00
1.03356120e+00
1.03276185e+00
1.03428573e+00
1.03013675e+00
1.02978024e+00
1.03167095e+00
1.03569599e+00
1.03719998e+00
1.03505590e+00
1.03679616e+00
1.03644326e+00
1.03310201e+00
1.03229020e+00
1.03395514e+00
1.03675519e+00
1.04284174e+00
1.03801363e+00
1.03306274e+00
1.03782562e+00
1.04130495e+00
1.03650271e+00
1.03613264e+00
1.03678556e+00
1.03889351e+00
1.03608071e+00
1.03238186e+00
1.03959184e+00
1.03843629e+00
1.03402430e+00
1.03327571e+00
1.03549050e+00
1.03765894e+00
1.03562215e+00
1.03111430e+00
1.03529036e+00
1.03642464e+00
1.03151998e+00
1.03239077e+00
1.03203566e+00
1.03408320e+00
1.03152886e+00
1.03646198e+00
1.03401023e+00
1.02617733e+00
1.03193710e+00
1.03295163e+00
1.03215825e+00
1.03228594e+00
1.02887175e+00
1.03043485e+00
1.03089574e+00
1.02824604e+00
1.03074139e+00
1.03092346e+00
1.03100035e+00
1.03033513e+00
1.02865115e+00
1.02968328e+00
1.02800807e+00
1.02911499e+00
1.03080993e+00
1.03139097e+00
1.02907644e+00
1.02512868e+00
1.02552968e+00
1.02886441e+00
1.02941658e+00
1.02827644e+00
1.02611261e+00
1.02546633e+00
1.02808074e+00
1.02748189e+00
1.02639353e+00
1.02518213e+00
1.02517915e+00
1.02692194e+00
1.02928804e+00
1.02889262e+00
1.02328002e+00
1.02593585e+00
1.02719585e+00
1.02686535e+00
1.02490702e+00
1.02513530e+00
1.02430568e+00
1.02794519e+00
1.02564143e+00
1.02779854e+00
1.02559043e+00
1.02436148e+00
1.02413998e+00
1.02625154e+00
1.02456841e+00
1.02444111e+00
1.02104800e+00
1.02492667e+00
1.02411573e+00
1.02420036e+00
1.02338972e+00
1.02162183e+00
1.02443759e+00
1.02577985e+00
1.02184097e+00
1.02088411e+00
1.02094580e+00
1.02371933e+00
1.05055540e+00
1.06482462e+00
1.05450868e+00
1.05952666e+00
1.06074053e+00
1.05292115e+00
1.04797760e+00
1.06060323e+00
1.04989427e+00
1.04233582e+00
1.04890519e+00
1.04356645e+00
1.03856567e+00
1.04201248e+00
1.03687854e+00
1.03738316e+00
1.04279930e+00
1.03747878e+00
1.02941720e+00
1.03767049e+00
1.03913691e+00
1.03147339e+00
1.03472440e+00
1.03380363e+00
1.03490437e+00
1.02920863e+00
1.03865804e+00
1.03493954e+00
1.03289023e+00
1.03611209e+00
1.03607151e+00
1.03722926e+00
1.03693430e+00
1.03581369e+00
1.03504322e+00
1.03661732e+00
1.03951847e+00
1.03711918e+00
1.02986077e+00
1.03745472e+00
1.04480627e+00
1.03825355e+00
1.03230383e+00
1.03681738e+00
1.03818053e+00
1.03559677e+00
1.03557713e+00
1.03644912e+00
1.03672996e+00
1.03428123e+00
1.03490967e+00
1.03969884e+00
1.03414737e+00
1.03009830e+00
1.03313091e+00
1.03720018e+00
1.03393680e+00
1.03269726e+00
1.03233635e+00
1.03135827e+00
1.03368687e+00
1.03412381e+00
1.03235800e+00
1.02792042e+00
1.03123903e+00
1.03375275e+00
1.02964824e+00
1.03265125e+00
1.02829193e+00
1.03090803e+00
1.03480360e+00
1.02937858e+00
1.02719555e+00
1.02754079e+00
1.03168732e+00
1.03316538e+00
1.03231562e+00
1.02895813e+00
1.02625128e+00
1.02803659e+00
1.02995379e+00
1.03097377e+00
1.03014286e+00
1.02921060e+00
1.02931094e+00
1.03018849e+00
1.02932129e+00
1.02640045e+00
1.02593824e+00
1.02869001e+00
1.02967048e+00
1.02808771e+00
1.02791385e+00
1.02507209e+00
1.02530487e+00
1.02755905e+00
1.02881106e+00
1.02712325e+00
1.02661920e+00
1.02820829e+00
1.02655918e+00
1.02657618e+00
1.02431284e+00
1.02295775e+00
1.02488978e+00
1.02804246e+00
1.02759758e+00
1.02551017e+00
1.02273255e+00
1.02668025e+00
1.02766528e+00
1.02519711e+00
1.02133873e+00
1.02133356e+00
1.02407067e+00
1.02638809e+00
1.02369006e+00
1.02379448e+00
1.02280913e+00
1.02416905e+00
1.02476214e+00
1.02362394e+00
1.02208804e+00
1.01995812e+00
1.02344362e+00
1.02416890e+00
1.02118249e+00
1.01956302e+00
1.06562268e+00
1.05112554e+00
1.05128113e+00
1.06460343e+00
1.05839391e+00
1.05685747e+00
1.05144947e+00
1.04752514e+00
1.04823909e+00
1.05319058e+00
1.04456912e+00
1.05032295e+00
1.04606096e+00
1.03820780e+00
1.04752282e+00
1.04032206e+00
1.03354142e+00
1.03928089e+00
1.04306014e+00
1.04172281e+00
1.02723207e+00
1.03833891e+00
1.03839575e+00
1.03471793e+00
1.03940245e+00
1.03147466e+00
1.03407918e+00
1.03708142e+00
1.03818747e+00
1.03787944e+00
1.03317154e+00
1.03417460e+00
1.03565180e+00
1.03767948e+00
1.04073444e+00
1.03786406e+00
1.03036681e+00
1.03339470e+00
1.04194575e+00
1.04283574e+00
1.03550462e+00
1.03034397e+00
1.03753182e+00
1.04217590e+00
1.03545273e+00
1.03474203e+00
1.03844142e+00
1.03556305e+00
1.03505955e+00
1.03553322e+00
1.03404755e+00
1.03396920e+00
1.03377536e+00
1.03559030e+00
1.03326025e+00
1.03558045e+00
1.03327655e+00
1.03289868e+00
1.03917178e+00
1.03107377e+00
1.03092745e+00
1.02991206e+00
1.03604023e+00
1.03431435e+00
1.02885888e+00
1.03616757e+00
1.02716438e+00
1.03144020e+00
1.03455028e+00
1.03134733e+00
1.03001527e+00
1.03012469e+00
1.02995315e+00
1.03047630e+00
1.03017212e+00
1.02850380e+00
1.03028336e+00
1.03156923e+00
1.03010251e+00
1.02810541e+00
1.02600169e+00
1.02922065e+00
1.03045410e+00
1.03228141e+00
1.02943348e+00
1.02596847e+00
1.02656225e+00
1.02706630e+00
1.02921811e+00
1.02995159e+00
1.02765828e+00
1.02579488e+00
1.02943499e+00
1.02790560e+00
1.02531791e+00
1.02408640e+00
1.02614731e+00
1.02814344e+00
1.02931560e+00
1.02737780e+00
1.02369440e+00
1.02549006e+00
1.02683141e+00
1.02649844e+00
1.02671399e+00
1.02546885e+00
1.02455679e+00
1.02646614e+00
1.02714272e+00
1.02767092e+00
1.02254191e+00
1.02279305e+00
1.02647960e+00
1.02624083e+00
1.02472491e+00
1.02272262e+00
1.02265906e+00
1.02545667e+00
1.02474458e+00
1.02313390e+00
1.02145063e+00
1.02089703e+00
1.02597227e+00
1.02350648e+00
1.02125345e+00
1.02344688e+00
1.02271770e+00
1.02295107e+00
1.05844356e+00
1.05955635e+00
1.05997303e+00
1.05226603e+00
1.05346332e+00
1.06003859e+00
1.05288588e+00
1.04830591e+00
1.04960231e+00
1.05041828e+00
1.04700557e+00
1.04919036e+00
1.04245236e+00
1.04526936e+00
1.04329386e+00
1.03742076e+00
1.04790098e+00
1.04148753e+00
1.03507824e+00
1.04022498e+00
1.03528590e+00
1.04764171e+00
1.03650386e+00
1.03031725e+00
1.04025432e+00
1.03940088e+00
1.03839523e+00
1.03293197e+00
1.03292849e+00
1.03923055e+00
1.04003182e+00
1.04075456e+00
1.03664731e+00
1.03143325e+00
1.03463632e+00
1.04030862e+00
1.03784073e+00
1.04074301e+00
1.04015498e+00
1.03431028e+00
1.03495260e+00
1.04280544e+00
1.03779742e+00
1.03249771e+00
1.03188131e+00
1.04034354e+00
1.04236775e+00
1.03236844e+00
1.03273407e+00
1.03515101e+00
1.03743832e+00
1.03668285e+00
1.03157433e+00
1.03393834e+00
1.03279339e+00
1.03407260e+00
1.03832041e+00
1.03173338e+00
1.03042906e+00
1.03028713e+00
1.03459703e+00
1.03513769e+00
1.02826097e+00
1.03325203e+00
1.02985026e+00
1.03259424e+00
1.03321935e+00
1.02765072e+00
1.02968672e+00
1.03324121e+00
1.03140374e+00
1.03135499e+00
1.02830262e+00
1.02483307e+00
1.02978730e+00
1.03172730e+00
1.03257830e+00
1.02834096e+00
1.02589334e+00
1.02756448e+00
1.02760855e+00
1.03162350e+00
1.02834299e+00
1.02908132e+00
1.03002102e+00
1.02769803e+00
1.02809865e+00
1.02612746e+00
1.02592563e+00
1.02861985e+00
1.03061143e+00
1.02950266e+00
1.02658105e+00
1.02264309e+00
1.02519396e+00
1.02829156e+00
1.02916046e+00
1.02603530e+00
1.02402041e+00
1.02790993e+00
1.02803990e+00
1.02689894e+00
1.02497571e+00
1.02245783e+00
1.02621740e+00
1.02862041e+00
1.02801540e+00
1.02580660e+00
1.02382056e+00
1.02795226e+00
1.02688651e+00
1.02526796e+00
1.02427712e+00
1.02326072e+00
1.02396830e+00
1.02395474e+00
1.02325616e+00
1.02355260e+00
1.02171682e+00
1.02272294e+00
1.02461095e+00
1.02239857e+00
1.02301862e+00
1.02220083e+00
1.02066683e+00
1.02306015e+00
1.02366412e+00
1.02426919e+00
1.04855827e+00
1.05324337e+00
1.06302853e+00
1.05175869e+00
1.04979818e+00
1.05781137e+00
1.05234982e+00
1.05037522e+00
1.05125671e+00
1.04889929e+00
1.05096810e+00
1.04691049e+00
1.04357160e+00
1.05306718e+00
1.04232435e+00
1.04086585e+00
1.04621581e+00
1.03934463e+00
1.04371304e+00
1.04518715e+00
1.03726283e+00
1.03940196e+00
1.03633286e+00
1.04585612e+00
1.03924418e+00
1.03226574e+00
1.03919566e+00
1.03694623e+00
1.03832232e+00
1.03985575e+00
1.03637141e+00
1.03742201e+00
1.03659818e+00
1.03863232e+00
1.03736537e+00
1.03679087e+00
1.03758782e+00
1.04034591e+00
1.03663683e+00
1.03554809e+00
1.04007637e+00
1.04107311e+00
1.03101990e+00
1.03672623e+00
1.03947278e+00
1.03678137e+00
1.03578192e+00
1.03338662e+00
1.03727314e+00
1.03535668e+00
1.03223867e+00
1.03675352e+00
1.03294445e+00
1.03687842e+00
1.03682981e+00
1.03076454e+00
1.03156027e+00
1.03320533e+00
1.03330521e+00
1.03468157e+00
1.02881644e+00
1.03213908e+00
1.03000349e+00
1.03598489e+00
1.03519508e+00
1.02594193e+00
1.03018814e+00
1.03125676e+00
1.03010252e+00
1.03372593e+00
1.03107036e+00
1.02661960e+00
1.03021154e+00
1.03018997e+00
1.03250161e+00
1.02904799e+00
1.03037298e+00
1.03078598e+00
1.02988669e+00
1.02901285e+00
1.02501029e+00
1.03023214e+00
1.03079388e+00
1.03182466e+00
1.03091722e+00
1.02696221e+00
1.02687959e+00
1.02893845e+00
1.03053693e+00
1.02936277e+00
1.02775529e+00
1.02842344e+00
1.02794158e+00
1.02672189e+00
1.02773528e+00
1.02568098e+00
1.02561527e+00
1.02761329e+00
1.02913677e+00
1.02871635e+00
1.02528931e+00
1.02490559e+00
1.02695597e+00
1.02669820e+00
1.02699882e+00
1.02380066e+00
1.02391640e+00
1.02849275e+00
1.02741765e+00
1.02743252e+00
1.02300474e+00
1.02433725e+00
1.02649822e+00
1.02665704e+00
1.02360658e+00
1.02176141e+00
1.02215170e+00
1.02666058e+00
1.02360434e+00
1.02307027e+00
1.02322962e+00
1.02295909e+00
1.02519101e+00
1.02386715e+00
1.02385822e+00
1.02240294e+00
1.01837298e+00
1.02208865e+00
1.05443871e+00
1.05777411e+00
1.04967486e+00
1.05607015e+00
1.06006846e+00
1.05102432e+00
1.04881918e+00
1.05690868e+00
1.05028045e+00
1.04436214e+00
1.04976870e+00
1.05004522e+00
1.04886119e+00
1.04285123e+00
1.04490766e+00
1.05267606e+00
1.03740893e+00
1.04339013e+00
1.04751003e+00
1.03482827e+00
1.04407415e+00
1.04574161e+00
1.03466395e+00
1.04573898e+00
1.03576768e+00
1.03675720e+00
1.04445185e+00
1.03715181e+00
1.03480186e+00
1.03763113e+00
1.04150267e+00
1.03916937e+00
1.03461950e+00
1.03715037e+00
1.03798301e+00
1.03902166e+00
1.03723888e+00
1.03354037e+00
1.03415145e+00
1.04036708e+00
1.04130935e+00
1.03537834e+00
1.03215925e+00
1.04029531e+00
1.03733828e+00
1.03337986e+00
1.03840096e+00
1.03615501e+00
1.03494241e+00
1.03415121e+00
1.03261884e+00
1.04140867e+00
1.03625036e+00
1.03079466e+00
1.03115381e+00
1.03651503e+00
1.03312336e+00
1.03425007e+00
1.03625488e+00
1.03131986e+00
1.03059578e+00
1.03496618e+00
1.03682361e+00
1.02815517e+00
1.02998050e+00
1.03395746e+00
1.02834081e+00
1.03228913e+00
1.02961062e+00
1.03075009e+00
1.03535804e+00
1.02967694e+00
1.02840576e+00
1.02726334e+00
1.02977708e+00
1.03173339e+00
1.03299282e+00
1.02946079e+00
1.02541497e+00
1.02744618e+00
1.02913175e+00
1.03234109e+00
1.02911567e+00
1.02788049e+00
1.02749030e+00
1.02980046e+00
1.02937811e+00
1.02591476e+00
1.02574043e+00
1.02870219e+00
1.03049826e+00
1.02999055e+00
1.02664027e+00
1.02453666e+00
1.02571614e+00
1.02671780e+00
1.02921798e+00
1.02599624e+00
1.02430563e+00
1.02719992e+00
1.02738447e+00
1.02762729e+00
1.02351348e+00
1.02234808e+00
1.02526478e+00
1.02697020e+00
1.02580029e+00
1.02752303e+00
1.02462374e+00
1.02609587e+00
1.02456534e+00
1.02664772e+00
1.02544733e+00
1.02299238e+00
1.02246158e+00
1.02537132e+00
1.02489487e+00
1.02480801e+00
1.02208127e+00
1.02198947e+00
1.02443807e+00
1.02537379e+00
1.02550054e+00
1.02028245e+00
1.01979069e+00
1.02568890e+00
1.02374196e+00
1.02109824e+00
1.06090632e+00
1.06180626e+00
1.04741153e+00
1.05469150e+00
1.05809674e+00
1.04953416e+00
1.05154310e+00
1.05626973e+00
1.04689250e+00
1.05102508e+00
1.05041920e+00
1.04603055e+00
1.05226182e+00
1.04360376e+00
1.04628159e+00
1.04778904e+00
1.04038424e+00
1.04868833e+00
1.04344194e+00
1.04024764e+00
1.04634206e+00
1.04337458e+00
1.03656805e+00
1.04037284e+00
1.03915263e+00
1.04491968e+00
1.03714404e+00
1.03410685e+00
1.04421565e+00
1.04179368e+00
1.03422424e+00
1.03714514e+00
1.03817218e+00
1.03896505e+00
1.03779748e+00
1.04059886e+00
1.03434588e+00
1.03497309e+00
1.04170437e+00
1.03820722e+00
1.03195067e+00
1.03805208e+00
1.04080714e+00
1.03796656e+00
1.03187423e+00
1.03535670e+00
1.04111173e+00
1.03596781e+00
1.03219354e+00
1.03520764e+00
1.03650821e+00
1.03633855e+00
1.03262553e+00
1.03495990e+00
1.03050578e+00
1.03411410e+00
1.03417090e+00
1.03183671e+00
1.03476414e+00
1.03013731e+00
1.03244786e+00
1.02869141e+00
1.03436333e+00
1.03422936e+00
1.02879166e+00
1.03583151e+00
1.02649321e+00
1.02748305e+00
1.03531657e+00
1.03373508e+00
1.02995637e+00
1.02657890e+00
1.02974457e+00
1.03103825e+00
1.03026516e+00
1.02965603e+00
1.02986475e+00
1.03018229e+00
1.02910741e+00
1.02765749e+00
1.02720477e+00
1.02795809e+00
1.02886492e+00
1.03339667e+00
1.02897134e+00
1.02604960e+00
1.02600409e+00
1.02791569e+00
1.03059607e+00
1.03015080e+00
1.02737732e+00
1.02692399e+00
1.02676220e+00
1.02804262e+00
1.02617442e+00
1.02292871e+00
1.02498543e+00
1.02887594e+00
1.03000448e+00
1.02921785e+00
1.02312368e+00
1.02473368e+00
1.02456636e+00
1.02740505e+00
1.02593594e+00
1.02301445e+00
1.02395498e+00
1.02879559e+00
1.02785646e+00
1.02720778e+00
1.02212015e+00
1.02508685e+00
1.02665680e+00
1.02503133e+00
1.02395382e+00
1.02336096e+00
1.02251036e+00
1.02371768e+00
1.02382047e+00
1.02690785e+00
1.02290741e+00
1.01912697e+00
1.02337011e+00
1.02480969e+00
1.02422154e+00
1.02083304e+00
1.02023342e+00
1.02320862e+00
1.05701757e+00
1.05380848e+00
1.05908267e+00
1.05099006e+00
1.04865724e+00
1.05693012e+00
1.05609014e+00
1.04538616e+00
1.04582925e+00
1.05632304e+00
1.05111344e+00
1.04625955e+00
1.04763133e+00
1.04583723e+00
1.04837668e+00
1.04518244e+00
1.04791143e+00
1.04296642e+00
1.03762846e+00
1.04753391e+00
1.04305462e+00
1.04192095e+00
1.04249412e+00
1.03916537e+00
1.03691866e+00
1.04402345e+00
1.03948758e+00
1.04074667e+00
1.04110875e+00
1.03488333e+00
1.03931076e+00
1.04433715e+00
1.03803426e+00
1.03492119e+00
1.03693452e+00
1.04149946e+00
1.04133462e+00
1.03764517e+00
1.03368062e+00
1.03456240e+00
1.04083413e+00
1.04546338e+00
1.03397135e+00
1.03120650e+00
1.03517895e+00
1.04175480e+00
1.03984873e+00
1.03226433e+00
1.03246023e+00
1.03649652e+00
1.03830925e+00
1.03481804e+00
1.03073980e+00
1.03619764e+00
1.03195386e+00
1.03012564e+00
1.03541911e+00
1.03406137e+00
1.03146398e+00
1.03070073e+00
1.03118073e+00
1.03023741e+00
1.02794850e+00
1.03774857e+00
1.02945307e+00
1.02793643e+00
1.03268358e+00
1.02842149e+00
1.03009452e+00
1.03252848e+00
1.03041965e+00
1.03019100e+00
1.03053541e+00
1.02599845e+00
1.02775043e+00
1.03350991e+00
1.03290239e+00
1.02920541e+00
1.02589492e+00
1.02576232e+00
1.02887597e+00
1.03241769e+00
1.02753427e+00
1.02874228e+00
1.02790894e+00
1.02788879e+00
1.02663422e+00
1.02684133e+00
1.02751176e+00
1.02864165e+00
1.03042793e+00
1.03104099e+00
1.02562311e+00
1.02424836e+00
1.02491851e+00
1.02674624e+00
1.02650138e+00
1.02727079e+00
1.02696158e+00
1.02750904e+00
1.02520894e+00
1.02649533e+00
1.02459369e+00
1.02416249e+00
1.02405799e+00
1.02477268e+00
1.02722633e+00
1.02768913e+00
1.02231618e+00
1.02510755e+00
1.02600332e+00
1.02725036e+00
1.02477228e+00
1.02113477e+00
1.02309969e+00
1.02600573e+00
1.02570437e+00
1.02493641e+00
1.01928517e+00
1.02143288e+00
1.02762320e+00
1.02425511e+00
1.02243148e+00
1.01937392e+00
1.02489791e+00
1.02568752e+00
1.02186116e+00
1.02196950e+00
1.04704257e+00
1.04550026e+00
1.05880458e+00
1.05462289e+00
1.05288635e+00
1.04992816e+00
1.05011097e+00
1.05305222e+00
1.05309028e+00
1.04677778e+00
1.04574211e+00
1.05461918e+00
1.04838365e+00
1.04278628e+00
1.04745464e+00
1.04604596e+00
1.04572085e+00
1.04169693e+00
1.04468845e+00
1.04441176e+00
1.04240873e+00
1.04250052e+00
1.04044672e+00
1.04425939e+00
1.04115585e+00
1.03914790e+00
1.03959393e+00
1.04224705e+00
1.03647967e+00
1.04071552e+00
1.04436618e+00
1.03717932e+00
1.03457272e+00
1.04356921e+00
1.04114573e+00
1.03766886e+00
1.03805683e+00
1.03815803e+00
1.03569550e+00
1.04111444e+00
1.04260260e+00
1.03686468e+00
1.02957514e+00
1.03811145e+00
1.04063037e+00
1.03583206e+00
1.03520719e+00
1.03519074e+00
1.03890010e+00
1.03237628e+00
1.03075966e+00
1.03829132e+00
1.03575592e+00
1.03103778e+00
1.03226620e+00
1.03277289e+00
1.03308887e+00
1.03595854e+00
1.03333644e+00
1.02941963e+00
1.02883118e+00
1.03563114e+00
1.03025667e+00
1.03190443e+00
1.03399036e+00
1.02700181e+00
1.03159414e+00
1.03162718e+00
1.02804964e+00
1.03052335e+00
1.03353056e+00
1.02801734e+00
1.02761633e+00
1.02820519e+00
1.03176740e+00
1.03178279e+00
1.03026005e+00
1.02933431e+00
1.02787754e+00
1.02984353e+00
1.02541268e+00
1.02966138e+00
1.03134279e+00
1.03319187e+00
1.02925226e+00
1.02634570e+00
1.02440216e+00
1.02757515e+00
1.03037615e+00
1.03121321e+00
1.02933209e+00
1.02837970e+00
1.02807490e+00
1.02820604e+00
1.02597697e+00
1.02452950e+00
1.02590416e+00
1.02986911e+00
1.02991535e+00
1.02754562e+00
1.02467458e+00
1.02501427e+00
1.02444351e+00
1.02572567e+00
1.02438953e+00
1.02459885e+00
1.02467368e+00
1.02672321e+00
1.02623921e+00
1.02868029e+00
1.02517261e+00
1.02392759e+00
1.02400265e+00
1.02368278e+00
1.02561326e+00
1.02329073e+00
1.02063897e+00
1.02323394e+00
1.02514542e+00
1.02469301e+00
1.02178130e+00
1.02142186e+00
1.02455757e+00
1.02254652e+00
1.02233826e+00
1.02358518e+00
1.02147629e+00
1.02140109e+00
1.04649830e+00
1.05436233e+00
1.04655781e+00
1.05025211e+00
1.05893505e+00
1.05179746e+00
1.04842068e+00
1.05104153e+00
1.05130466e+00
1.05096681e+00
1.04798133e+00
1.05223121e+00
1.04870394e+00
1.04179217e+00
1.04642598e+00
1.05018821e+00
1.04287582e+00
1.04519046e+00
1.04682451e+00
1.03861144e+00
1.04878909e+00
1.04602845e+00
1.03792447e+00
1.04199047e+00
1.04320686e+00
1.04037281e+00
1.04017254e+00
1.03746420e+00
1.03702231e+00
1.04440784e+00
1.03950821e+00
1.03781867e+00
1.04065727e+00
1.03955497e+00
1.03733553e+00
1.03647324e+00
1.03931483e+00
1.03844128e+00
1.03901403e+00
1.03896690e+00
1.03427055e+00
1.03776033e+00
1.03758700e+00
1.03902820e+00
1.03498723e+00
1.03245689e+00
1.04028014e+00
1.03677409e+00
1.03325045e+00
1.03075027e+00
1.03544696e+00
1.03925420e+00
1.03308394e+00
1.02928446e+00
1.03153257e+00
1.03845693e+00
1.03372724e+00
1.03174415e+00
1.03372674e+00
1.03175452e+00
1.03226215e+00
1.03068861e+00
1.03399746e+00
1.02754844e+00
1.03252085e+00