# vtk DataFile Version 2.0
LBM Flow Field - Timestep 1150
ASCII
DATASET STRUCTURED_POINTS
DIMENSIONS 128 128 1
ORIGIN 0.0 0.0 0.0
SPACING 1.0 1.0 1.0
POINT_DATA 16384
SCALARS density double 1
LOOKUP_TABLE default
1.32221133e+00
1.31250110e+00
1.30089982e+00
1.28935534e+00
1.27789015e+00
1.26652573e+00
1.25528138e+00
1.24418323e+00
1.23323912e+00
1.22248758e+00
1.21191623e+00
1.20158393e+00
1.19144963e+00
1.18160002e+00
1.17195775e+00
1.16264391e+00
1.15353870e+00
1.14480256e+00
1.13626901e+00
1.12814094e+00
1.12020321e+00
1.11270203e+00
1.10537399e+00
1.09850733e+00
1.09179310e+00
1.08555808e+00
1.07945271e+00
1.07383690e+00
1.06832730e+00
1.06330991e+00
1.05837587e+00
1.05392906e+00
1.04954440e+00
1.04563470e+00
1.04176843e+00
1.03835819e+00
1.03497571e+00
1.03202446e+00
1.02908864e+00
1.02655445e+00
1.02402672e+00
1.02186733e+00
1.01970868e+00
1.01788255e+00
1.01605429e+00
1.01452146e+00
1.01298603e+00
1.01170877e+00
1.01043026e+00
1.00937356e+00
1.00831823e+00
1.00745013e+00
1.00658670e+00
1.00587845e+00
1.00517836e+00
1.00460443e+00
1.00404193e+00
1.00357996e+00
1.00313216e+00
1.00276277e+00
1.00240959e+00
1.00211620e+00
1.00184022e+00
1.00160876e+00
1.00139510e+00
1.00121375e+00
1.00104987e+00
1.00090879e+00
1.00078421e+00
1.00067527e+00
1.00058140e+00
1.00049792e+00
1.00042780e+00
1.00036435e+00
1.00031238e+00
1.00026457e+00
1.00022635e+00
1.00019065e+00
1.00016274e+00
1.00013634e+00
1.00011608e+00
1.00009676e+00
1.00008215e+00
1.00006815e+00
1.00005766e+00
1.00004763e+00
1.00004015e+00
1.00003304e+00
1.00002773e+00
1.00002275e+00
1.00001899e+00
1.00001554e+00
1.00001290e+00
1.00001054e+00
1.00000869e+00
1.00000709e+00
1.00000580e+00
1.00000473e+00
1.00000385e+00
1.00000313e+00
1.00000253e+00
1.00000206e+00
1.00000165e+00
1.00000134e+00
1.00000107e+00
1.00000086e+00
1.00000068e+00
1.00000055e+00
1.00000044e+00
1.00000035e+00
1.00000028e+00
1.00000022e+00
1.00000017e+00
1.00000014e+00
1.00000011e+00
1.00000009e+00
1.00000007e+00
1.00000005e+00
1.00000004e+00
1.00000003e+00
1.00000003e+00
1.00000002e+00
1.00000002e+00
1.00000001e+00
1.00000001e+00
1.00000001e+00
1.00000001e+00
1.00000001e+00
-3.02706378e+266
4.00822480e+266
-3.69741703e+266
7.40317749e+267
-3.21449927e+267
-1.40096146e+268
1.21238085e+268
-2.91692084e+268
4.93308211e+268
1.06344517e+268
-5.30502183e+267
-1.91387189e+268
1.59100743e+269
-2.27136230e+268
1.21521375e+269
-4.00634441e+269
2.21387440e+270
-1.28323092e+268
3.49341988e+270
7.07273907e+271
-4.90117031e+271
-1.36458466e+272
2.13769953e+272
2.32885336e+273
-2.86687747e+273
5.03480427e+273
-2.45385332e+273
5.43913704e+274
1.04826636e+275
2.29717089e+275
-2.40997868e+275
-2.41694278e+273
1.81616462e+276
1.61972490e+275
-9.65444867e+275
5.83828401e+275
1.07534805e+276
-2.77487551e+276
1.45408653e+276
-2.03562267e+275
-8.33951787e+276
-1.86820378e+277
-2.80162772e+277
-1.11092333e+277
-1.52887500e+275
3.43865896e+276
2.64701004e+276
7.27800594e+276
1.08006353e+276
-3.24776183e+275
1.56336101e+274
-3.04540611e+274
-2.04250851e+274
-3.69408473e+272
-7.00168667e+272
5.87817881e+272
1.82951442e+273
2.34056493e+272
2.62075126e+271
-1.33948352e+272
-7.02131856e+272
-1.04155186e+272
-8.07291332e+271
1.86141100e+271
7.19953130e+270
-2.28709748e+270
8.45118304e+269
3.29418886e+269
5.00264044e+268
5.57446259e+267
-5.77669821e+267
-2.42978198e+268
7.22867811e+266
-2.58301317e+267
1.76701551e+267
3.05427850e+267
-1.35745037e+266
7.71765951e+266
-9.38905741e+265
2.51952559e+266
2.66171125e+267
3.13468695e+267
6.19096232e+267
5.45663989e+266
-5.89850297e+266
-4.45598304e+266
-5.72460304e+266
-5.84375547e+266
-1.60956356e+268
-9.81852003e+268
-1.39990766e+269
8.15686227e+267
-6.94162197e+268
-1.10437841e+269
-1.50853042e+267
-4.86376269e+266
3.69539710e+264
2.57245103e+264
5.77863470e+263
-5.13240508e+263
-1.82919944e+263
-1.25979331e+263
-9.61219469e+262
-1.27462115e+262
6.09239394e+260
2.32853294e+262
6.41668545e+262
1.60207615e+262
2.09703026e+262
6.61594033e+261
4.70757793e+261
-2.85999932e+261
-6.41993713e+260
-2.93344870e+261
-5.34060066e+260
6.72338539e+260
1.98833667e+261
-3.14087331e+261
-9.21303413e+259
-3.09943047e+259
4.99542898e+258
3.67293939e+259
3.51888628e+259
-6.30160199e+259
-1.44220919e+259
3.42057820e+258
1.00489179e+259
9.20843873e+258
-6.07162549e+266
1.54294614e+267
1.59389927e+268
1.22732053e+268
-6.45136856e+267
5.39639574e+268
-2.05652300e+268
-2.08369819e+268
9.63494840e+268
-1.44157685e+269
1.07717127e+269
2.02005393e+269
5.56732195e+270
-3.08898662e+271
3.17843468e+271
-9.07320273e+269
2.40576776e+270
-9.58626620e+268
3.89451513e+270
9.75488580e+271
-1.05580878e+272
-3.81985727e+272
-4.63702599e+271
2.90530178e+273
8.48814432e+272
8.43824606e+273
3.68311719e+274
-7.83205705e+274
-2.85209352e+273
6.74721873e+275
-9.15865936e+275
-1.41802206e+275
-5.08117538e+275
1.19069116e+276
-4.34147114e+276
2.34731306e+276
2.06853148e+276
-4.72079194e+276
-3.37485871e+277
-4.29369336e+277
-7.54319782e+277
3.56411028e+277
5.59107205e+277
1.62554326e+277
4.17149991e+276
-6.63593532e+276
-5.94157843e+276
-7.46760503e+276
-4.90601170e+275
4.60783765e+275
-3.44704172e+274
8.52317760e+274
5.72539402e+274
-1.40253532e+273
-8.95199661e+272
-7.55014147e+272
-1.62770227e+273
3.63281910e+272
-8.60665054e+272
3.59761903e+273
-1.07281835e+273
-2.24705811e+271
5.55660054e+271
-3.45622825e+271
5.94226039e+270
2.58462573e+270
-8.22910002e+269
-8.07350030e+269
-1.54232702e+268
-1.68044150e+267
-2.05626397e+268
4.03894880e+268
1.21030282e+268
-1.95127165e+267
3.57997183e+266
2.35775924e+266
-4.09981187e+267
1.48958072e+267
1.76038353e+266
-4.00427818e+266
-1.10028101e+267
-6.77229124e+267
-6.99003540e+267
2.61645445e+267
6.51194131e+266
8.77443364e+266
8.17974513e+266
-1.08169744e+267
2.59773425e+268
-1.63749569e+269
5.55380109e+269
7.57232982e+268
3.78993277e+268
2.78499313e+269
4.86826579e+268
-1.37050602e+267
2.58552065e+267
1.81745722e+266
-2.68319522e+265
-1.12847618e+264
-4.47798130e+263
-1.31049058e+263
-1.23418962e+263
1.91799986e+263
-5.88296060e+262
8.62555945e+262
5.00597227e+262
6.20061772e+262
6.09766766e+262
-1.88689283e+262
-2.42769202e+261
3.05072958e+261
-4.43249522e+261
-1.03321511e+261
4.40446145e+261
3.66737617e+262
1.76793912e+260
-3.60145531e+261
8.93508261e+260
9.89733824e+259
2.48988004e+260
-1.09227384e+260
3.14585378e+258
-2.62281171e+259
-1.20574308e+259
1.59810711e+259
-4.84062830e+258
8.01946184e+258
-5.65795652e+266
1.10548657e+268
1.38264708e+268
-5.06423390e+268
-1.82000978e+269
8.53532482e+268
-1.69445062e+268
8.20186190e+268
3.49804446e+268
-5.82250005e+269
-7.65611217e+269
-3.37818676e+269
6.94137590e+271
-1.49846411e+272
6.09509667e+271
-2.99148221e+271
-5.44583101e+269
1.22447170e+270
1.33419093e+271
1.31389106e+272
-1.46297742e+272
-3.93341613e+272
5.05634333e+272
4.20752031e+273
-4.92721633e+273
-7.49504756e+274
1.20340031e+275
4.44563569e+274
4.89173652e+274
3.69496221e+275
-8.20343265e+275
1.36520426e+276
-9.56862283e+277
-4.18186747e+277
1.59673540e+277
3.68548681e+275
-4.02145072e+276
8.02526111e+276
2.02565557e+277
9.41381247e+277
4.63885099e+277
-2.59485377e+277
-2.50818374e+277
-8.07494234e+276
-2.31255113e+276
-2.10195327e+276
1.27003822e+277
2.42852976e+276
-4.15309218e+275
-8.86016213e+274
-9.25242917e+272
-1.58197767e+275
-2.74599727e+274
-3.71410497e+273
1.39979922e+272
4.58624202e+272
-1.78444531e+273
2.12450319e+273
-3.62838526e+273
4.87315449e+273
-1.83808909e+273
-4.63048910e+272
6.93289161e+271
-2.72245206e+270
-7.57595546e+271
2.11523131e+270
2.62356201e+270
2.33313536e+269
7.41819820e+267
3.54880721e+267
8.90686693e+267
1.52829303e+268
-2.43330105e+268
1.63771723e+268
-5.79996838e+267
1.58753306e+267
-6.50887922e+266
-9.62119997e+266
2.14643638e+266
-2.08307694e+267
-1.81119191e+267
6.66710178e+267
-1.77309852e+267
-1.15144915e+267
-2.13116269e+266
-4.82655615e+266
-2.02567262e+266
-3.19230524e+267
8.04458011e+268
3.57707392e+268
-2.27453734e+269
-1.30311424e+269
9.99926728e+267
-1.15617403e+269
-6.14248324e+268
-1.07424559e+268
-2.27301380e+267
4.01572183e+266
1.90802951e+265
1.64376638e+264
-6.76472857e+262
6.16672992e+263
3.36858924e+262
-1.15277993e+263
-6.77713472e+263
3.32406830e+263
-9.43531262e+262
7.44025701e+263
1.60877541e+264
1.64186348e+263
1.01914450e+263
1.79392943e+262
5.78268260e+261
-7.21652599e+261
9.07965071e+261
3.94494461e+262
-1.27014008e+263
4.04224991e+262
-1.86039807e+261
-5.99607266e+260
7.20074603e+260
-3.37158240e+259
-1.31660344e+260
-1.28863905e+260
1.56040996e+260
2.45148965e+259
-5.86737472e+259
2.80411910e+259
1.36032443e+267
3.63559026e+268
-3.63028007e+268
1.49363429e+268
8.13468697e+267
4.58689626e+268
-5.14234424e+267
-5.29949860e+268
-1.22364759e+269
-2.41815592e+269
9.29362117e+269
1.31751515e+270
2.91561294e+271
-2.89962367e+271
1.48596575e+271
4.26785182e+271
1.16402616e+271
-1.98238991e+270
-4.50769814e+270
1.48101842e+272
-1.90285575e+272
-1.44015989e+272
2.99247727e+272
3.76220568e+273
-1.11478354e+274
-3.90139896e+274
-1.08804327e+275
-3.93308194e+274
-1.79349704e+274
1.64782351e+276
-1.05939050e+276
-6.45407970e+276
-1.72699871e+277
2.96872639e+278
-3.53918492e+277
2.09044993e+276
1.58748556e+276
2.11939063e+277
1.87570328e+277
-7.70502289e+277
1.12065532e+277
1.82629999e+277
-2.40980809e+276
-9.35448676e+275
7.68358279e+276
-4.73540995e+276
-9.44502848e+276
-4.42855414e+276
1.47739088e+276
1.35903695e+275
-2.18769922e+275
3.37938151e+274
1.17566656e+274
-3.05386375e+273
5.27802353e+272
-1.73495263e+273
7.14055697e+272
9.92585006e+271
-1.08218100e+273
6.76746227e+272
1.74046377e+273
-2.27746842e+273
-3.12628707e+271
1.82198744e+272
-8.21230227e+271
9.60046999e+270
-1.08634146e+270
-7.59498014e+269
-7.87426361e+268
-5.03701971e+268
-5.13170978e+267
-6.63055072e+267
7.60435092e+267
2.41229534e+268
-1.78816186e+268
-2.09145326e+267
-9.89312829e+266
-5.83435805e+267
-7.46608859e+266
2.75237365e+267
-6.95044921e+267
-5.76875639e+267
-2.41499628e+266
-1.48292644e+267
5.11418723e+266
4.47639175e+266
2.09263859e+267
-2.43326254e+267
4.19569806e+267
-5.82159591e+266
1.38260810e+267
-1.38323034e+268
6.89775285e+267
-2.52727032e+267
-1.30452919e+267
-3.49446394e+267
-6.53787976e+266
-1.51469361e+267
8.29680105e+264
1.54360420e+265
-2.94447034e+263
-2.22457608e+263
3.37705058e+263
-1.12392265e+263
-1.31835519e+264
2.53923764e+264
-9.19393755e+263
-1.24932597e+263
-4.01649728e+264
-8.11064811e+263
-1.92378790e+263
-2.10309915e+261
2.75966914e+262
-1.72452337e+262
-7.75289673e+260
-1.28009223e+262
-4.37288857e+262
3.91794978e+262
3.57987008e+261
-8.04758731e+260
5.75616022e+260
3.05426799e+260
-2.48129472e+260
5.05186955e+259
9.98384698e+259
-1.43447633e+260
7.43223554e+259
4.52887423e+258
1.25057545e+267
1.35931309e+268
1.51052875e+268
2.84674379e+269
-1.24639137e+269
-1.09691617e+269
-5.14722289e+268
2.89339985e+269
2.28460674e+269
3.36669104e+269
-9.94383109e+269
9.92058505e+270
-2.52572656e+270
9.61552756e+269
-7.20518919e+270
-1.66032824e+271
-8.05828079e+270
-3.66702355e+270
1.16066097e+271
1.69588510e+272
-9.00683307e+271
-7.92643823e+272
1.19112588e+272
-1.85043116e+273
-1.60176660e+274
2.19409614e+274
6.42383122e+274
1.12980724e+274
-2.85417762e+273
7.91966721e+275
-1.01115052e+276
-1.47262220e+277
3.63059357e+277
-4.30412793e+277
-9.20127809e+277
3.11652329e+275
5.05599572e+276
-4.13340040e+277
8.64438357e+277
9.96613916e+277
1.94902574e+277
1.43154960e+277
1.29654648e+277
-6.82620056e+276
-1.12728777e+277
-3.55568314e+276
6.78274509e+276
8.90719867e+274
1.25248849e+276
1.06393851e+276
1.23072284e+275
6.76700935e+274
-1.20700857e+274
6.84272850e+272
-1.87313506e+273
2.60428692e+273
2.68470923e+273
7.63800956e+273
7.34500988e+273
-1.93089313e+273
2.60973664e+273
-7.24034643e+272
4.06426637e+271
1.87686296e+271
3.88600137e+271
-2.45386060e+270
-2.44104831e+270
-1.01238271e+270
1.88026359e+269
3.62266237e+267
6.40909288e+267
1.18247838e+268
-2.98823540e+267
-3.69500829e+268
5.05309338e+266
-1.69831082e+267
4.62076740e+267
9.05480350e+267
-3.11760090e+267
2.73807724e+266
6.94868406e+267
2.07344257e+267
2.55085040e+267
-5.61405279e+266
6.43213787e+266
-7.07535638e+267
-4.32050492e+267
9.08890061e+266
5.52082948e+267
3.20893723e+267
3.30891193e+267
-7.48958335e+267
-1.48634568e+268
-7.85597479e+267
-1.16169872e+268
2.81548310e+268
-1.54993852e+268
1.60141530e+267
3.75046647e+265
-1.10904721e+265
6.81773958e+263
7.16603924e+263
-1.58053617e+263
-8.99646919e+263
-1.25785682e+264
3.52315453e+264
-4.00408380e+264
1.41210014e+263
1.60592151e+264
5.15503502e+263
3.46002430e+262
-7.13164116e+262
6.02279561e+262
-5.33831500e+261
-1.26746234e+262
2.44352716e+262
1.96772053e+262
-2.13061071e+261
-1.80053458e+260
-1.00414108e+261
1.38763884e+261
3.77053238e+260
-2.43462747e+260
-7.60962672e+259
-2.57339193e+259
4.16516124e+259
2.18255237e+260
-8.34630103e+259
1.59171404e+267
1.15927367e+269
1.11825825e+269
-3.14142951e+269
-1.40673250e+269
2.47116092e+269
-2.73898516e+269
7.53648038e+268
-1.06040404e+269
-1.51463234e+270
9.24220334e+270
-1.47426781e+271
-2.38252389e+270
2.04274694e+270
2.48008628e+270
3.38776894e+270
-1.89847133e+270
1.77419362e+271
-5.01597452e+271
1.00755706e+272
-5.45921653e+271
7.38962605e+271
6.03243237e+270
1.19558705e+273
-6.65785680e+273
1.35075878e+274
-4.92839367e+273
-2.00732687e+274
-5.85628447e+274
5.38232934e+275
-3.19120470e+275
-1.07801067e+276
8.14414284e+276
-7.55272797e+276
-5.21695546e+275
-8.40914174e+276
1.15983794e+277
-1.15808031e+277
-6.45388590e+277
-4.46402901e+277
-4.37387286e+277
-7.75843194e+275
-3.95545189e+277
-2.26753104e+276
6.15967915e+277
-6.29726767e+277
-1.59475167e+276
-6.11663496e+274
-6.90156555e+275
-1.27616933e+276
7.43285424e+274
-2.72795588e+274
-2.28977391e+274
2.47633653e+274
-9.20538943e+273
-1.00504568e+274
-1.07980796e+274
-6.26851491e+273
-2.61832628e+274
-7.78799792e+271
3.31146944e+273
-3.33293127e+273
-2.03872086e+272
6.54650715e+271
-2.94769054e+271
-1.33120006e+271
-1.00336700e+271
-3.16647143e+269
-5.45199050e+268
4.70784095e+267
4.24161191e+266
-3.16386202e+268
1.13408975e+269
-4.32401318e+268
-8.42417553e+267
1.10462485e+268
-1.25200558e+268
-5.53545426e+266
2.45310880e+266
4.34562869e+266
2.26982689e+267
9.35979756e+266
9.54259669e+266
-1.11293669e+267
-1.09045594e+267
6.17807959e+267
1.58941471e+267
-3.04487089e+267
2.85549362e+267
-9.90217289e+267
-3.08293151e+266
-3.22100434e+267
4.24406498e+268
9.83950519e+267
-6.70037224e+268
1.38179733e+269
-6.45255030e+268
-5.58527978e+265
-4.19909000e+265
9.04352410e+264
-1.62569857e+264
-5.77469466e+264
2.63114366e+264
-2.51554068e+263
-5.64829196e+262
1.67471884e+264
-6.32176270e+263
2.68497812e+263
6.93726405e+263
-3.66007370e+263
-1.23092795e+262
3.86707751e+262
-8.02598247e+262
-5.78758625e+262
6.48760155e+262
4.24051489e+261
1.77896971e+262
-2.54127800e+262
2.19481744e+261
-1.37833355e+261
-4.85604162e+260
7.31907053e+260
-8.75841639e+259
4.82521186e+258
2.71494947e+259
-1.24994352e+259
-1.16840873e+260
-2.55458480e+259
-1.31192869e+268
4.01135462e+268
1.94256786e+269
-3.67478151e+269
6.67131079e+268
3.63131192e+268
-1.33932044e+269
4.94572124e+268
4.45081235e+269
2.01511418e+270
3.22349189e+270
4.55631680e+271
1.78569178e+272
2.67902594e+271
1.09734701e+271
-1.76228114e+269
-4.56130698e+269
2.48589536e+271
5.02037698e+273
2.78876322e+273
-2.79492534e+272
1.72834212e+273
1.09465059e+273
2.55363319e+272
-2.63925866e+274
3.30020883e+274
-9.32479347e+273
1.42776638e+274
8.10865066e+274
2.31811659e+275
1.01392362e+276
-9.42717840e+276
8.95324294e+276
-2.03670723e+276
9.63924960e+275
-8.98122308e+276
1.58325628e+277
-7.98568915e+276
-4.25272661e+276
-1.76688111e+276
8.08282659e+274
1.64776064e+277
2.65733262e+277
-2.13128116e+277
1.61313770e+277
2.09753246e+277
-4.51243926e+276
-3.62155148e+276
-4.50749464e+274
-5.11966915e+274
1.84641877e+275
1.73738490e+275
3.60503435e+274
8.98133564e+273
-6.42882571e+273
1.68404115e+274
1.31338107e+274
-6.42366350e+273
1.45136311e+274
5.96880140e+273
7.15929959e+272
-1.09434820e+273
-3.05006370e+271
-2.11408923e+271
6.62337843e+270
6.73442270e+270
2.42997627e+271
3.75728942e+270
1.72193299e+269
5.54154317e+268
9.92661122e+267
-7.75585749e+268
1.17712301e+269
-5.24874328e+268
-9.84479071e+267
1.63538004e+268
1.42495141e+267
1.11942975e+268
2.84257911e+267
-2.73149296e+267
-5.52785582e+267
1.16194300e+266
-5.12487655e+266
2.80152267e+265
-8.37819107e+266
4.04328545e+267
-2.63900450e+267
8.97484640e+266
-1.90214451e+267
6.50105392e+267
1.81205353e+268
-2.09238506e+268
-9.10903270e+267
-6.18689980e+267
-1.77041430e+268
3.44961870e+268
-1.99166946e+268
-9.96650524e+265
-5.53446980e+264
-2.97254360e+265
1.39207340e+265
-5.09488802e+264
-5.67911746e+263
5.43313828e+263
3.31323737e+263
-3.76875198e+262
-3.05676092e+263
-1.40990871e+263
-2.02000017e+263
1.12648005e+264
7.14979348e+262
2.49906130e+263
4.38788085e+262
-3.98234823e+262
3.70747670e+262
-3.66003424e+262
6.02661418e+262
-2.48107381e+262
1.15488818e+261
1.86839198e+260
-1.41852778e+260
-5.23818783e+260
-4.76215182e+260
-6.89619118e+259
5.47647718e+259
-2.23607821e+259
8.12411459e+258
-5.13059573e+259
-2.95581362e+268
-8.35077682e+268
2.60887121e+268
-2.83761096e+269
1.35101032e+269
-1.46516892e+269
-1.68008844e+269
4.97180416e+269
-5.25414056e+269
-4.09714760e+269
2.23604698e+271
-1.09035898e+272
-3.45885699e+272
-8.62032220e+271
3.96603241e+270
3.12218421e+270
-3.75343356e+270
1.55150997e+271
1.55171447e+273
-1.65477959e+274
1.00902393e+273
-4.91163467e+273
-1.81367472e+273
-1.60987049e+273
-3.10408306e+274
8.68776248e+274
-3.63703443e+274
3.78116163e+274
2.72851056e+273
-4.21514721e+275
-3.51743701e+275
-4.18160940e+276
3.87998026e+275
4.79676605e+276
3.56246608e+276
-4.18088727e+276
4.08473146e+276
-1.60787942e+276
-3.50117954e+276
9.84523525e+276
5.50558853e+276
-4.29916946e+277
6.76945935e+277
3.45314970e+277
-6.66310737e+276
4.53319165e+276
-8.28072885e+276
5.78236384e+276
-6.44657873e+275
2.60483632e+275
-7.36484456e+275
-6.91691551e+273
2.20716077e+274
4.29222132e+273
-7.16216530e+273
-8.86810728e+273
2.89230192e+273
3.24327210e+273
-5.13751497e+272
-1.20613996e+273
3.47406999e+272
-1.49152646e+273
-4.10705199e+271
1.33103569e+271
-2.27699510e+270
-2.65714969e+269
-6.65086753e+270
-7.41802220e+270
5.15424302e+269
1.41829331e+269
9.98044225e+268
1.86919430e+268
2.52692482e+268
-9.89573374e+267
-3.43061406e+267
7.99847433e+265
-1.83978321e+268
-3.93598887e+267
-8.79416704e+267
-7.17080222e+266
-1.08259292e+267
-7.82782821e+267
-6.17813802e+266
-1.07387686e+268
-5.32943692e+267
-4.73129157e+266
3.47244590e+267
4.29298357e+267
-2.52960305e+267
-1.80585208e+267
3.23085502e+267
-6.41766870e+267
4.48909592e+267
-2.12588816e+267
-3.92554684e+267
1.52453184e+268
-2.39380692e+267
-1.46949537e+265
5.88790554e+264
2.23830803e+264
7.00375745e+264
-4.66342141e+264
-1.78453651e+263
2.90195062e+263
-8.87872102e+263
2.44239055e+264
-6.65565620e+263
9.85473022e+262
7.31400633e+263
-8.25926302e+263
-2.98028316e+263
-1.26021487e+263
6.48623463e+262
-9.76838331e+262
-1.91437596e+263
-2.09208527e+262
2.98347963e+262
-5.62733462e+262
-3.90377699e+260
-1.26620406e+260
3.46781812e+261
4.12975398e+261
2.34282179e+260
3.96705302e+259
2.23071547e+259
2.76175416e+259
-3.06800012e+259
6.68875183e+259
3.91328834e+268
-2.85158980e+268
2.33255740e+269
-3.68825126e+269
-8.40394231e+267
-4.38623240e+268
1.11317660e+270
-2.84720259e+270
1.14190625e+270
-1.11689039e+271
4.61592819e+271
-2.59477895e+271
1.93495904e+272
5.32732168e+271
-3.46345011e+270
-4.12098344e+268
-2.48336051e+271
-1.29320411e+272
-9.63790006e+272
2.49712433e+273
5.65100716e+273
1.43107892e+273
4.59482953e+272
2.03973004e+273
-3.20746136e+274
5.74479401e+274
-9.91626927e+273
-6.00305484e+274
1.05002293e+275
1.41168997e+275
-1.19069367e+274
8.30268733e+275
-2.47582483e+276
-1.72670911e+276
-1.88051736e+275
3.56551697e+275
1.69844246e+276
-3.03283904e+276
-1.36741464e+277
1.11021947e+277
-3.92383568e+276
-9.40858840e+276
-4.14992104e+277
-7.37489159e+276
-1.42541846e+277
7.43150749e+276
-4.53707141e+276
6.72659601e+275
-9.26410892e+274
2.10853941e+275
3.59912639e+274
-3.44040615e+274
1.92062548e+274
-2.82723666e+274
2.12602710e+274
1.27892015e+274
3.00716219e+273
1.21687114e+273
1.41396631e+272
3.68443332e+272
-1.59582492e+272
1.27522629e+272
5.61315330e+271
8.00501382e+269
3.85483123e+270
-1.50188699e+271
3.95398393e+270
6.82172783e+269
-7.94899797e+269
-2.13712041e+268
-8.49418073e+268
1.81321781e+268
4.16031309e+268
1.26139413e+268
5.87158165e+267
5.65633730e+266
7.48778716e+267
4.52762173e+267
1.45371824e+267
-2.19574882e+267
1.91220294e+267
9.34791934e+267
5.15143367e+267
2.33063156e+268
-5.50364349e+267
-6.58366425e+266
-2.53524711e+267
-4.06027881e+267
-1.07027410e+267
8.61285633e+265
-4.82609897e+265
-2.75147963e+266
-4.12254587e+266
1.29053127e+265
1.62735315e+267
-2.34406344e+267
-5.59161053e+267
-5.39783994e+264
1.45209021e+265
-2.97454649e+264
1.10572793e+265
7.08474578e+263
-8.18207032e+263
1.35898077e+264
-7.22564156e+264
7.47583537e+264
-1.41655263e+264
3.46717869e+264
-1.21370958e+264
-5.94186510e+263
2.44450430e+263
1.25943298e+263
-1.35664434e+263
5.99243429e+263
-8.76870892e+262
-3.52391284e+262
5.95366929e+261
-2.35858695e+261
-3.26901365e+261
-4.39082803e+261
-1.40454573e+262
2.98372072e+261
-1.95535181e+259
-1.44592002e+260
4.46352399e+259
7.19837881e+259
-1.76784021e+260
1.29508829e+260
1.31534444e+266
-7.39057616e+268
4.11699130e+269
2.04890758e+269
-1.56797592e+269
-5.53568204e+269
3.26704260e+270
-4.99266164e+270
3.66200304e+270
-9.99914836e+270
6.06698271e+270
-1.06940971e+271
-3.24961902e+270
-7.02343329e+270
4.31226204e+270
7.83958663e+270
1.78310964e+272
-3.61058997e+272
5.04880288e+272
-8.38400092e+272
2.20778714e+272
4.26757562e+272
1.60254606e+272
5.77661567e+272
2.87013408e+273
-2.11059752e+274
-5.24979807e+273
-3.19250847e+274
-1.66720578e+274
-2.49751562e+275
2.30547091e+275
-6.52332309e+275
8.41391402e+274
1.43668456e+276
-2.04039303e+276
-1.14698035e+275
1.84717768e+275
-5.45216744e+275
9.12825228e+275
6.49469243e+276
-2.73883445e+276
-1.79729695e+276
2.04157398e+274
5.09524752e+276
-1.93846281e+277
4.70484355e+277
-1.67316251e+277
2.97317884e+275
-8.61460378e+274
-6.09181466e+274
-1.00908624e+274
3.17785541e+273
1.13593964e+274
-1.77176553e+273
-8.45555971e+273
-5.08687268e+273
-2.76330820e+273
-2.08568510e+272
-2.89192632e+272
-5.68166028e+272
-6.02695941e+271
7.89285082e+271
5.67018846e+271
-4.68985378e+271
-2.35383437e+270
-3.56495649e+270
6.66124508e+270
-1.58229963e+270
-7.44788293e+269
7.67812091e+269
5.67575457e+268
-1.34095374e+269
-7.90871907e+268
4.76121430e+268
-1.11934381e+269
-4.30870535e+268
-1.41784425e+269
-6.91696210e+268
-1.02103338e+268
-2.12756459e+268
1.96290438e+268
4.33704626e+267
1.71714182e+267
1.49559612e+268
2.08385560e+267
3.43118139e+267
-2.15473129e+267
1.93350489e+267
2.15500623e+267
3.04110548e+267
-5.90538294e+266
2.10879141e+266
6.50449189e+265
2.06839506e+266
-3.96306777e+265
-1.11963417e+265
-3.24397078e+265
7.89602616e+263
1.00720263e+265
-6.25086654e+264
4.95928292e+264
-2.29828198e+264
-3.61509489e+264
2.29152700e+264
-6.64357457e+264
-3.31944344e+264
-7.79849379e+263
7.13965895e+263
-1.58336373e+263
-4.12923854e+263
-3.77392516e+263
7.31111671e+261
-1.50711664e+263
-2.36115161e+263
1.21136613e+263
1.90775374e+263
-3.86083104e+261
1.35342253e+261
3.37178595e+262
3.49780448e+262
-2.48781799e+261
-3.15566803e+261
1.94527863e+261
-1.32373106e+260
8.65850201e+258
6.17046222e+259
-6.26026656e+259
6.96142291e+259
-2.78691424e+267
4.45247849e+268
-2.13831915e+269
5.86936074e+268
-1.71928870e+269
-1.17528023e+270
-1.27518420e+269
-4.23741652e+270
1.93662958e+270
3.29835553e+270
2.60307419e+270
-4.00956666e+271
3.37857014e+271
1.27460713e+271
-3.18100750e+270
-1.69931922e+270
4.52427200e+272
-1.52676814e+273
1.45772980e+273
2.74542075e+272
8.56251280e+272
1.00965091e+271
1.77550965e+273
-2.12114812e+273
5.91326649e+273
3.69264589e+273
-5.57364329e+273
2.43062551e+274
7.64583271e+274
-1.18261219e+275
8.78011414e+275
-5.32920414e+275
4.33480845e+275
-3.39334227e+275
7.55290189e+275
-1.92345438e+275
-3.56212898e+276
-9.91242033e+276
1.33031340e+277
-1.60685640e+277
-1.84976399e+276
2.47868512e+276
3.71263554e+276
-1.94689611e+276
-1.44911913e+277
4.23661002e+276
1.86614971e+276
4.74910550e+275
-1.86179861e+275
3.24370285e+274
6.15154051e+273
3.16117829e+272
-8.17837747e+273
-1.24722672e+273
-3.13771962e+273
1.28947010e+273
-2.30422669e+273
-2.08042802e+273
1.76494011e+273
-2.80858735e+272
1.35264650e+273
-8.87498043e+272
-4.60575425e+271
9.06906439e+271
7.84936903e+271
3.76958126e+271
3.55577989e+271
3.16069038e+269
8.85439449e+269
2.89610204e+269
-8.35122138e+269
3.44171295e+268
5.60076654e+269
-3.89179068e+269
4.82636906e+269
-3.06950495e+269
-1.42322325e+269
-4.18187469e+269
1.27901996e+269
-1.13628406e+269
9.61464813e+268
-3.99362393e+268
-2.31425256e+268
7.62412502e+266
-1.54436991e+268
5.09672569e+267
-9.14886228e+266
-5.40542517e+267
-1.69891278e+267
-5.25526369e+267
5.37118922e+265
2.70364695e+266
7.12979070e+265
-4.53481457e+265
-3.26379753e+265
-5.14177759e+263
-3.11819780e+264
-1.47849806e+265
1.78111798e+265
-5.66555990e+264
-2.85095140e+264
-2.18408875e+264
4.40836029e+264
-4.83319437e+264
5.97555240e+264
-2.63109515e+263
2.09144864e+264
-8.49746901e+263
-9.57598456e+262
4.10718321e+262
1.01824285e+264
-1.28948249e+263
-1.93643987e+262
1.12324663e+263
1.11261159e+263
-1.63625879e+263
2.17331671e+262
-7.07111555e+261
7.43334977e+259
-2.96512776e+262
4.26766305e+262
-1.15281628e+261
-3.09211572e+260
8.83970067e+259
8.00282915e+259
-6.34299101e+259
1.66583641e+259
-9.39768784e+258
-1.12382440e+267
7.80522391e+267
-1.04168527e+269
1.91496245e+269
-1.32109264e+269
8.80614302e+269
2.01178770e+270
-2.77106326e+270
-1.51663769e+270
-7.95224137e+270
-9.65220101e+271
1.03457313e+272
-3.30835649e+270
2.64488804e+271
9.61426315e+270
-1.79154401e+271
-3.80741741e+271
-2.58424881e+272
-1.64747814e+272
-1.94317547e+272
1.36294196e+272
-2.05126468e+273
-2.08742054e+273
-2.91641048e+273
-1.00104539e+273
-2.31579677e+273
-2.74359366e+273
-1.98437336e+274
-2.84966935e+274
2.71166906e+274
1.66575151e+274
-4.26008343e+275
-4.35606275e+274
-3.56731836e+275
1.78454048e+275
-2.88375899e+276
-6.64895659e+276
2.70896570e+277
-1.70472474e+276
1.15271161e+277
-1.34603095e+277
5.90973171e+276
3.34833367e+275
-1.23726903e+276
5.84667961e+275
-7.37295143e+274
-1.85424806e+275
-8.94087493e+275
-4.58546293e+275
-9.28795037e+275
-2.69685914e+275
-3.31676974e+274
-6.43611462e+274
2.87297071e+273
-1.33045818e+273
6.38973632e+273
-6.82745355e+272
2.86149322e+272
5.52952093e+273
-2.00824759e+273
6.71984871e+273
-3.38632303e+273
-6.85970972e+271
-3.93339127e+271
-5.24224224e+271
-5.17927240e+271
3.64596802e+271
2.26821199e+271
8.29652848e+270
2.30041154e+270
3.11345888e+270
-3.67616901e+269
5.11178089e+269
-2.50040992e+270
2.41861461e+270
-1.57650561e+270
-2.08100343e+269
2.19218333e+270
1.77292848e+269
-4.61898678e+268
3.46513880e+268
-5.10561524e+268
-1.29138207e+268
-1.88666266e+268
3.36272588e+267
4.22810458e+267
-6.00625691e+266
-3.70397078e+267
4.83841537e+267
5.71305533e+266
-6.91998422e+265
-4.55524703e+266
1.98847674e+266
-4.37241590e+265
1.89580752e+265
2.35255984e+264
5.26804706e+264
-9.09517047e+264
7.92845914e+264
1.53956124e+265
3.80269017e+264
-9.25335911e+264
-1.50559818e+264
-7.72977231e+264
5.60330263e+264
7.45831785e+263
8.96281024e+261
-2.45935013e+263
5.26345531e+263
5.03952108e+262
-4.87780921e+262
1.88437384e+263
-9.64194707e+262
1.95161926e+263
9.36013274e+262
-1.55064584e+263
-3.02086196e+262
3.33815016e+262
-2.35027113e+262
-1.42305511e+263
-3.91620786e+261
-4.40554840e+260
2.59083224e+261
6.49265874e+260
-2.79891092e+260
-6.47264109e+259
8.27246336e+259
4.78183820e+259
3.39677580e+268
1.74009327e+268
-1.08476865e+269
9.37962844e+268
1.25066225e+270
-2.01849019e+269
2.79925790e+268
2.78791851e+270
2.36533120e+271
-2.07966808e+271
-3.16334506e+271
1.05339369e+272
-9.68335924e+271
1.72356812e+272
-9.94723167e+271
-5.97390319e+271
-1.98987404e+271
5.31798837e+272
-2.03808966e+271
9.21661169e+271
-8.30717184e+272
1.68163547e+273
1.86868083e+273
4.37288400e+272
4.32060060e+273
-1.94662150e+272
5.87957028e+273
1.08899261e+273
-8.87511482e+273
-1.26403065e+274
4.47339947e+272
-7.26984674e+274
3.24700408e+275
6.56050340e+275
2.01108338e+274
-1.14037432e+276
5.74481645e+275
2.90680317e+276
-9.18641991e+276
-8.89835766e+276
-1.91810586e+276
2.38764906e+276
-1.01628080e+276
-4.11082088e+274
-2.08454274e+275
1.31118937e+275
1.30142899e+275
9.22633417e+275
9.06072509e+275
9.04366116e+275
-1.15131824e+275
-2.30935434e+274
-3.14951920e+274
-1.10758145e+274
1.46662853e+273
-2.33675442e+274
-2.43893987e+273
-4.98804251e+273
-7.93126996e+273
3.89422125e+273
2.32179578e+273
-2.60434701e+272
1.41673293e+272
-7.38244589e+270
-5.24029344e+271
4.01346348e+272
-7.94464480e+271
-3.90336531e+271
2.46612353e+271
6.88261136e+269
9.09310277e+269
-4.68931749e+270
1.99145085e+270
3.90283285e+269
-1.37849219e+269
5.18886489e+269
9.98440240e+269
-3.30336632e+269
-9.62742284e+269
9.68865040e+268
2.16712389e+269
-1.35414797e+270
1.35581897e+270
2.42147363e+268
-6.68973877e+267
-6.71397752e+267
1.76160581e+268
3.02521684e+267
5.93687389e+265
3.53363114e+267
-5.62877823e+266
-1.08709109e+267
5.16564087e+265
5.87759611e+266
6.99221675e+266
-8.14636898e+264
-1.61777964e+263
-1.76115599e+265
-1.00505384e+265
-9.40107789e+264
3.09221780e+265
-6.57659868e+264
-1.33987858e+264
4.93764365e+264
4.40625731e+263
1.73646585e+262
4.77458633e+263
1.27490532e+263
-1.34750449e+262
2.61208400e+263
-2.75966917e+263
-4.03841455e+263
-1.24056344e+264
-5.84506988e+264
-7.59522053e+263
1.40403147e+264
-4.71646986e+262
-1.46519654e+262
2.47294714e+262
9.30406579e+262
8.02897911e+260
-9.75738105e+261
-4.53312613e+261
3.63820494e+261
3.91251965e+260
2.20144309e+261
2.30497424e+261
3.07951994e+261
-1.88951097e+268
-7.71479857e+267
-1.38456981e+269
2.75726221e+269
-4.83366687e+269
2.40225625e+269
2.00977552e+270
-4.03900090e+270
-1.38814052e+271
-2.55660055e+271
4.09713859e+271
-1.23051311e+272
7.24210881e+270
-2.46394184e+272
-1.00935108e+272
-3.86282595e+272
2.11739404e+272
2.69111982e+272
-1.32967838e+273
5.93354451e+272
1.03509278e+273
-1.43152392e+273
-1.74088749e+273