# vtk DataFile Version 2.0
LBM Flow Field - Timestep 940
ASCII
DATASET STRUCTURED_POINTS
DIMENSIONS 128 128 1
ORIGIN 0.0 0.0 0.0
SPACING 1.0 1.0 1.0
POINT_DATA 16384
SCALARS density double 1
LOOKUP_TABLE default
1.32137768e+00
1.31065620e+00
1.29779753e+00
1.28511097e+00
1.27239842e+00
1.25999004e+00
1.24754165e+00
1.23552075e+00
1.22344707e+00
1.21191231e+00
1.20031354e+00
1.18935045e+00
1.17831417e+00
1.16799329e+00
1.15759259e+00
1.14796826e+00
1.13826056e+00
1.12937042e+00
1.12039688e+00
1.11226202e+00
1.10404752e+00
1.09667328e+00
1.08922702e+00
1.08260425e+00
1.07592079e+00
1.07002767e+00
1.06408840e+00
1.05889237e+00
1.05366732e+00
1.04912732e+00
1.04457716e+00
1.04064585e+00
1.03672396e+00
1.03334986e+00
1.03000449e+00
1.02713401e+00
1.02431026e+00
1.02188943e+00
1.01953117e+00
1.01750717e+00
1.01555866e+00
1.01388098e+00
1.01228833e+00
1.01090966e+00
1.00962190e+00
1.00849874e+00
1.00746875e+00
1.00656174e+00
1.00574677e+00
1.00502083e+00
1.00438286e+00
1.00380715e+00
1.00331295e+00
1.00286070e+00
1.00248177e+00
1.00212997e+00
1.00184229e+00
1.00157141e+00
1.00135506e+00
1.00114873e+00
1.00098747e+00
1.00083205e+00
1.00071286e+00
1.00059715e+00
1.00050973e+00
1.00042463e+00
1.00036100e+00
1.00029919e+00
1.00025318e+00
1.00020887e+00
1.00017582e+00
1.00014448e+00
1.00012090e+00
1.00009902e+00
1.00008230e+00
1.00006723e+00
1.00005547e+00
1.00004522e+00
1.00003701e+00
1.00003012e+00
1.00002445e+00
1.00001987e+00
1.00001599e+00
1.00001298e+00
1.00001035e+00
1.00000840e+00
1.00000664e+00
1.00000537e+00
1.00000422e+00
1.00000340e+00
1.00000265e+00
1.00000213e+00
1.00000165e+00
1.00000132e+00
1.00000102e+00
1.00000081e+00
1.00000062e+00
1.00000049e+00
1.00000038e+00
1.00000029e+00
1.00000023e+00
1.00000017e+00
1.00000013e+00
1.00000010e+00
1.00000008e+00
1.00000006e+00
1.00000005e+00
1.00000003e+00
1.00000003e+00
1.00000002e+00
1.00000001e+00
1.00000001e+00
1.00000001e+00
1.00000001e+00
1.00000000e+00
1.00000000e+00
1.00000000e+00
1.00000000e+00
1.00000000e+00
1.00000000e+00
1.00000000e+00
1.00000000e+00
1.00000000e+00
1.00000000e+00
1.00000000e+00
1.00000000e+00
1.00000000e+00
1.00000000e+00
-2.84960679e+117
-2.36749741e+116
1.49065965e+117
-2.36679131e+117
9.62594941e+116
-1.59430125e+117
9.09016974e+117
-1.55156942e+117
-1.81197513e+118
-3.74298520e+118
-1.62928973e+119
4.17788336e+119
5.98368518e+119
2.68061714e+120
2.13155659e+120
4.98113401e+119
-9.86843752e+118
-1.17321774e+119
-1.75078678e+119
-3.00511443e+118
1.21603701e+119
2.97378495e+119
-4.05689717e+119
-1.72059026e+119
3.94145366e+119
4.63345371e+119
1.95891190e+119
-2.19354590e+119
-4.40403682e+119
3.16632008e+120
6.93247244e+120
-3.17990184e+120
-9.50994916e+119
1.31785923e+120
-3.94301917e+120
2.03941749e+120
-8.56033499e+121
8.97635373e+121
3.02678137e+121
4.09820459e+121
4.34595299e+121
-4.67202257e+122
-2.11692627e+122
-3.58587749e+121
4.15375123e+121
-3.45131773e+121
9.57734633e+120
-3.11858135e+120
-1.78986717e+121
5.18426617e+121
-6.69776481e+120
-2.06895389e+121
-5.08923775e+120
1.20914774e+121
-3.46201098e+120
1.63748182e+120
1.35031280e+120
-1.73302251e+119
-4.42722821e+119
-5.33818653e+118
-1.47231334e+118
4.68245888e+118
4.38596202e+117
-7.07114849e+118
3.38614168e+118
2.96112165e+118
-1.09147709e+118
-2.89247733e+118
9.29257236e+117
-2.63727852e+118
-4.40220706e+117
1.76630307e+118
8.64946790e+117
1.15680743e+118
6.10592440e+117
-7.91241819e+117
-3.17927659e+119
2.16760786e+119
5.11674060e+118
3.24590984e+118
3.43663030e+117
9.95932669e+116
3.20552454e+117
-2.66022381e+117
3.53266723e+117
-2.48873044e+116
-1.41661762e+116
8.20642122e+115
-2.52226534e+115
1.49137668e+115
-5.97682889e+114
-2.10307327e+115
-1.54807306e+115
3.98502913e+114
-1.26470375e+115
-4.90166719e+115
-2.55397339e+115
-7.75718448e+113
-4.35909889e+112
-4.68465729e+113
4.69597048e+112
1.35473433e+114
-2.38716777e+114
3.75217396e+112
-4.09469310e+112
-4.46390857e+112
1.84509501e+112
4.37476007e+111
4.55435202e+110
-2.37476558e+110
-3.63315589e+111
9.66290097e+110
-1.58017656e+111
1.19804008e+111
1.59760457e+111
-9.35485076e+110
1.42146980e+109
1.70751262e+111
2.69213351e+110
1.10013044e+110
-5.67389024e+109
5.30362506e+109
3.31785886e+108
-7.36044030e+107
-1.34715114e+107
1.58014083e+107
-2.17209660e+106
-9.58316256e+105
3.27368381e+118
5.74073430e+118
5.13691335e+118
1.04546517e+119
6.06706860e+118
5.57939783e+118
6.65557598e+118
-3.21379902e+118
-1.24220584e+119
7.69403629e+118
-6.66634772e+118
-4.31854323e+119
-7.37864811e+120
-1.66367260e+121
-9.84818615e+120
1.49127476e+120
-8.95114426e+118
1.85075838e+119
5.68857931e+119
-2.48110047e+117
-2.01253500e+119
-1.01354967e+119
1.95568905e+119
5.07901470e+119
-1.69867966e+119
-2.03742917e+121
-1.16790564e+122
-5.22525894e+121
-1.50639817e+122
-5.47580921e+121
2.99252338e+120
-1.48110796e+120
-9.66581016e+120
-3.82670785e+120
-1.73857096e+121
6.19723363e+120
-8.37362390e+121
1.43966042e+122
-5.99579044e+121
1.26463521e+122
1.33273413e+123
1.30991498e+123
3.50697981e+122
1.72701589e+122
2.01922084e+122
3.16522428e+122
-2.00201573e+121
2.29980233e+122
-8.30859224e+121
2.79492161e+121
7.86834932e+121
-9.98010029e+121
-1.59680639e+121
1.12197196e+121
-1.37186788e+121
1.34591789e+121
-5.20515018e+120
4.66056552e+118
1.91656973e+119
3.48896884e+118
-2.48264090e+118
9.50522385e+118
7.33267403e+118
-3.20739509e+118
-1.03059198e+118
6.28414910e+118
4.50014252e+118
3.01594088e+118
3.58422470e+117
2.64632262e+118
-4.00353163e+118
-2.54018276e+118
-8.60662106e+117
2.61294069e+118
1.48978134e+119
2.83620717e+119
-4.30196052e+119
1.20796715e+120
-5.60236732e+119
-3.58725858e+118
4.36538645e+118
-9.50235049e+117
-4.99105501e+117
-8.70161405e+117
1.66603089e+118
-5.06816368e+117
8.02645944e+116
4.02057488e+116
1.69519030e+116
-9.40950495e+115
-1.00915551e+116
1.23404085e+115
-6.68786745e+115
3.00503898e+115
-2.16665448e+116
-7.00329658e+115
6.02791280e+115
-3.47837023e+114
1.12772948e+114
1.99990899e+113
-4.49099869e+114
9.85739072e+114
-3.89669924e+114
3.29126531e+112
-4.07282093e+112
2.82591052e+111
3.05033799e+112
7.77164846e+111
1.14320774e+112
-4.60537828e+111
2.05928563e+110
2.19722888e+111
-7.33689637e+110
3.27340443e+111
-2.88268989e+111
5.34141517e+110
-5.42851495e+111
2.29150524e+111
4.32936093e+110
-6.65984324e+109
-2.12247787e+110
1.79600692e+109
9.90000248e+108
-1.71306940e+108
-4.43741251e+107
4.29208768e+107
2.11945907e+106
-1.68153918e+106
3.64710736e+118
-7.76222958e+118
-6.16300951e+118
-1.00392175e+119
-8.26109228e+118
-2.21012758e+119
-1.82306027e+119
-1.02111731e+119
-5.21732828e+118
-1.04296596e+119
8.36220537e+119
-4.77130832e+120
9.64031642e+120
3.34574881e+121
1.25110326e+121
-6.10234927e+120
-8.80350180e+119
-6.85990536e+118
2.84382866e+119
-1.20107122e+120
3.93066846e+119
-4.27674026e+119
4.82159103e+119
4.02719037e+119
1.72774222e+120
3.10913767e+120
1.57536335e+122
1.34096331e+122
1.35161520e+122
1.20915983e+120
-5.58696902e+121
-1.00398637e+121
-1.53266436e+121
4.27210328e+121
-1.96676237e+120
6.27805558e+121
-1.28771955e+122
-4.94400542e+121
1.03239232e+122
9.69159104e+122
-1.64358406e+123
-1.22922822e+123
-1.14263006e+123
4.41876047e+121
-1.34242493e+123
2.18002548e+122
8.21473763e+118
-4.13482100e+122
-2.37324463e+121
-3.53239160e+122
4.49792422e+122
-6.86175361e+121
-1.21228912e+121
2.19033921e+121
-1.53301265e+121
1.53370475e+121
9.42608736e+120
6.08497726e+120
1.19001130e+120
5.22968623e+119
1.55210141e+119
1.67993724e+119
4.78445068e+118
-1.79238166e+119
-1.03721329e+119
-1.50156028e+119
-8.87884581e+118
5.04798696e+118
-4.17287898e+118
5.56416323e+118
3.43603981e+118
-9.58191942e+118
-7.86714185e+118
-5.13570994e+119
-1.50305297e+120
3.69216041e+120
-1.19934669e+120
-5.40261585e+119
-2.40429956e+119
-2.12986511e+118
-3.91628825e+118
-2.91914211e+118
-3.41602151e+118
-1.61791336e+118
-3.00379935e+117
-3.42304685e+117
-1.39854975e+116
5.76018149e+116
5.57397592e+116
2.86231261e+116
-1.78447823e+116
1.54344235e+115
-1.12836910e+116
1.68325082e+115
-9.51189928e+115
7.31434721e+116
7.73091436e+114
-2.92216763e+115
-5.50582543e+114
-7.39863590e+113
-1.54339723e+114
-1.53100311e+113
8.06074656e+112
2.07775380e+113
-6.46659251e+112
-7.13280778e+112
-5.91722578e+112
-7.70939952e+112
-2.80984985e+112
-2.09412148e+112
-3.02815933e+112
1.17426678e+111
-1.81972955e+111
6.62361563e+111
-8.41376753e+110
4.14746626e+111
2.02165708e+112
-2.30886057e+111
2.44083331e+110
-2.13593656e+110
-1.07805726e+110
2.40291048e+110
-2.37369797e+108
-1.42237054e+108
1.71401744e+108
2.17776207e+107
7.70714053e+107
3.55162345e+106
-5.83870848e+118
4.59645619e+118
2.00397276e+118
-4.49206237e+118
-1.04134498e+120
5.55837511e+119
1.46198648e+119
-7.48539911e+120
4.14488854e+119
-1.04300075e+120
3.93100649e+120
-5.39663911e+120
6.82001815e+120
-1.65560410e+121
1.63262751e+121
-2.64426107e+120
8.69678264e+120
-1.21024616e+120
-5.38560244e+120
8.31242199e+119
1.07169673e+120
-1.65633046e+120
3.47034230e+119
-5.51098567e+119
2.61900920e+121
-6.36908548e+120
-4.35998183e+121
-2.74582368e+121
-3.34973242e+121
1.14738500e+122
2.66809298e+121
2.05099367e+120
-7.28320386e+120
4.85420477e+121
6.19693304e+121
9.68035204e+121
-1.05366049e+121
3.51932376e+122
-2.38662562e+122
-1.26363428e+122
-2.35013404e+123
-5.90736138e+122
6.61710066e+122
1.76512161e+123
1.42728795e+123
-5.99112526e+122
4.65515658e+122
1.57682701e+122
1.87961219e+122
-1.22915917e+122
-1.09701545e+122
1.30178044e+122
-9.09403916e+120
5.26310965e+120
1.13884190e+121
-1.27302994e+121
-3.10306518e+121
-1.36403104e+121
5.41770506e+120
-6.64080228e+119
-2.34234731e+119
2.71308367e+119
2.54800714e+119
-1.56211189e+119
1.46394380e+119
-1.06585926e+119
-1.57468314e+119
3.25033598e+119
-5.66684514e+118
-1.39803268e+119
-9.58829265e+118
-1.99412392e+119
-8.60039433e+119
-1.30108157e+121
5.35074595e+120
2.44192733e+120
7.12176420e+120
-8.14599621e+120
-6.56025117e+118
-6.89279164e+118
1.50235539e+119
4.61893998e+118
7.20736676e+118
-4.00548338e+117
-5.63356833e+117
1.24444236e+118
-6.91351851e+117
3.00730685e+118
-3.10278613e+118
5.41744775e+117
4.53175229e+116
5.55318008e+116
4.66549954e+116
-2.98905681e+116
-7.07354675e+115
-4.96903168e+115
-2.54542465e+116
-2.89805114e+115
-2.63662061e+115
-9.96053946e+114
-8.81949758e+114
-2.45644113e+114
-5.48754595e+114
-4.44460638e+114
-1.23172505e+114
3.30319419e+113
1.52357015e+113
6.74097357e+112
4.16135701e+112
4.70632626e+112
-6.80188493e+111
-1.09282181e+111
3.53595326e+110
-3.09795578e+112
6.32369440e+112
-5.04239557e+112
1.98731101e+112
1.91378478e+111
-1.55010255e+111
-9.57325354e+110
4.53351792e+108
-1.74692466e+109
-2.20671159e+110
-2.90084826e+110
-1.29787766e+109
-1.91936424e+107
-1.06978483e+108
-4.01847271e+107
-8.88124127e+117
5.09521379e+118
4.64963661e+119
-9.22992823e+118
1.13209749e+120
-5.36620118e+120
2.50964182e+121
-8.42682612e+120
3.56059889e+119
-4.41798980e+119
-8.91511279e+119
-8.69759044e+120
1.26680461e+121
9.03719811e+120
-2.07920572e+121
-1.10969502e+121
-1.03645763e+121
1.79306726e+121
-3.44270728e+119
6.56380519e+119
1.90127962e+120
-1.77420730e+120
2.76340017e+119
-2.03864821e+120
-1.63221201e+121
1.83896068e+121
-4.94729301e+121
-9.18756982e+120
-3.85405324e+121
6.67168892e+121
-1.06688693e+121
-5.92265570e+120
1.58044471e+121
-2.27973030e+121
-1.07592805e+122
-3.02443539e+123
-2.78062769e+123
-4.86167085e+123
-4.98811306e+122
5.81437779e+122
4.19395639e+123
7.70254523e+121
3.42848885e+122
-6.03153131e+122
-2.85533615e+123
-5.08084463e+122
-1.24114832e+123
-2.38961263e+122
3.66744131e+122
2.70906556e+122
3.50264501e+121
7.03336015e+121
8.89379354e+121
-1.19028257e+120
-4.79262825e+121
5.85971502e+120
4.58221726e+121
3.41812174e+121
-1.27963408e+121
-4.60666930e+120
-1.47401363e+121
-5.57244559e+120
-6.68852845e+119
4.87582087e+119
5.40229270e+119
5.00844455e+119
-1.54992528e+119
-2.09668553e+119
1.50103027e+119
4.54266343e+118
7.09821546e+118
5.47027060e+119
2.91251558e+120
1.51497354e+120
1.39966528e+121
-1.53469005e+121
1.22540495e+121
-5.74227323e+120
-1.18396500e+120
2.75704979e+119
-1.27706123e+119
1.69052108e+118
2.20587085e+118
1.24520817e+118
-2.51437030e+118
-7.58007281e+117
1.49643291e+118
6.38151661e+118
-1.42980386e+119
6.57418124e+118
5.66791367e+115
-5.12467428e+116
1.81700798e+116
-3.53752809e+116
-2.30830222e+116
3.82887665e+114
-5.51566232e+115
5.82635751e+115
2.80874657e+115
6.65955352e+115
6.03940705e+114
-3.80643382e+114
1.62384872e+115
4.65373484e+114
1.03467696e+114
-9.29021542e+113
-1.01726572e+114
8.47379596e+113
-8.70793891e+112
1.05578097e+113
8.72071246e+112
-4.28977019e+112
-1.22805056e+112
-3.16754622e+112
-1.13642188e+113
7.92377190e+112
2.48834182e+110
-5.34991446e+111
8.98113656e+111
3.17575577e+111
-8.72149919e+110
1.29394469e+111
8.48582224e+110
1.58657153e+110
-3.01914169e+110
4.45451284e+108
1.53771164e+108
-3.92580343e+107
5.34534126e+119
-6.27122568e+119
-4.82480321e+119
-1.57234666e+119
9.65108730e+120
2.56233466e+121
8.57142466e+120
4.63286222e+120
-7.19030034e+119
1.19346765e+119
-5.05001281e+118
-1.05537606e+119
-3.36111338e+120
-1.62670660e+121
2.86919673e+119
8.34907531e+120
-5.78010951e+120
-3.60220508e+120
-6.81451315e+120
-6.03594949e+120
-5.46647333e+120
-9.92654542e+120
-1.04361728e+121
-1.96725223e+121
1.41347716e+121
8.59475441e+121
-1.99620209e+122
-5.98628914e+121
-1.01662235e+122
-4.62222419e+121
2.52458614e+121
-2.64094925e+121
-3.39244265e+121
4.40384057e+121
4.95410079e+121
2.11068990e+123
5.48725695e+123
4.21108830e+123
-1.31237710e+123
-7.68693114e+122
-1.59355348e+123
-5.11964624e+122
9.34448795e+122
1.86554215e+123
-1.56378904e+123
1.44695024e+123
2.37297123e+123
1.07872133e+123
-4.51029043e+122
-1.16186935e+123
-2.16826976e+122
1.55456646e+122
3.78942684e+121
-1.61797953e+122
-1.35046026e+122
-8.40906750e+122
6.59540546e+122
2.02036780e+123
-2.33741160e+121
2.20744388e+120
2.21907236e+121
-1.27063539e+121
-5.71175745e+120
1.95547977e+120
-1.44145636e+120
-1.67341455e+120
2.45600721e+118
-3.44769102e+119
4.14043982e+119
3.43630422e+118
-1.52088592e+119
3.28567149e+120
-3.28930839e+120
-1.60921153e+121
1.63455287e+121
2.73908289e+120
6.99102612e+120
-8.09055365e+120
3.57768748e+117
1.79098290e+119
-5.66801558e+118
-3.17897738e+119
-7.22326285e+118
5.37130088e+117
-1.28505472e+119
-6.60064718e+118
1.29659947e+118
-4.83907255e+117
-3.05152461e+118
7.64777628e+118
4.31643913e+118
5.29296244e+116
-4.85063189e+116
7.48781827e+115
-3.18756594e+116
-9.99535348e+114
2.97178734e+115
-1.22942937e+115
-2.38063533e+115
-6.94084401e+115
4.25607647e+115
-8.69569555e+114
-4.70989831e+114
-1.04402090e+115
5.72978808e+114
4.54764122e+113
-4.64717498e+114
2.51602979e+114
2.38391222e+113
-6.58593780e+113
5.12480224e+112
-1.20553566e+113
-4.02236714e+112
9.43239016e+112
-4.26871712e+112
-2.34927070e+112
3.26110654e+112
-2.46354444e+112
-1.88459905e+112
7.08544150e+111
-5.36049407e+111
-2.47629574e+111
4.95756991e+111
6.19900570e+110
-5.82144509e+110
3.14238669e+107
8.63982320e+107
-3.48869697e+107
8.30177874e+118
-4.25717561e+118
-7.50906561e+119
-2.26698435e+119
-1.54560253e+121
-6.71514283e+121
-1.80286634e+121
-1.34040911e+120
-1.87144499e+120
2.63829637e+119
-8.88143931e+119
1.42507668e+120
4.28168829e+119
7.24236774e+120
3.41477550e+120
1.59692115e+120
6.80053454e+120
2.18030269e+120
2.56231209e+120
2.19409421e+121
1.22971327e+122
5.54079309e+121
9.09493849e+121
9.96194561e+121
-1.94216805e+121
-4.44221901e+121
6.25011990e+122
1.54815383e+122
1.44115010e+122
-1.83697999e+122
7.58449395e+121
5.76366123e+121
-5.44977456e+120
1.05822724e+121
1.61285228e+123
1.22673756e+123
-5.06519483e+123
8.19771993e+122
-1.86517127e+122
-3.26338011e+123
-4.82721209e+123
-5.56506944e+122
-1.60316128e+123
-4.75239546e+123
-1.66307290e+121
-1.62637435e+121
-1.23820321e+123
-2.94345855e+122
-3.29667467e+121
6.04260994e+122
6.70065718e+121
-7.88932605e+122
9.46950277e+121
-1.66958256e+122
4.51940695e+122
2.42437328e+123
-7.57249819e+123
7.43795727e+122
4.41726793e+122
-3.88888422e+121
8.54743562e+120
4.11164555e+120
-1.09854160e+121
-9.76726577e+120
-1.14571599e+121
4.16857980e+120
1.10781256e+120
9.37717633e+119
-7.73725623e+119
-9.39272784e+119
1.31696363e+119
2.52588164e+120
-3.65422809e+120
-6.21605161e+119
-3.30618371e+120
7.26071845e+120
-1.86998159e+120
9.88718356e+118
3.31342920e+119
5.61162867e+119
2.27035667e+119
-2.56464021e+119
6.24700424e+119
2.85057997e+119
7.98929957e+118
1.76918399e+118
4.40297561e+118
-3.77331441e+118
-4.88587038e+118
-1.49898221e+119
-1.97809832e+118
-1.22922997e+117
7.09345164e+116
7.46367360e+116
4.52605158e+116
7.09912085e+116
6.84327673e+116
2.38851254e+116
2.40841957e+115
-4.81171526e+115
1.43095638e+114
-2.11395899e+115
-1.40776015e+114
-9.83066755e+114
4.69387883e+114
5.64900330e+113
-9.92198240e+113
4.83318830e+113
7.79007587e+113
-3.61094548e+113
8.88353866e+112
-1.21851105e+113
-1.33098877e+113
3.88087373e+112
-2.56162463e+112
2.86854755e+112
2.75410950e+112
5.76953745e+111
2.34611138e+112
8.15163989e+111
3.68782400e+111
-1.07792151e+112
7.48742071e+111
3.59249839e+110
-1.74435848e+110
-3.10545790e+107
-6.46505842e+108
9.67062738e+107
-1.71277964e+119
9.67194054e+119
-2.71315777e+120
4.92392671e+120
5.32219190e+120
3.24838792e+121
9.10530041e+120
1.89223000e+120
-6.60718357e+120
-3.45110790e+120
3.39004891e+120
4.03581539e+119
-2.72553446e+120
5.33059181e+121
1.15016749e+122
7.01961537e+119
1.03422613e+121
-2.57308833e+121
2.25055556e+120
-2.40554114e+122
-2.40458606e+122
-5.25099044e+122
-4.88680517e+122
-9.52588287e+120
9.95862789e+121
-1.44823737e+121
8.29317993e+121
-1.24295545e+122
-6.30466525e+121
-7.62121496e+121
1.27833609e+121
-4.73821842e+121
-1.04099729e+122
3.06567034e+121
-1.54539274e+123
4.04099881e+123
4.11943214e+123
3.92709402e+123
1.66126376e+123
5.97905859e+123
8.07036944e+123
-4.77146777e+122
1.90865016e+123
4.21879065e+122
4.11491681e+123
2.47619918e+122
1.46522648e+124
1.18738591e+124
-1.69537686e+124
7.74882539e+123
4.03111931e+123
1.11975427e+123
8.81889249e+122
-2.01723111e+123
1.73132931e+123
1.57733113e+123
4.89646668e+123
-3.67641833e+123
3.55001186e+122
-3.89501563e+122
2.23306493e+121
7.78182840e+121
2.18910329e+121
2.78974592e+120
-7.61807946e+120
-3.40663094e+120
-1.22680704e+120
-3.82058293e+118
6.01586477e+119
9.71000161e+119
3.41708706e+119
1.26360896e+120
-1.92217194e+120
-7.93164258e+120
-8.66531902e+120
1.43653582e+121
-2.36637955e+120
2.17705281e+119
-4.70397577e+120
2.58373138e+120
3.69885342e+120
2.49434597e+120
3.33873570e+120
1.61922215e+120
2.30320645e+119
8.96139749e+118
6.74115526e+119
2.83948283e+119
1.01667073e+119
-2.54755965e+119
-3.42291001e+119
-2.16553360e+116
3.19528730e+117
1.42446766e+117
-1.42737491e+117
-1.13905303e+117
-1.22707651e+117
-3.21374011e+116
7.26085501e+115
8.81417442e+115
1.70724992e+115
-1.24673307e+115
-4.27992730e+114
-4.15563235e+114
-7.98663471e+114
-7.03817297e+114
1.01204572e+114
9.97221796e+113
3.03413588e+113
-7.96537737e+113
6.10617871e+112
-2.22325235e+112
-8.80284279e+112
7.66212768e+112
-5.98522551e+112
-3.41789964e+112
-3.77332915e+111
-1.89037505e+112
-9.29995101e+111
-4.91791916e+111
1.10682140e+111
-6.33845981e+111
5.94725798e+111
8.74979192e+110
-1.62161453e+110
2.33363230e+109
1.46802300e+108
-1.21493313e+108
-3.19856930e+118
2.31745243e+119
-6.45093057e+119
8.74841168e+119
-9.89329390e+118
2.26333145e+120
-7.11687435e+119
-2.12001392e+120
7.87242788e+120
1.64415271e+121
-2.44786526e+120
6.03171114e+121
-1.93880514e+121
-7.54023011e+121
-2.93294378e+122
-8.03025899e+121
-2.79489473e+121
5.01075694e+121
-1.01304989e+121
1.64710601e+122
8.33944178e+122
1.90365139e+122
1.48738788e+122
-6.05267539e+122
-4.79635029e+121
-2.28297594e+122
2.52704775e+122
-2.75140228e+122
1.34061110e+122
3.82592334e+121
3.32594997e+120
4.53632157e+121
5.42119401e+121
-5.00248224e+121
-7.19324243e+122
-3.43366643e+123
-2.81685038e+123
-1.25274379e+124
-2.82561013e+123
-2.45250591e+123
2.40841945e+123
-8.37496152e+122
6.89998561e+123
1.05837026e+123
-2.97817682e+123
-4.61116681e+123
6.48515811e+123
-3.17751944e+124
-1.03876014e+124
-3.26063788e+124
3.77958196e+124
-1.08245697e+123
-5.79152357e+122
-4.98101927e+123
4.29441668e+123
-1.00037873e+123
7.42529350e+123
-3.47822504e+123
1.74912339e+122
-3.13140579e+122
-7.72699887e+121
1.34355400e+122
-1.18337379e+122
9.94189690e+121
-1.12623967e+121
7.09593603e+120
1.67089679e+121
-5.07976582e+120
1.40566586e+120
-6.86804811e+120
-1.12722058e+119
-2.08394763e+119
2.26869732e+120
4.81450736e+120
-6.77087025e+120
3.10786385e+120
-9.36754716e+120
3.28689244e+119
-3.39137959e+120
1.75397229e+121
-7.09917047e+120
-6.89118990e+120
-1.86172257e+120
-4.08536329e+120
2.41556169e+120
-4.18334839e+120
1.72781736e+120
-9.89732033e+119
1.74882290e+119
1.09806204e+120
2.08399205e+118
-8.87395861e+117
7.29936519e+116
3.01987423e+117
-7.64916118e+116
6.58662909e+116
3.84047850e+116
1.59777955e+116
-3.31413220e+116
-7.06352263e+115
6.86535925e+115
-3.38420201e+115
2.31185089e+114
1.87875346e+115
2.86778090e+115
-6.62864101e+114
-1.77448586e+114
-5.47963867e+112
2.52266391e+114
1.46272486e+114
-1.35317388e+115
-5.21156504e+113
-7.39210622e+112
5.06160607e+112
2.89722158e+112
3.32286914e+112
-2.89394114e+112
4.63505251e+110
-8.64378381e+111
-4.04797024e+111
4.88687439e+111
-2.52361383e+111
1.98954900e+111
-3.24877326e+110
9.67917817e+108
8.31710181e+109
1.37646599e+109
2.37927824e+108
-1.26169640e+119
-9.94908824e+119
1.55708239e+120
-3.28382420e+120
8.02063384e+119
-2.12738088e+120
-7.09651358e+120
4.36928127e+119
5.78594063e+120
-4.55628896e+120
-4.13738188e+121
7.47493536e+121
-2.36877391e+122
1.27064083e+122
1.68298841e+122
1.53700222e+122
-1.70900504e+122
2.09840009e+122
-5.31125689e+122
1.24328807e+121
-5.32362440e+122
2.34095570e+122
1.52649146e+123
-5.69991903e+122
6.59601279e+122
-4.43097605e+123
-2.39409567e+123
8.94476755e+122
2.81809635e+122
-2.00516691e+122
1.04302084e+123
2.48994039e+122
3.28218098e+122
-3.30007483e+122
-5.10032575e+121
4.30381426e+123
1.78508635e+123
2.50346175e+124
3.69706303e+124
-2.29740970e+123
-3.69051104e+123
1.65937600e+123
-1.03006614e+124
-2.42436109e+123
8.93749009e+122
7.00789993e+123
4.60285323e+124
-5.96687863e+124
5.00565234e+124
-5.63500700e+124
2.45486522e+124
-3.91551902e+123
1.45038014e+123
1.43723607e+124
5.47079847e+124
1.34611551e+124
4.82582849e+124
5.13020533e+123
1.68910201e+122
-2.20762837e+122
1.30959294e+123
-4.97149203e+122
1.24916647e+122
-5.45138160e+121
7.31645398e+121
7.21488846e+121
3.33391851e+121
-8.55399365e+120
1.06556731e+121
-8.23286875e+119
-7.15554412e+120
4.66776094e+120
-1.08887980e+121
-6.65090485e+120
3.94151755e+120
2.99977102e+120
-2.89189602e+119
3.20602562e+121
-5.44513002e+121
2.50577188e+121
5.75805466e+120
-5.71601738e+120
1.18820103e+120
-1.37719656e+121
-3.30955646e+120
-6.10988122e+120
-9.14928844e+119
-1.00697686e+120
2.31486197e+119
-3.74157458e+119
4.26965160e+118
-4.47771633e+118
1.82421416e+118
8.04216954e+117
-7.82973067e+116
9.10577599e+114
2.96139215e+116
4.97895263e+116
1.36781751e+116
1.45776774e+116
1.47849456e+116
-1.03422910e+116
-5.85428193e+115
-6.06748702e+115
-2.79969631e+115
-6.74501673e+114
-2.61789838e+114
1.03079416e+114
-7.21018190e+114
5.53335904e+115
-2.24403918e+115
-8.22631920e+112
-2.72727622e+113
-3.38174332e+112
-1.21551820e+113
7.82329759e+111
1.38283014e+112
2.12020754e+112
-2.23639008e+112
-1.56773808e+112
3.31470167e+111
4.51897462e+110
-1.53446590e+110
-2.14705282e+111
-4.31651819e+110
2.57460844e+110
1.66584103e+109
-1.38757990e+108
7.57200439e+119
9.85356576e+119
2.92429588e+120
-2.97581163e+120
1.31095311e+120
9.84834537e+120
4.09822854e+120
1.08693426e+121
-1.94681041e+121
3.68218347e+121
2.05846797e+122
1.88372789e+122
-1.54910790e+123
-1.65029228e+122
-4.20368305e+121
-4.55734479e+122
-3.13943677e+122
2.41759611e+122
8.63857858e+122
-4.56288370e+122
3.26068102e+122
6.77752190e+120
-3.82853443e+122
-2.80055426e+122
-1.93595052e+123
-2.40183704e+123
1.31156045e+124
-1.03621292e+123
2.94858880e+123
-3.82865313e+123
-1.22026447e+123
8.69957335e+122
3.90264988e+122
-6.61047173e+122
-1.14614482e+123
-7.30762138e+123
-1.06045282e+124
-6.14930522e+123
-3.21822502e+124
-2.80079771e+124
-1.43600704e+125
-5.63830995e+124
-4.60671008e+124
-1.91877670e+124
-5.42528253e+124
7.56163641e+122
4.97292024e+124
-3.98717181e+124
2.20204237e+123
-2.86272681e+124
4.98072935e+124
-4.58867187e+123
1.67954477e+124
1.56285319e+124
-4.58220736e+124
-4.81623118e+124
-5.06252551e+124
5.72725278e+124
2.84971646e+124
6.62409792e+123
2.02437938e+123
2.52938968e+122
1.00081832e+124
-1.02058877e+123
-2.06643871e+123
1.15450179e+121
3.33219518e+122
1.63275051e+122
5.94003658e+121
2.64782989e+121
6.51878957e+120
2.31192768e+121
3.68756643e+121
3.65385304e+120
-2.69934565e+120
-1.11862451e+120
-8.72924477e+120
-4.28453920e+120
-1.05173827e+121
-1.21274622e+121
-3.98951200e+120
-8.14424872e+119
4.34716977e+120
-3.40340560e+120
2.07743333e+121
1.98568588e+120
1.24735000e+120
-1.01594287e+119
1.47781321e+120
-1.72845638e+119
4.08023164e+118
-7.73533375e+118
-1.73302108e+118
-2.95743446e+117
2.15526653e+117
-1.21581702e+117
-8.77386836e+116
-5.16124257e+116
-3.55737791e+116
2.50767583e+116
1.59856350e+116
-6.76781372e+115
-4.11630049e+115
-4.49818574e+115
3.93955640e+115
2.42379267e+115
-3.15596148e+115
9.53080783e+114
-8.09796609e+114
-1.05157507e+115
1.26597586e+114
4.35040841e+114
8.77221047e+113
2.61163364e+113
1.44312312e+113
4.71011876e+112
-4.10640901e+112
1.59261917e+112
-2.58486942e+112
3.68206124e+112
4.04410603e+111
3.03088437e+111
1.10790908e+112
4.96303079e+110
-4.94597964e+110
-5.49956545e+109
1.92715303e+109
2.18212463e+108
-2.60218299e+120
3.58624256e+120
-4.99193413e+120
4.32238201e+120
8.06074464e+120
-2.98351278e+120
2.46295794e+121
-2.84287144e+121
7.44788116e+120
-1.61898935e+122
4.39198021e+121
9.11361891e+122
2.34125853e+123
-1.81805230e+123
-1.29051065e+121
6.97298663e+122
-1.58316792e+122
-9.59684091e+121
-1.02392513e+123
-1.10808779e+123
1.36543535e+121
7.64790279e+122
-1.57701225e+123
2.07578663e+123
1.96937807e+123
2.97284744e+123
1.46235717e+123
-1.93274081e+123
4.38731363e+123
2.71989866e+122
-1.24201081e+123
1.08903548e+123
-9.56336035e+122
-5.42732115e+123
2.66290609e+123
1.03800188e+125
9.17552882e+123
-1.60699349e+125
-2.99374474e+125
2.68805989e+125
-4.06563643e+125
-2.34592106e+125
-1.48907404e+125
2.38961280e+125
-1.54684173e+125
2.97412717e+125
4.37108321e+124
3.54310964e+123
-1.47569815e+124
-3.57511138e+124
1.53567626e+122
1.70795781e+124
-9.55310772e+123
-3.67597236e+124
-1.88265671e+124
2.68992558e+124
-3.67399108e+124
-1.11143899e+125
-4.06280702e+124
-5.74217518e+123
-7.80103811e+123
1.71596828e+124
-1.73884472e+124
-5.40710511e+123
-1.57159651e+123
2.11550083e+123
-1.11562311e+123
-1.48668317e+121
3.05341683e+122
1.11593722e+122
-2.24125210e+122
-5.94780049e+121
-1.01188135e+122
3.69448780e+121
-6.78058999e+119
-1.09316936e+121
-4.60854019e+120
6.96574292e+120
1.19061887e+121
2.04331475e+121
-1.27557076e+121
-5.19494195e+121
-1.70987140e+122
-1.70980998e+121
-1.54153927e+120
2.76433519e+120
-8.09482116e+120
1.55468238e+120
-3.39172410e+120
6.98283731e+119
9.59553271e+118
-1.11967895e+119
-7.03233614e+117
-1.06984252e+118
-8.81115064e+116
-4.62190269e+117
-1.04925874e+117
-3.23568535e+117
-8.61449421e+116
-8.66463922e+115
6.63870249e+115
-1.25826516e+115
2.25734279e+116
-2.92272924e+115
-8.13924723e+114
1.08270743e+115
3.02511290e+114
9.57619744e+114
5.05829590e+114
-9.36893957e+114
-3.86760170e+114
-6.27269983e+114
1.39814057e+114
6.20355438e+112
3.36352895e+113
-2.90371184e+112
-9.25510859e+113
3.15306564e+112
-2.35318117e+112
1.31785505e+112
-8.24019640e+111
-3.19526049e+111
-4.51630202e+111
6.69443232e+111
-9.12982634e+108
1.88468061e+110
6.95155162e+108
-8.70620672e+108
-7.58634704e+120
1.98966745e+121
-4.27263431e+120
-6.38893826e+120
-1.58140611e+120
-3.89644118e+121
2.32893913e+121
-3.17466851e+121
1.38857460e+123
4.28162087e+123
2.44350246e+123
-1.57037582e+123
1.98825170e+123
-1.35854401e+123
2.30424440e+122
5.08655465e+123
3.69428572e+123
7.02836203e+123
-6.45357442e+123
4.91326230e+123
4.33857143e+123
2.16055486e+123
-4.39459522e+123
-1.03682493e+123
5.26303254e+123
6.85447847e+123
-4.75105691e+122
-1.40022978e+124
-4.80554403e+123
-1.01783413e+123
7.60385472e+123
3.63717856e+122
4.75936691e+123
-8.37914609e+123
-1.20141687e+125
-1.99472338e+125
-2.67703059e+125
9.95894631e+125
4.86793562e+125
4.21716212e+125
-6.94135172e+125
1.55278870e+126
-5.85866463e+125
1.78693410e+125
-1.98806372e+126
5.58499176e+124
4.93217585e+125
6.71408921e+124
-7.86079991e+123
4.62493174e+125
8.35575406e+125
6.76952090e+124
-1.64752095e+124
7.50792240e+124
-8.46928648e+124
4.62603942e+124
2.45864776e+124
1.34014105e+125
-6.86379742e+123
-3.70483997e+124
-2.29636120e+124
-2.13327588e+124
-2.48284068e+124
1.49142467e+125
1.65027694e+124
-1.14637040e+124
3.33472272e+123
-3.74197328e+123
3.37906689e+123
-6.29900899e+123
2.67224286e+123
6.10243989e+122
-2.42440323e+122
5.27676842e+121
5.21892796e+121
1.69293852e+120
-1.94972619e+120
3.25498738e+120
-4.20580636e+120
3.36838336e+121
-1.00277911e+123
-9.76692116e+122
4.20028710e+122
-3.02784036e+121
-5.28886130e+119
4.40568708e+121
-1.34335607e+121
-2.58588618e+120
1.66126087e+120
-3.13896414e+119
8.56147283e+119
-8.32894321e+118
1.00202575e+118
-2.09859228e+118
-4.19003245e+117
1.00499807e+118
5.25936195e+117
3.34640908e+117
-7.82103103e+116
1.17105750e+117
4.32860606e+116
-8.28524237e+115
-6.96481540e+115
-3.50774006e+115
2.14276254e+115
-2.18646975e+115
1.09052068e+115
-2.63101634e+114
-3.20077912e+114
2.86033114e+115
-2.57392228e+114
-9.61088661e+114
5.48513195e+114
-4.11803905e+113
-8.53977303e+113
2.94264119e+114
-5.07295238e+113
-3.89914356e+112
-7.18866860e+111
-2.55236636e+112
-1.26532955e+112
-1.27940302e+111
-1.15167796e+112
4.48899497e+111
-7.92018218e+110
-2.51276697e+110
4.24395711e+109
-3.02513885e+109
8.02755886e+119
1.12329947e+120
-1.35907246e+120
2.43762073e+121
2.86278730e+121
1.14052037e+122
1.49268143e+123
2.55645359e+123
-6.76756556e+122
-1.08669602e+124
1.18254300e+123
4.29209236e+123
2.68364088e+124
1.25932920e+124
1.67934137e+124
-2.94570051e+123
7.25746460e+123
-1.59190858e+124
-4.67404310e+123
-1.53982172e+124
1.12163385e+124
-4.11806160e+123
8.72416094e+123
1.82412893e+123