# vtk DataFile Version 2.0
LBM Flow Field - Timestep 1110
ASCII
DATASET STRUCTURED_POINTS
DIMENSIONS 128 128 1
ORIGIN 0.0 0.0 0.0
SPACING 1.0 1.0 1.0
POINT_DATA 16384
SCALARS density double 1
LOOKUP_TABLE default
1.32207753e+00
1.31217581e+00
1.30040164e+00
1.28860630e+00
1.27700711e+00
1.26537026e+00
1.25403466e+00
1.24264776e+00
1.23165810e+00
1.22060671e+00
1.21003724e+00
1.19939917e+00
1.18931457e+00
1.17915830e+00
1.16961253e+00
1.15999594e+00
1.15103156e+00
1.14200110e+00
1.13364889e+00
1.12523910e+00
1.11751821e+00
1.10975165e+00
1.10266994e+00
1.09555747e+00
1.08911237e+00
1.08265377e+00
1.07683325e+00
1.07101812e+00
1.06580189e+00
1.06061083e+00
1.05597174e+00
1.05137759e+00
1.04728299e+00
1.04325231e+00
1.03966550e+00
1.03616000e+00
1.03304151e+00
1.03001950e+00
1.02732844e+00
1.02474620e+00
1.02244128e+00
1.02025436e+00
1.01829488e+00
1.01645920e+00
1.01480588e+00
1.01327870e+00
1.01189422e+00
1.01063493e+00
1.00948442e+00
1.00845518e+00
1.00750651e+00
1.00667260e+00
1.00589654e+00
1.00522669e+00
1.00459697e+00
1.00406341e+00
1.00355669e+00
1.00313517e+00
1.00273092e+00
1.00240054e+00
1.00208089e+00
1.00182391e+00
1.00157347e+00
1.00137503e+00
1.00118067e+00
1.00102851e+00
1.00087914e+00
1.00076323e+00
1.00064959e+00
1.00056185e+00
1.00047629e+00
1.00041028e+00
1.00034653e+00
1.00029717e+00
1.00025018e+00
1.00021349e+00
1.00017921e+00
1.00015211e+00
1.00012738e+00
1.00010748e+00
1.00008982e+00
1.00007532e+00
1.00006284e+00
1.00005235e+00
1.00004361e+00
1.00003609e+00
1.00003002e+00
1.00002467e+00
1.00002049e+00
1.00001673e+00
1.00001387e+00
1.00001125e+00
1.00000931e+00
1.00000751e+00
1.00000619e+00
1.00000497e+00
1.00000408e+00
1.00000326e+00
1.00000267e+00
1.00000213e+00
1.00000173e+00
1.00000137e+00
1.00000111e+00
1.00000088e+00
1.00000071e+00
1.00000056e+00
1.00000045e+00
1.00000035e+00
1.00000028e+00
1.00000022e+00
1.00000017e+00
1.00000014e+00
1.00000011e+00
1.00000008e+00
1.00000006e+00
1.00000005e+00
1.00000004e+00
1.00000003e+00
1.00000002e+00
1.00000002e+00
1.00000001e+00
1.00000001e+00
1.00000001e+00
1.00000001e+00
1.00000001e+00
1.00000000e+00
1.00000000e+00
1.00000000e+00
-6.16948290e+239
6.30937204e+239
-2.63656110e+239
7.69974167e+239
-1.03837454e+239
-5.53163452e+240
1.15803163e+242
2.49347452e+241
-1.08176535e+240
1.14758520e+241
2.41266120e+241
3.26888524e+240
-1.70971160e+241
-7.07659875e+241
-2.95335774e+241
-2.94909119e+240
1.18773829e+240
-1.14669724e+240
-4.14128544e+239
2.01699498e+240
-8.71599797e+242
8.77434434e+241
1.26587097e+242
8.56666321e+240
-9.73736493e+240
1.67605290e+241
-7.11899090e+240
5.67337933e+240
-6.22420338e+241
5.34804969e+241
3.48105536e+241
2.68588315e+242
1.14192898e+242
1.10149415e+242
1.06809843e+242
8.24029655e+241
2.95729029e+241
4.07370212e+241
-1.83679224e+241
8.03848660e+240
-3.73917663e+240
3.25869467e+240
-3.62321864e+240
1.13258218e+240
3.56325785e+240
4.91213558e+240
-5.95002744e+241
1.27553559e+242
-1.04466454e+242
-1.01860077e+241
-4.17832798e+241
2.58148211e+241
1.07185145e+241
3.45728582e+240
-1.70009410e+241
-1.05679130e+242
-3.37266532e+241
2.66725491e+241
1.08867129e+240
-2.87205821e+241
9.58348938e+240
2.55070983e+241
3.81729631e+241
-1.14379753e+242
2.42579833e+241
1.83340447e+241
9.34754237e+240
1.45172284e+241
-3.05407614e+241
1.14584209e+241
-2.76293870e+240
1.08122398e+240
2.20339794e+240
-2.58648104e+240
2.05498782e+240
-1.14489482e+240
7.16802780e+239
-1.00109182e+240
1.51743245e+240
8.70056159e+239
7.21386028e+239
2.99701533e+239
3.64164941e+239
2.14015890e+239
2.06715525e+239
-8.61553283e+237
-3.94696695e+238
7.37022757e+237
-3.60457195e+237
6.56263362e+237
-1.91692904e+237
-1.53310820e+238
8.06679782e+236
-5.33490113e+237
-4.15206429e+237
6.28379367e+237
5.62774330e+237
1.46626939e+237
-3.07879689e+235
-2.85851978e+236
1.87462620e+235
-5.00751215e+235
3.12829247e+235
-6.91155612e+234
-4.10572694e+234
1.74336393e+234
7.09110422e+234
-1.74344892e+234
-8.38625377e+233
3.83253510e+233
-1.16704840e+233
8.35471086e+232
-1.10471172e+233
4.96233025e+231
-9.08983287e+231
2.13482883e+231
5.59661838e+231
-4.24473940e+232
3.96763889e+232
-3.22220985e+232
9.37830704e+232
-7.87678513e+232
-7.39566585e+231
-3.05015705e+232
-5.92569176e+231
-1.01706170e+232
-1.00119409e+232
-3.53171225e+231
7.76471919e+239
1.83086481e+240
-4.29304020e+238
7.88835932e+240
-5.76413656e+239
-2.36400184e+241
3.84846930e+241
-5.27987458e+242
7.42107245e+241
-4.18395248e+241
-2.59091232e+241
-3.66372355e+240
4.46812320e+241
1.49484193e+242
5.14833346e+241
-6.85701949e+240
-1.17568299e+241
-4.58999110e+240
-1.12406867e+241
-5.81067543e+240
-8.15043959e+242
2.90568388e+243
-8.86226798e+242
5.86727841e+239
3.38760616e+240
-1.22479089e+241
-8.74461981e+240
-2.08946998e+241
-1.86853997e+240
4.46681944e+242
-2.77894845e+242
-2.49198927e+243
-1.72776391e+243
6.98658829e+242
6.25237197e+242
-1.68836657e+242
-8.55214073e+241
2.35362953e+241
-2.12373781e+241
1.68637266e+241
-3.34285601e+241
-3.72786536e+241
-7.04990256e+240
6.37606493e+240
-4.31769989e+240
2.88847841e+241
1.20554402e+240
-1.15657956e+242
1.43641618e+242
1.41854754e+242
-2.65487154e+240
-2.67538200e+241
-6.77319451e+241
5.80220646e+241
3.83794195e+241
9.41212114e+241
5.55398647e+240
2.75517229e+240
2.25250528e+241
-8.01850012e+241
-2.32402214e+242
-2.34935470e+242
4.57288403e+242
-1.68645452e+242
6.54994029e+241
1.55488931e+242
2.03458265e+241
5.22849680e+241
1.13857268e+241
4.40054355e+240
2.59712573e+240
-2.91606561e+240
6.16829611e+240
-3.46217949e+240
-1.62946289e+240
-1.34251453e+240
2.73984611e+240
3.94564705e+238
-4.97664106e+239
-1.88915119e+240
3.44284686e+238
-7.46626976e+238
5.54805896e+239
9.81542864e+239
1.11528137e+239
-1.69570285e+239
-4.20592509e+238
6.79761645e+238
1.42468049e+238
6.16169615e+237
3.21687558e+238
4.99043058e+237
3.57642394e+238
5.87717144e+237
8.91901421e+237
-3.51856268e+237
-7.07739626e+237
6.60794610e+236
2.03061348e+236
2.37477334e+236
-1.98394018e+236
-1.26771697e+236
6.06085777e+235
-1.39087050e+235
5.95231340e+235
-1.10223853e+235
1.62837591e+235
-3.78426747e+234
-1.19196400e+234
1.15711799e+234
1.75060951e+233
2.02994549e+233
-3.27568691e+233
6.54963561e+232
-1.71217523e+233
-3.06058960e+232
1.92009331e+231
-1.16841297e+233
8.53148642e+232
-2.34684111e+233
1.29222613e+233
-1.30613906e+233
-7.67626904e+231
-2.05007419e+232
2.38969011e+232
1.47542844e+232
1.41452503e+232
-1.38399441e+232
9.16264022e+239
-1.40971518e+240
2.96594243e+240
-1.01302902e+239
2.86553104e+240
-1.38951746e+241
-7.30041873e+241
3.19107077e+242
1.54632691e+242
2.75888137e+241
-1.47228896e+241
-4.61032780e+241
-6.73714677e+240
-8.07657741e+241
-8.81224486e+240
-2.69432833e+241
8.51405888e+239
9.90221284e+240
1.51086241e+241
1.13858248e+241
1.18908928e+242
2.46472609e+242
-8.93363655e+242
-3.65522658e+241
-1.38632338e+241
6.77989485e+240
2.75665636e+241
-2.11106359e+241
6.07012014e+241
8.64276800e+241
-4.75022630e+243
2.80957160e+242
8.03548811e+243
-1.18274582e+243
-5.92614367e+242
6.62622840e+242
-2.55814631e+242
9.06327419e+241
-2.65289321e+242
-2.96209189e+242
-2.50095413e+242
-4.30212808e+242
-1.74747691e+242
-3.14539925e+242
-1.76075356e+242
4.17119043e+242
-2.80654702e+242
-4.54593423e+242
5.91461966e+242
-3.11762009e+242
2.68345767e+240
4.51658524e+242
6.49221941e+242
-1.07881840e+242
5.70286393e+241
-6.87102372e+241
-2.74524149e+242
3.99224674e+241
6.24256000e+241
3.64589913e+242
4.77990847e+242
-5.18403162e+241
5.80803825e+241
-2.63454718e+241
-3.41291918e+241
-1.42882445e+242
-2.56580821e+242
4.56587401e+241
-2.23534069e+242
1.70383161e+240
1.77989063e+240
5.01809918e+240
7.35724001e+240
2.91893784e+240
1.59024467e+240
7.38626217e+238
-2.68695744e+239
-4.85249065e+240
8.22973948e+239
-2.89506245e+240
-2.43327255e+240
-3.45463340e+240
-1.61653661e+240
-5.88887949e+239
2.58745350e+239
7.33767185e+239
-1.38787228e+239
9.88198674e+237
2.45018529e+239
-1.06910402e+239
9.31693560e+238
-5.80728758e+238
-3.27459340e+238
1.45903337e+238
-5.30011702e+237
-7.36867365e+238
-3.69848791e+238
1.16603232e+237
-6.62406714e+235
4.47516159e+236
-1.09921364e+237
4.20181777e+236
1.23249610e+234
-2.13081438e+235
-2.32009247e+235
-4.38369591e+235
1.38584581e+235
-8.25394104e+234
-1.61317150e+234
6.19525726e+233
-5.96229177e+233
1.72048955e+233
-1.93686087e+232
2.85397825e+233
2.90746248e+233
7.97234452e+232
-7.99739958e+232
1.54099469e+233
-1.10530274e+233
3.10767786e+233
1.29836798e+233
3.81194949e+232
-1.10713691e+233
-2.39311712e+235
-3.48337310e+235
1.77393000e+236
1.25077222e+232
-6.02687101e+231
-1.84583300e+240
-1.02292362e+241
8.52745041e+240
-5.54587811e+240
-1.06658038e+241
4.92393021e+240
6.78392050e+241
2.44250631e+241
-8.76782252e+241
-9.75202603e+241
7.42780477e+240
3.33023102e+241
4.76759406e+241
-6.93685639e+241
-3.60049461e+242
8.85287279e+241
2.67239491e+241
-1.46808036e+241
-2.20698659e+241
4.28223555e+241
5.37813735e+241
5.74041115e+241
8.77229216e+241
-1.64682647e+241
5.84368089e+241
-5.68335767e+241
-5.69206017e+241
-3.87902602e+242
-4.02598505e+242
-3.18567234e+242
4.22421165e+243
1.77032645e+243
-1.40037781e+243
-2.17969810e+243
4.29746135e+242
-6.41164707e+242
-2.17083595e+242
6.11792073e+241
-6.30756152e+242
-2.10524375e+243
-8.61021622e+241
7.66834162e+242
3.33063187e+242
7.11772709e+242
1.82256802e+243
-1.86215390e+243
6.36370628e+242
-2.47102903e+243
1.83099679e+243
-1.55080362e+243
-6.01583762e+241
-9.99047630e+242
-4.85049672e+242
2.62868109e+242
4.84805111e+242
-4.03728734e+242
2.56714188e+242
1.46302374e+242
-9.07971523e+242
1.41231428e+242
-3.37801647e+242
7.03471784e+240
4.88892657e+241
1.11970904e+241
2.68138358e+242
-7.88188430e+241
-3.02118473e+242
5.00537089e+242
1.10361357e+242
8.23878950e+241
3.11686695e+240
-6.69516068e+240
-3.78088742e+239
1.04457883e+241
-1.00785805e+240
-4.81573578e+240
2.66481122e+240
-1.11361048e+240
6.61041706e+240
4.62664604e+240
1.82622824e+240
-5.42408544e+240
-5.01287131e+240
-1.63286231e+240
-8.38744097e+239
-4.77267267e+239
2.55393685e+239
-6.33375787e+239
1.27900459e+240
-9.04026764e+239
6.28400530e+239
-2.01703519e+239
3.08026091e+238
-2.52534815e+238
4.67147030e+238
1.49268536e+239
2.25967882e+238
-2.35628103e+237
-1.45258917e+237
4.66624220e+236
-2.80380228e+236
3.43313628e+235
1.99681546e+236
4.70880836e+235
2.15225796e+235
1.78100433e+235
-2.24128122e+234
1.38755326e+233
-1.02826512e+234
1.72387780e+234
-9.69348015e+232
-1.14334296e+233
-1.11318385e+233
2.10646052e+233
6.90882688e+232
2.20837365e+233
8.12017416e+232
9.93464504e+233
1.97615234e+233
-2.42161908e+233
-2.00752080e+232
9.64679719e+232
1.72000888e+233
1.88327605e+236
-6.13773053e+236
1.88268827e+236
1.87297426e+232
1.53410626e+231
-8.82106158e+240
9.64828264e+240
3.27158205e+241
-3.07208766e+241
-7.83737544e+241
-2.96121128e+242
5.09039729e+241
-2.30806417e+241
-1.56014238e+242
2.55858558e+242
3.06563841e+241
-4.41843143e+241
-5.38925632e+241
-2.96229698e+242
4.48368480e+242
2.08412758e+242
1.55779085e+241
-1.91345968e+241
1.94284730e+242
-9.54137191e+241
-2.02440577e+242
-2.36464217e+242
-2.45487192e+242
-5.50814723e+242
-8.17381726e+242
-1.40669529e+243
-9.31635758e+242
-1.22374465e+243
7.93776901e+242
9.04636511e+242
-1.76291421e+243
-3.80737571e+243
-1.40080310e+243
2.79228402e+242
-5.00890225e+243
-5.70369213e+243
-2.70610487e+243
-1.97816344e+243
-5.28076093e+243
5.46580479e+243
-2.14713200e+243
2.91721823e+243
2.67751750e+243
1.05696000e+243
2.75813664e+243
-4.42013968e+243
8.68561835e+242
-4.19487916e+243
-1.94961839e+243
3.00094883e+243
-1.90830610e+243
-1.20470014e+242
-3.90636265e+241
-3.97852602e+242
7.54866098e+242
-1.77081159e+242
-1.84974918e+241
1.74509458e+242
1.48300564e+242
-1.49079123e+241
-3.69672935e+240
9.91043105e+241
-3.20183186e+241
-5.06796573e+242
4.66002927e+242
-1.13456059e+242
1.44755999e+243
2.66255698e+242
1.32450701e+242
-2.60110659e+242
-3.21481346e+241
-7.44266820e+240
-7.80578261e+240
6.55149302e+240
-1.46535220e+241
-1.73447586e+240
1.06359808e+241
4.96062062e+241
1.28325318e+241
2.96069926e+241
3.98966654e+241
1.28308943e+241
1.18925703e+241
1.95839578e+239
7.55100984e+239
-1.38085275e+240
5.79403742e+240
9.31107320e+239
4.06531495e+240
-6.23020251e+238
2.95802527e+239
-2.12464944e+238
-7.24670098e+237
-2.91762214e+238
-2.77475907e+238
-6.69792375e+238
-2.69186314e+236
5.25773656e+237
-3.17579131e+236
-3.22398224e+237
-4.49297906e+236
-6.63834339e+236
3.69649669e+236
-1.06525896e+235
-2.73992981e+235
-5.30561493e+234
2.22547150e+235
-9.18619155e+234
6.57830419e+234
3.76956696e+233
-1.90721082e+234
1.06551533e+234
-1.37554196e+234
-1.63279191e+233
-5.04343442e+233
-6.04335840e+233
-3.99765873e+233
-1.27778379e+234
1.28806433e+233
-7.73209721e+233
-1.82897535e+233
3.16571841e+233
-3.89304307e+233
1.77349906e+236
-3.48814458e+235
-2.39129138e+235
-8.43820391e+231
1.37966017e+230
1.35417742e+242
2.00217488e+242
1.53276004e+242
3.29330496e+241
2.21221120e+242
3.82333993e+242
1.63759375e+242
4.05450263e+241
-3.99418043e+242
4.11516142e+242
1.38677719e+243
3.84307842e+242
2.91912207e+241
-1.22892187e+242
2.61881134e+242
-3.81697498e+242
2.37536712e+242
-1.04076968e+241
-1.20541822e+242
4.73414600e+241
3.19105312e+242
2.14121227e+242
-4.41543129e+242
-9.22879536e+241
3.22417173e+242
2.14248297e+243
3.39976957e+243
1.91770026e+243
1.32408083e+243
-1.67779784e+243
1.79386074e+243
4.67648772e+243
-7.57275515e+242
-4.36502471e+243
2.35381605e+243
5.83307260e+243
8.89343978e+243
4.44897992e+243
-1.71275602e+244
7.62780931e+244
1.46853715e+245
-2.31540807e+245
7.97285511e+244
-4.70388336e+244
7.92216866e+244
1.78649968e+244
-9.36170624e+244
1.07495730e+245
7.74341654e+244
-4.61303808e+244
-4.39051458e+244
1.11956014e+244
1.48750736e+243
5.81520805e+243
2.49282409e+243
-5.08457280e+242
-6.62862403e+240
2.91435875e+241
3.49690837e+241
-7.81240202e+241
1.36174397e+242
-5.41560788e+241
-6.37794016e+242
-8.82072128e+242
1.96371729e+243
-1.21535080e+243
-2.43311459e+243
8.99153688e+241
2.43196208e+242
8.20127711e+241
8.15319478e+241
2.71761711e+241
2.21733325e+239
1.68163997e+241
3.31670351e+241
2.41621858e+241
-3.54966280e+241
-9.68497434e+241
-2.23883826e+241
-5.24206942e+241
-2.33096952e+241
-2.37429258e+240
-9.97038371e+240
-2.83809449e+241
1.89964448e+241
2.34933743e+241
-4.72166162e+240
-5.10637694e+240
-3.05117504e+240
4.56508513e+239
-1.58126373e+239
8.14861831e+238
3.68162343e+239
2.03335155e+239
-6.02989289e+237
4.61773025e+238
-3.45143113e+238
-7.76259019e+237
-4.86460171e+237
4.59742943e+237
6.68416743e+235
-1.12290443e+236
1.44158742e+236
1.16831744e+235
-1.13142965e+236
6.32469397e+234
-7.84582809e+234
-1.61341492e+235
-7.05566390e+234
-1.03595468e+234
-3.87115786e+232
-2.92717503e+233
1.09466031e+234
-1.93584274e+234
2.36648280e+233
3.13539721e+234
2.20501798e+234
1.28148739e+233
6.83367025e+233
1.64460137e+234
-1.87854477e+234
4.68981852e+233
1.48638007e+233
-2.46189370e+232
-4.62984886e+232
4.61263294e+232
-8.69555484e+231
-1.17173725e+231
1.27999716e+243
-6.68540676e+242
-5.15115151e+242
1.07856536e+243
9.84587497e+242
-5.63836567e+243
1.33231832e+244
-7.57520155e+243
-2.93138077e+242
1.60110086e+243
-2.14448642e+243
-9.53785278e+242
2.30495624e+241
-2.02783082e+242
-8.24873757e+241
1.77495608e+242
7.93272487e+242
1.02918437e+240
-1.22402408e+242
1.29213849e+242
-1.17574682e+242
-7.98974525e+242
2.68402308e+242
6.74876477e+242
3.88597993e+243
5.06183739e+243
9.44840668e+243
5.69993661e+243
5.19097757e+243
-2.22388470e+243
1.54834952e+242
1.31385205e+242
-1.77938754e+243
2.27268961e+243
4.46293780e+243
-1.13671983e+244
-2.70521789e+244
6.55908751e+244
-8.19230155e+244
7.11828866e+245
6.42466576e+245
-5.57825866e+246
3.83616747e+246
3.74627496e+245
1.28479994e+249
6.52028506e+248
-8.11191604e+249
-2.96318857e+245
2.14472494e+245
6.91522622e+244
2.50797110e+245
-5.82780874e+243
-4.89582068e+243
-7.32700580e+243
2.96180883e+243
9.92616380e+242
-3.46823284e+241
5.06942286e+241
2.67053574e+242
1.26361889e+242
-7.22589324e+242
1.95577601e+243
1.04430870e+243
-3.76877137e+243
4.84420600e+243
2.10466972e+244
1.20818866e+242
-2.43625596e+242
8.83359606e+240
4.64214474e+239
-5.90659332e+240
-2.21388268e+241
-1.27604032e+241
-1.25412808e+241
4.87706880e+240
-3.43076275e+241
1.14844555e+242
-2.81140891e+242
1.11740000e+242
6.04550164e+242
1.75703034e+242
-6.51711222e+239
4.03312793e+241
1.97620753e+241
-6.79217143e+241
-6.39477067e+240
-3.03608579e+240
6.27081031e+240
1.29633118e+240
1.78813733e+240
1.54192457e+239
-3.36724987e+239
-5.79210399e+239
-6.68988639e+239
-8.13862729e+238
1.83896846e+238
1.36166290e+238
2.07619167e+238
-1.27836436e+238
-3.42146236e+235
4.61083409e+236
1.08521190e+235
-1.97999297e+235
-4.55086004e+235
1.16523422e+236
2.15218928e+236
4.25316148e+235
4.14695939e+235
-2.13818728e+235
9.96662295e+234
1.26586733e+234
-8.72541985e+233
5.89930682e+234
-1.03024202e+235
-2.80699001e+235
-5.52483905e+234
1.10833696e+233
2.62720144e+233
-2.50326735e+233
1.12082862e+235
5.10251273e+235
-9.93045995e+234
-1.10456244e+235
-1.29936637e+234
5.73083259e+232
-1.70748850e+232
1.08630228e+232
-3.10969555e+230
2.20092866e+243
-5.27042972e+243
2.72644635e+243
2.32673383e+242
-1.81967862e+243
-2.71033748e+244
5.14110443e+244
-2.43527581e+244
1.38318014e+242
1.87174499e+242
-1.17649604e+243
1.84339500e+243
-1.12479367e+243
1.22549416e+242
4.00730696e+241
-3.41437233e+241
-1.44452508e+243
-1.08764683e+242
1.33214085e+242
5.02454050e+242
1.90887629e+244
-2.77876961e+244
1.84375007e+244
-2.56035762e+244
1.42235317e+244
1.66791099e+243
-1.14527258e+244
-2.34589905e+244
-2.28055702e+243
-1.10209435e+244
6.02925703e+243
2.36154594e+243
4.09299590e+243
3.98640341e+244
-3.20817701e+244
2.37068690e+244
5.99441141e+244
2.20613419e+243
1.16305633e+244
2.30084264e+246
-3.31814795e+245
-1.57126251e+247
2.26157223e+247
-6.68927865e+246
-7.47367321e+249
2.73009753e+250
-7.47800344e+249
-5.12550899e+245
1.87309208e+245
-2.39370001e+245
-2.39350700e+244
-2.87004473e+244
2.29252138e+244
3.48178026e+244
-4.62699039e+243
6.37771584e+243
5.85435505e+241
-4.05224965e+242
-8.16981422e+242
3.18723015e+243
-2.31568210e+243
-2.15749542e+243
5.10327014e+242
1.28839908e+244
-6.70979671e+244
1.06035855e+244
-4.42795236e+241
-6.71409038e+241
2.93919958e+241
-2.30991125e+241
9.51902744e+241
1.20004817e+242
1.80819196e+241
1.41961151e+241
2.08906803e+241
-1.45974466e+242
2.76464632e+241
-1.21529346e+242
1.17351829e+242
-2.32329934e+242
-3.84650200e+242
-2.01876146e+242
-5.34372864e+241
5.02129278e+241
2.72411611e+241
1.30745550e+240
-4.24894828e+240
-5.91028848e+240
-6.28887721e+240
-7.75771795e+240
-2.05931376e+240
1.15133172e+239
9.08209957e+239
-4.37384011e+239
5.19385820e+239
1.20996695e+237
-2.68099321e+238
2.03895735e+238
-1.15209295e+238
4.45250113e+234
-1.39609758e+237
-4.74477932e+235
-4.56304882e+236
-3.28503331e+236
-1.26909178e+237
-3.95572551e+236
2.41433678e+235
9.02906424e+234
-8.62047716e+235
-1.08080017e+236
-2.25843319e+235
2.67923873e+234
-1.33966879e+235
9.45629195e+235
-1.47935802e+235
-4.37027535e+234
-9.29007686e+234
-9.21860230e+234
-2.18409219e+234
7.50323408e+235
-9.25647857e+235
-2.94887636e+235
-2.79218545e+234
1.21244930e+235
2.83075248e+232
-1.38586572e+232
2.74496881e+231
-2.68977000e+231
5.79525460e+242
-1.19260925e+243
-1.46813752e+243
-1.24524072e+243
1.47552284e+244
-2.42322298e+244
1.73765542e+244
-5.18181976e+243
-2.28585149e+243
1.76850438e+243
-6.64760995e+242
-1.35316125e+243
-2.18900777e+243
1.69254349e+243
-1.30545219e+242
4.19899639e+242
3.86028009e+242
-1.35208215e+241
1.24516190e+243
1.91415293e+244
2.34943999e+244
-7.21454238e+244
3.61172281e+244
-7.56509686e+244
3.54074180e+244
4.07014102e+244
-1.80250258e+244
6.56472764e+243
2.47275451e+243
-4.62414204e+243
-2.07821870e+244
-9.89884878e+244
-3.24459663e+245
-4.15354473e+245
-7.51645652e+245
-9.89941558e+245
4.01961755e+245
-1.01430417e+246
5.81791691e+246
7.46331028e+244
-8.66988602e+246
-6.07866888e+246
-3.76506096e+246
-3.09210587e+247
-8.09767390e+249
6.46363479e+248
1.28575580e+249
-3.70225429e+245
4.27514263e+245
1.82030983e+245
-2.57756150e+244
1.37785080e+245
-8.06521168e+244
2.07106782e+244
1.22554723e+244
9.35858837e+243
-7.97949942e+242
6.35139728e+241
-1.78420866e+243
-1.18008792e+243
2.51984267e+243
-6.69431188e+242
-3.45223829e+242
2.07188707e+244
5.17458491e+243
-3.84060290e+243
3.30034812e+242
3.47845221e+241
1.14160527e+242
1.05603645e+242
-1.60355714e+242
-1.03348787e+242
-1.62145301e+242
1.89358508e+242
2.58046178e+242
1.74768252e+241
-2.51510540e+242
-4.59386557e+242
-4.33995319e+242
1.98565905e+243
-4.01946788e+243
1.29015414e+243
-2.22427894e+242
2.09543826e+242
3.22477173e+240
-3.70816867e+240
7.80599000e+240
3.57036489e+240
4.64912065e+240
4.37653228e+240
2.22179631e+240
1.47629006e+239
1.33566843e+239
-1.45494202e+239
-4.96161011e+238
-3.34977198e+238
-3.26270929e+238
2.16299038e+238
-4.99046395e+237
2.31703363e+237
-1.43741035e+237
-6.42458803e+236
4.93109235e+236
-2.99224717e+236
4.70082343e+236
4.81337217e+236
-5.58129592e+235
1.59366244e+235
7.59809379e+235
2.04156199e+236
5.36414062e+235
-1.02251165e+235
-2.46776049e+235
-1.74331003e+234
-1.95272062e+235
3.60772685e+234
4.00535502e+235
-4.93686862e+233
-6.55501283e+234
2.10216400e+234
-6.49799499e+235
7.84458356e+235
-6.22903222e+235
2.30325999e+235
-8.71412005e+231
-6.43760918e+231
-3.68339086e+231
9.13645457e+231
8.39734958e+242
1.23118154e+242
-1.69350743e+243
2.67340160e+243
3.65000421e+244
-7.63097380e+244
3.67244204e+244
1.28518799e+243
-2.10746289e+243
1.71232111e+242
1.80427208e+242
9.40170738e+242
6.86740710e+242
2.00630454e+242
-1.79883681e+242
4.84630343e+242
-1.54723430e+242
-1.00988763e+242
-2.83796172e+243
7.11757193e+244
-6.88019026e+244
5.54614495e+243
5.82072614e+244
-1.80743755e+244
-7.29728792e+243
1.12855174e+245
-3.58228610e+244
6.33443718e+244
1.22146590e+245
-1.67674167e+244
-1.58805483e+245
2.00986408e+245
-7.94948085e+244
7.56182756e+245
-1.63484466e+246
3.85407694e+246
1.42404255e+246
5.37138359e+246
3.48138455e+246
-1.76006738e+247
8.65384789e+246
2.84698108e+247
1.00569244e+248
3.80544175e+247
1.83460317e+247
2.11605790e+247
3.27114658e+247
5.92996203e+246
-4.12581770e+245
-1.40089308e+245
-2.57227842e+245
4.13961773e+244
9.85555669e+244
-2.22237121e+244
-4.89494562e+244
-7.91478643e+243
1.07886505e+243
-1.99841367e+243
7.23137025e+242
1.13156208e+243
-1.10423360e+243
1.24542434e+242
3.27878030e+242
2.69904400e+243
6.75606553e+242
-3.39034530e+241
1.64452462e+241
8.27502418e+241
1.16019734e+242
1.55951235e+242
1.28828638e+242
2.59765428e+242
1.27621477e+242
-1.37674004e+242
-1.26290726e+242
-2.14993142e+242
-8.77496982e+242
1.20685889e+243
4.29315850e+242
1.87166279e+243
-2.07237796e+243
1.19014853e+243
-1.48805438e+243
1.27458764e+242
-8.71495578e+240
9.62300678e+240
-1.39930591e+241
-1.66352294e+240
-1.03549651e+239
4.10621031e+239
-2.21889787e+240
1.75665982e+240
-2.48349991e+239
-2.30496729e+238
-1.97262720e+238
9.54749530e+238
-1.88223727e+239
2.40101829e+238
-3.84863659e+238
-5.54507589e+237
-3.74324796e+237
9.28697352e+236
1.54195641e+237
2.08972673e+237
3.05404148e+236
-1.96372535e+237
1.79833186e+236
6.56992455e+235
-2.67723774e+235
-8.53886679e+235
-3.59287016e+235
7.55838166e+234
-1.14852735e+235
5.94185569e+234
-1.55096420e+235
7.88166250e+235
-2.95759574e+235
2.36470154e+234
1.65317176e+235
3.71137516e+235
-1.70298569e+235
-2.94467276e+235
-9.32340465e+235
7.43882009e+235
-7.03196964e+231
-1.27956625e+232
9.98752119e+231
1.04819537e+231
8.66705524e+242
1.74972000e+242
9.61293341e+242
-1.25246823e+242
7.04265035e+243
-1.63604822e+244
1.30691043e+244
1.01121360e+243
-5.23341240e+242
-1.16514075e+242
-2.97385261e+241
1.07992584e+243
-1.66216057e+243
1.71358884e+243
1.27572578e+242
-6.07727158e+242
-1.72675700e+243
-2.36077299e+243
1.89680454e+243
3.06100497e+244
-9.26213637e+244
1.18213334e+244
-5.39338770e+244
-1.02702791e+245
-3.11551484e+245
-8.66360988e+244
-9.57553361e+243
8.78323689e+245
-1.72127030e+246
-1.17282218e+246
-5.06666086e+246
-2.25683288e+246
1.97272316e+246
1.16194312e+247
1.88505502e+247
3.53914076e+247
7.09805074e+245
-1.44740241e+247
9.71786727e+247
-1.99726432e+247
-4.73856907e+247
-1.47354378e+247
-2.79913979e+247
-3.05733473e+247
-6.60162479e+247
8.94790152e+248
-1.10403183e+249
3.02412742e+248
8.88042422e+246
1.20267562e+246
1.20448573e+246
3.57739943e+245
2.26558469e+245
5.05832936e+243
3.99140886e+244
1.12318320e+244
2.70654716e+243
8.45845325e+242
-2.81321122e+243
6.29684774e+242
-4.36894064e+242
2.22161411e+243
-1.77164875e+243
-4.54633091e+243
-1.09193987e+243
1.73733439e+242
-9.01505184e+242
1.50590905e+241
-4.51375951e+242
-1.95756166e+242
-7.35524145e+242
-1.11264739e+242
7.22307612e+241
5.81814909e+242
-2.14562949e+242
-2.12489249e+242
-6.47672867e+241
6.69737405e+242
-9.29926480e+242
3.77102922e+242
3.05652247e+241
4.09243058e+243
-4.31455006e+242
-1.39466888e+242
-9.50746405e+241
4.78582472e+240
-1.48297715e+241
1.82137305e+240
3.69775462e+239
1.87730211e+240
-2.14496837e+240
2.67847508e+240
-5.81700484e+239
-5.06319671e+239
-9.99885403e+238
-2.32013287e+239
2.74308759e+239
1.09529132e+239
3.64923374e+238
-3.18494378e+238
-7.68273306e+237
1.36180153e+237
1.06047888e+237
3.06622447e+237
2.46906436e+236
-5.71753039e+237
-3.95978055e+236
1.35692681e+236
7.89800804e+235
-6.06601137e+234
-2.62170281e+234
6.16489742e+234
1.82028139e+234
5.70453096e+234
-1.93986546e+235
-4.19360388e+234
-2.13004973e+235
1.02215600e+235
-1.41456730e+235
1.36789970e+235
-8.06356406e+234
-9.95000047e+234
5.12269171e+235
9.96152489e+234
1.37470950e+233
-1.14188810e+231
-5.29179442e+231
3.12974668e+231
1.50103615e+243
3.16527065e+243
-6.16405637e+243
2.55869615e+243
-1.46040784e+243
-4.11277790e+243
-3.81366678e+243
-2.69598529e+242
2.74076421e+243
-2.37093057e+242
-5.10869490e+242
3.36735477e+242
-9.68004069e+242
-1.30892013e+243
-1.01548433e+243
-1.84298332e+243
-1.79484239e+243
4.45309031e+243
8.11991373e+243
6.96567375e+244
-1.84734150e+245
-1.54073700e+245
-1.62865459e+245
-5.51464240e+245
-5.69359687e+245
-3.72619531e+245
-1.43147290e+246
9.05877749e+246
1.15401204e+247
6.08280119e+246
2.93812997e+246
5.50750547e+246
-7.88801873e+246
-8.81314780e+246
-3.91261992e+247
-3.70050825e+247
4.60367231e+246
-4.08301734e+247
-4.37988791e+247
-1.36054909e+247
2.86547321e+247
4.78073518e+247
-3.88961552e+247
7.59272445e+246
-1.23086261e+247
2.30118169e+249
-4.82724039e+249
2.27817431e+249
3.57085632e+246
-2.46077073e+246
-2.89399274e+246
-9.92790393e+245
1.16486563e+243
3.93190300e+243
-6.05769374e+244
3.76647230e+244
-6.08023202e+243
2.74050502e+243
-2.83033723e+242
1.63332415e+243
7.38142704e+243
-1.29686046e+244
1.74558800e+243
4.31256857e+243
-1.29777416e+243
-7.63351277e+242
8.01910479e+242
3.04993299e+242
5.30051749e+242
4.79761059e+241
3.82214960e+242
-2.13385367e+242
1.02589509e+242
7.27773602e+242
-2.04531296e+243
-1.39895949e+243
7.31129552e+242
2.06150801e+242
1.20739545e+243
3.97077032e+241
-1.59210685e+243
-1.29635381e+243
6.14143481e+242
9.49956264e+242
-2.42443880e+242
4.12898204e+241
-3.83306788e+241
4.76747980e+240
9.06420854e+239
-3.43903578e+239
1.81280173e+240
-3.65322110e+240
-1.23802286e+240
-1.51619883e+239
1.48282636e+240
-1.47550709e+238
1.48183818e+239
-1.74879504e+239
-9.63764454e+237
1.37445004e+238
-2.28788701e+238
-2.20863933e+237
-2.88874345e+237
-1.08539129e+238
3.59660416e+237
3.22781576e+237
-2.13798612e+237
9.51156980e+234
-1.48897222e+235
-5.22389614e+235
-1.26176323e+236
-1.22553719e+235
-3.90774398e+234
-2.55586261e+235
9.50523431e+234
4.42160227e+234
-1.18147014e+235
1.23723660e+235
1.61048871e+235
-1.82998433e+235
1.18988840e+233
2.71122328e+233
-1.67807122e+231
-4.64356945e+232
-6.81470767e+232
7.79489143e+232
5.08527273e+232
-2.05181367e+231
-9.18489824e+242
-2.24253102e+242
-8.97116298e+242
1.27271115e+243
8.59448585e+242
2.86441771e+243
2.39299570e+243
1.18844441e+243
-2.27810477e+243
-4.40774696e+243
5.59836857e+242
4.37588885e+242
1.13750640e+242
4.48250152e+242
-1.83359056e+243
1.15325596e+243
2.68729413e+243
9.61361710e+243
-1.03557136e+244
-3.06449925e+244
-9.06336328e+244
1.30436373e+244
-4.30226958e+245
9.95248342e+245
5.08041666e+245
6.43343866e+245
-2.93448505e+246
-4.92482230e+247
1.57255383e+247
-3.16418425e+247
-1.83552049e+247
-2.97208040e+247
7.85523638e+247
-1.95526347e+248
2.91279443e+248
1.82598116e+248
5.29448020e+247
-7.17003021e+247
-2.32477875e+247
-7.44299151e+247
5.89697799e+246
2.43443969e+247
-3.16599409e+245
-6.60564662e+246
1.97169471e+247
2.38052993e+248
-1.09116220e+249
8.02805668e+248
-2.30861364e+247
9.22726644e+245
1.79455006e+246
1.26152509e+246
4.81799562e+246
5.36327287e+245
-2.32805723e+245
1.44747241e+245
4.51059919e+243
2.79730674e+243
-5.21865041e+243
3.63946802e+244
-3.49771477e+244
-9.65606259e+243
-2.37726673e+244
2.78355418e+244
3.60083670e+243
6.29135466e+242
5.04639839e+241
-7.24004888e+241
-2.60121601e+242
-1.64808118e+242
1.02061085e+243
1.08792926e+243
-8.25082305e+242
-3.17936979e+242
1.26263235e+243
1.12211941e+243
7.00586384e+242
-3.48934145e+242
1.04945162e+242
-1.87641486e+242
-3.53644984e+242
-3.27799934e+242
-8.39292434e+242
-1.44779512e+242
2.00924533e+242
3.44418509e+241
1.42529746e+240
-3.93865833e+239
5.56990465e+239
-9.92694892e+239
4.48448088e+239
-2.50567018e+240
2.69003874e+240
-1.45195886e+240
6.86514849e+239
-2.82586597e+239
2.43581293e+239
-1.08675885e+239
7.80063640e+238
-5.34251244e+238
5.41612423e+237
-1.83273135e+238
1.23197329e+237
5.36391223e+237
6.65564528e+236
-5.64207618e+237
-9.31983425e+236
8.59956597e+235
4.98876357e+235
7.52924659e+235
1.63331431e+236
-7.26603989e+235
4.32676519e+234
3.94919488e+234
1.43073059e+233
1.69825448e+235
9.86987901e+233
-3.86704693e+235
2.12992925e+235
-8.01949648e+234
5.56276052e+234
-1.74804861e+233
-1.76377252e+232
3.20278513e+231
5.98042974e+232
-4.80976610e+232
-1.57482378e+232
9.04798720e+232
2.28561513e+242
1.09985218e+242
-1.31660837e+243
-1.13405949e+244
-2.98629903e+243
-2.56883773e+243
-3.75824622e+242
2.54798293e+243
2.64269925e+243
-2.65249886e+243
3.85459725e+243
2.59155216e+243
-3.08728008e+243
-1.72009870e+242
-2.32426097e+243
2.96656502e+243
4.96621257e+243
1.26387518e+242
1.05936646e+243
-1.01324055e+245
1.24048025e+245
-2.19873909e+246
-1.83821685e+245
1.40538684e+246
-3.31537435e+245
-1.48756910e+247