# vtk DataFile Version 2.0
LBM Flow Field - Timestep 520
ASCII
DATASET STRUCTURED_POINTS
DIMENSIONS 128 128 1
ORIGIN 0.0 0.0 0.0
SPACING 1.0 1.0 1.0
POINT_DATA 16384
SCALARS density double 1
LOOKUP_TABLE default
1.31840503e+00
1.30394717e+00
1.28681274e+00
1.26977614e+00
1.25311745e+00
1.23662247e+00
1.22071096e+00
1.20500475e+00
1.19007565e+00
1.17536698e+00
1.16160840e+00
1.14806061e+00
1.13560650e+00
1.12333370e+00
1.11226112e+00
1.10132755e+00
1.09165817e+00
1.08208050e+00
1.07378579e+00
1.06553781e+00
1.05854708e+00
1.05156630e+00
1.04577655e+00
1.03997189e+00
1.03525837e+00
1.03051834e+00
1.02674477e+00
1.02294548e+00
1.01997322e+00
1.01698580e+00
1.01468127e+00
1.01237825e+00
1.01061836e+00
1.00887881e+00
1.00755443e+00
1.00626780e+00
1.00528530e+00
1.00435394e+00
1.00363531e+00
1.00297572e+00
1.00245758e+00
1.00200062e+00
1.00163259e+00
1.00132283e+00
1.00106557e+00
1.00085996e+00
1.00068326e+00
1.00054945e+00
1.00043042e+00
1.00034488e+00
1.00026639e+00
1.00021254e+00
1.00016201e+00
1.00012854e+00
1.00009683e+00
1.00007624e+00
1.00005688e+00
1.00004433e+00
1.00003285e+00
1.00002525e+00
1.00001864e+00
1.00001409e+00
1.00001039e+00
1.00000770e+00
1.00000569e+00
1.00000413e+00
1.00000305e+00
1.00000217e+00
1.00000160e+00
1.00000112e+00
1.00000082e+00
1.00000057e+00
1.00000041e+00
1.00000028e+00
1.00000020e+00
1.00000014e+00
1.00000010e+00
1.00000007e+00
1.00000005e+00
1.00000003e+00
1.00000002e+00
1.00000001e+00
1.00000001e+00
1.00000001e+00
1.00000000e+00
1.00000000e+00
1.00000000e+00
1.00000000e+00
1.00000000e+00
1.00000000e+00
1.00000000e+00
1.00000000e+00
1.00000000e+00
1.00000000e+00
1.00000000e+00
1.00000000e+00
1.00000000e+00
1.00000000e+00
1.00000000e+00
1.00000000e+00
1.00000000e+00
1.00000000e+00
1.00000000e+00
1.00000000e+00
1.00000000e+00
1.00000000e+00
1.00000000e+00
1.00000000e+00
1.00000000e+00
1.00000000e+00
1.00000000e+00
1.00000000e+00
1.00000000e+00
1.00000000e+00
1.00000000e+00
1.00000000e+00
1.00000000e+00
1.00000000e+00
1.00000000e+00
1.00000000e+00
1.00000000e+00
1.00000000e+00
1.00000000e+00
1.00000000e+00
1.00000000e+00
1.00000000e+00
1.00000000e+00
1.00000000e+00
1.11716064e+00
1.09631532e+00
1.07926427e+00
1.07733191e+00
1.07091792e+00
1.06258396e+00
1.05939124e+00
1.05393530e+00
1.05110060e+00
1.04754078e+00
1.04348003e+00
1.04719425e+00
1.04406860e+00
1.04152755e+00
1.05011049e+00
1.05147769e+00
1.04388647e+00
1.04568422e+00
1.04952992e+00
1.04538686e+00
1.04123809e+00
1.04793393e+00
1.04838471e+00
1.03965716e+00
1.04206396e+00
1.04434252e+00
1.04267979e+00
1.04253983e+00
1.04881923e+00
1.05371359e+00
1.05477918e+00
1.05385559e+00
1.04890778e+00
1.05296621e+00
1.05456371e+00
1.04802872e+00
1.04015328e+00
1.04540868e+00
1.05538069e+00
1.05626323e+00
1.04840503e+00
1.04151906e+00
1.04574018e+00
1.05328103e+00
1.05227693e+00
1.04680768e+00
1.04497981e+00
1.04783811e+00
1.04974768e+00
1.04799870e+00
1.04732588e+00
1.04654217e+00
1.04540737e+00
1.04660669e+00
1.04549289e+00
1.04574773e+00
1.04581021e+00
1.04451359e+00
1.04561663e+00
1.04275104e+00
1.04283505e+00
1.04572364e+00
1.04249173e+00
1.04453531e+00
1.04039988e+00
1.04389108e+00
1.04453679e+00
1.03919788e+00
1.04187415e+00
1.04267222e+00
1.04010602e+00
1.04172274e+00
1.04208944e+00
1.03858692e+00
1.03988830e+00
1.04088086e+00
1.03975190e+00
1.03821688e+00
1.04003989e+00
1.03844537e+00
1.03941540e+00
1.04122071e+00
1.03924700e+00
1.03955756e+00
1.04001181e+00
1.04033540e+00
1.04198599e+00
1.03860903e+00
1.03719535e+00
1.03917642e+00
1.03939927e+00
1.03849346e+00
1.03820070e+00
1.03769138e+00
1.03787253e+00
1.03860640e+00
1.03828108e+00
1.03768703e+00
1.03687850e+00
1.03753369e+00
1.03651682e+00
1.03730457e+00
1.03741986e+00
1.03658459e+00
1.03761176e+00
1.03537681e+00
1.03397547e+00
1.03540899e+00
1.03200281e+00
1.03390528e+00
1.03299388e+00
1.03379884e+00
1.03526272e+00
1.03294620e+00
1.03276639e+00
1.03399587e+00
1.03282693e+00
1.03128815e+00
1.03323736e+00
1.03178599e+00
1.03177940e+00
1.03129424e+00
1.03028289e+00
1.03198906e+00
1.02953687e+00
1.03071286e+00
1.03007559e+00
1.02861113e+00
1.09670786e+00
1.09392409e+00
1.08925978e+00
1.07313327e+00
1.06093885e+00
1.06483737e+00
1.06635771e+00
1.05670670e+00
1.04808714e+00
1.04410908e+00
1.04917106e+00
1.05053550e+00
1.04097674e+00
1.04243529e+00
1.05207583e+00
1.05303869e+00
1.04522342e+00
1.04099519e+00
1.04759597e+00
1.05111691e+00
1.04249544e+00
1.04153106e+00
1.04711613e+00
1.04856532e+00
1.04342318e+00
1.04405351e+00
1.04339572e+00
1.03886311e+00
1.04415873e+00
1.05098353e+00
1.05202829e+00
1.05302453e+00
1.05376166e+00
1.05205962e+00
1.04894631e+00
1.04738458e+00
1.04790732e+00
1.05224308e+00
1.05151763e+00
1.04523715e+00
1.04629240e+00
1.05071517e+00
1.05030875e+00
1.04725466e+00
1.04473245e+00
1.04827324e+00
1.05138150e+00
1.04866778e+00
1.04552780e+00
1.04623479e+00
1.04629732e+00
1.04685553e+00
1.04473361e+00
1.04605300e+00
1.04630717e+00
1.04464997e+00
1.04377651e+00
1.04433328e+00
1.04275148e+00
1.04545266e+00
1.04152766e+00
1.04554853e+00
1.04312395e+00
1.04144578e+00
1.04480672e+00
1.03890313e+00
1.04413231e+00
1.04409299e+00
1.04100370e+00
1.04263486e+00
1.04088491e+00
1.03988393e+00
1.04120486e+00
1.04275862e+00
1.03877792e+00
1.03993853e+00
1.04184623e+00
1.04102081e+00
1.04115290e+00
1.03860073e+00
1.03959945e+00
1.04016935e+00
1.03948857e+00
1.04147065e+00
1.03977817e+00
1.03615832e+00
1.03935228e+00
1.03874690e+00
1.03625292e+00
1.03879453e+00
1.03768011e+00
1.03656802e+00
1.03714018e+00
1.03928926e+00
1.03691242e+00
1.03610225e+00
1.03761486e+00
1.03817746e+00
1.03622637e+00
1.03627426e+00
1.03599362e+00
1.03505051e+00
1.03702615e+00
1.03699926e+00
1.03613627e+00
1.03463953e+00
1.03420648e+00
1.03650321e+00
1.03208506e+00
1.03308892e+00
1.03391575e+00
1.03346500e+00
1.03412151e+00
1.03227065e+00
1.03121582e+00
1.03494567e+00
1.03411109e+00
1.03054482e+00
1.03173592e+00
1.03152990e+00
1.03154925e+00
1.03146910e+00
1.02847590e+00
1.03208926e+00
1.03017407e+00
1.02874197e+00
1.02911853e+00
1.02990347e+00
1.08607419e+00
1.09030982e+00
1.08274712e+00
1.06799179e+00
1.06588086e+00
1.06617789e+00
1.05786924e+00
1.05416156e+00
1.05405266e+00
1.04753393e+00
1.04769068e+00
1.04864516e+00
1.04508488e+00
1.04528355e+00
1.04740371e+00
1.05092155e+00
1.04997707e+00
1.04269110e+00
1.04797304e+00
1.04756482e+00
1.04487486e+00
1.04370427e+00
1.04680284e+00
1.04483515e+00
1.04508493e+00
1.04373396e+00
1.03880617e+00
1.03983408e+00
1.04367071e+00
1.05195026e+00
1.05324583e+00
1.04809900e+00
1.04870341e+00
1.05108584e+00
1.04930683e+00
1.05124171e+00
1.05200317e+00
1.04960692e+00
1.04304903e+00
1.04716253e+00
1.05317600e+00
1.05095379e+00
1.04460822e+00
1.04603938e+00
1.05108186e+00
1.05226416e+00
1.04734973e+00
1.04451832e+00
1.04520456e+00
1.04934230e+00
1.04628820e+00
1.04358904e+00
1.04441776e+00
1.04674732e+00
1.04760743e+00
1.04374901e+00
1.04023685e+00
1.04382495e+00
1.04420513e+00
1.04382258e+00
1.04348329e+00
1.04474956e+00
1.04272974e+00
1.04017652e+00
1.04402656e+00
1.04231299e+00
1.04049853e+00
1.04455726e+00
1.04176379e+00
1.03978655e+00
1.04295379e+00
1.04225875e+00
1.03773131e+00
1.04190253e+00
1.04202033e+00
1.04069870e+00
1.04010431e+00
1.03982558e+00
1.04088755e+00
1.03999533e+00
1.04159567e+00
1.04016830e+00
1.03545303e+00
1.03839863e+00
1.03884887e+00
1.03515385e+00
1.03849636e+00
1.03741367e+00
1.03594714e+00
1.03909904e+00
1.03801402e+00
1.03675846e+00
1.03543319e+00
1.03822329e+00
1.03667285e+00
1.03669576e+00
1.03627688e+00
1.03641391e+00
1.03745771e+00
1.03585044e+00
1.03471139e+00
1.03499494e+00
1.03544121e+00
1.03625228e+00
1.03702424e+00
1.03554870e+00
1.03578425e+00
1.03647066e+00
1.03257755e+00
1.03327943e+00
1.03427999e+00
1.03451678e+00
1.03371827e+00
1.03138940e+00
1.03179309e+00
1.03477721e+00
1.03247232e+00
1.03004258e+00
1.03268711e+00
1.03139666e+00
1.03160639e+00
1.03063927e+00
1.02728292e+00
1.02945655e+00
1.03016581e+00
1.03138434e+00
1.02753245e+00
1.02774334e+00
1.08690281e+00
1.07731403e+00
1.06783260e+00
1.07019545e+00
1.07317848e+00
1.06385726e+00
1.06048206e+00
1.06395682e+00
1.05376152e+00
1.04314752e+00
1.04913705e+00
1.05272629e+00
1.04677751e+00
1.04112935e+00
1.04375512e+00
1.05344296e+00
1.05134890e+00
1.04302299e+00
1.04844861e+00
1.05006848e+00
1.04258010e+00
1.03828132e+00
1.04745080e+00
1.04988730e+00
1.04338711e+00
1.03806210e+00
1.04640178e+00
1.04686004e+00
1.04753105e+00
1.05092075e+00
1.05041443e+00
1.04552712e+00
1.04612431e+00
1.05045951e+00
1.05151996e+00
1.05035916e+00
1.04643828e+00
1.04711800e+00
1.04862438e+00
1.05188938e+00
1.04717941e+00
1.04535068e+00
1.04810197e+00
1.05227284e+00
1.04967581e+00
1.04510906e+00
1.04368271e+00
1.04855867e+00
1.04861024e+00
1.04702628e+00
1.04401521e+00
1.04663859e+00
1.04904350e+00
1.04505381e+00
1.04158165e+00
1.04297172e+00
1.04301148e+00
1.04505366e+00
1.04716270e+00
1.04057886e+00
1.04358135e+00
1.04495153e+00
1.04249575e+00
1.04257916e+00
1.03979190e+00
1.04402925e+00
1.04161214e+00
1.04316303e+00
1.04411531e+00
1.03980041e+00
1.03874299e+00
1.04138100e+00
1.04127737e+00
1.04057101e+00
1.04097715e+00
1.04013412e+00
1.04047589e+00
1.04010208e+00
1.04241211e+00
1.03864574e+00
1.03617305e+00
1.04104193e+00
1.03956379e+00
1.04054489e+00
1.03713262e+00
1.03548483e+00
1.03983264e+00
1.03998858e+00
1.03842682e+00
1.03974687e+00
1.03686776e+00
1.03712315e+00
1.03793543e+00
1.03991229e+00
1.03550471e+00
1.03510680e+00
1.03817317e+00
1.03723120e+00
1.03778535e+00
1.03592981e+00
1.03489414e+00
1.03514729e+00
1.03690054e+00
1.03445140e+00
1.03468356e+00
1.03434094e+00
1.03647583e+00
1.03843688e+00
1.03306514e+00
1.03354727e+00
1.03589914e+00
1.03460444e+00
1.03447637e+00
1.02956561e+00
1.03150614e+00
1.03433309e+00
1.03123674e+00
1.02826345e+00
1.03318284e+00
1.03151492e+00
1.03136311e+00
1.03083572e+00
1.02969891e+00
1.03177101e+00
1.02886412e+00
1.03106102e+00
1.03025537e+00
1.02763195e+00
1.08571953e+00
1.06821039e+00
1.06808316e+00
1.07019484e+00
1.06767492e+00
1.07114199e+00
1.06691725e+00
1.05459075e+00
1.05342849e+00
1.05454344e+00
1.05041172e+00
1.05293425e+00
1.04837706e+00
1.03800561e+00
1.04356716e+00
1.05730903e+00
1.04878567e+00
1.04300500e+00
1.05020181e+00
1.05165613e+00
1.03932044e+00
1.03754477e+00
1.04981378e+00
1.04985769e+00
1.04163371e+00
1.04259349e+00
1.05078886e+00
1.04716523e+00
1.05021322e+00
1.04980277e+00
1.05070921e+00
1.04916239e+00
1.04694601e+00
1.04562993e+00
1.05097788e+00
1.04918265e+00
1.04572199e+00
1.04880688e+00
1.05300190e+00
1.04903901e+00
1.04644338e+00
1.04884502e+00
1.04950651e+00
1.04750533e+00
1.04677550e+00
1.04862514e+00
1.05023944e+00
1.04628873e+00
1.04394391e+00
1.04725660e+00
1.04699710e+00
1.04629580e+00
1.04431396e+00
1.04283744e+00
1.04456116e+00
1.04791178e+00
1.04566226e+00
1.04250394e+00
1.04335913e+00
1.04355525e+00
1.04382571e+00
1.04575725e+00
1.03749826e+00
1.04312808e+00
1.04440555e+00
1.04324496e+00
1.04322331e+00
1.03886058e+00
1.03771493e+00
1.04319371e+00
1.04210008e+00
1.04004278e+00
1.04015553e+00
1.04017456e+00
1.03842983e+00
1.04046143e+00
1.04012137e+00
1.03691633e+00
1.03981020e+00
1.04123868e+00
1.04018831e+00
1.04132254e+00
1.03789442e+00
1.04046450e+00
1.03943337e+00
1.04007193e+00
1.04134898e+00
1.03732816e+00
1.03796396e+00
1.04110941e+00
1.03936430e+00
1.03807929e+00
1.03779186e+00
1.03773002e+00
1.03728646e+00
1.03797743e+00
1.03980192e+00
1.03467374e+00
1.03735776e+00
1.03765612e+00
1.03728919e+00
1.03620497e+00
1.03527032e+00
1.03513617e+00
1.03585667e+00
1.03554397e+00
1.03394039e+00
1.03658003e+00
1.03449303e+00
1.03501308e+00
1.03673904e+00
1.03417283e+00
1.03413606e+00
1.03009947e+00
1.03200392e+00
1.03526773e+00
1.03113965e+00
1.02968011e+00
1.03244670e+00
1.03145257e+00
1.03212547e+00
1.03046796e+00
1.02918805e+00
1.03453839e+00
1.02996226e+00
1.02894672e+00
1.02803217e+00
1.02981458e+00
1.06916547e+00
1.07060622e+00
1.07340497e+00
1.06923051e+00
1.07257649e+00
1.07081607e+00
1.05662486e+00
1.05514755e+00
1.06813829e+00
1.06644001e+00
1.04529212e+00
1.04471424e+00
1.05436745e+00
1.04863568e+00
1.04196758e+00
1.05079370e+00
1.05535700e+00
1.04782011e+00
1.04701842e+00
1.04988454e+00
1.04618010e+00
1.03969404e+00
1.04647839e+00
1.05251503e+00
1.04551439e+00
1.04603539e+00
1.04984237e+00
1.04878348e+00
1.04580101e+00
1.05061084e+00
1.05108434e+00
1.04733252e+00
1.05103486e+00
1.04904113e+00
1.04712858e+00
1.04810891e+00
1.05110206e+00
1.05115654e+00
1.04827647e+00
1.04392478e+00
1.04728654e+00
1.05140474e+00
1.05055480e+00
1.04788222e+00
1.04606192e+00
1.04568390e+00
1.04995774e+00
1.04800364e+00
1.04629046e+00
1.04707252e+00
1.04404966e+00
1.04394589e+00
1.04779964e+00
1.04555790e+00
1.04419584e+00
1.04421851e+00
1.04401154e+00
1.04500521e+00
1.04320869e+00
1.04425640e+00
1.04110452e+00
1.04619224e+00
1.04173130e+00
1.04250744e+00
1.04550937e+00
1.03683808e+00
1.04260901e+00
1.04657236e+00
1.03940554e+00
1.03811307e+00
1.04020771e+00
1.04023791e+00
1.04122606e+00
1.04343312e+00
1.03882552e+00
1.03862528e+00
1.04067153e+00
1.04082416e+00
1.04136103e+00
1.03769159e+00
1.03792883e+00
1.04112543e+00
1.04066159e+00
1.04379404e+00
1.03949411e+00
1.03522883e+00
1.03891143e+00
1.03865075e+00
1.03855225e+00
1.03774909e+00
1.03576783e+00
1.03875780e+00
1.03852509e+00
1.03952886e+00
1.03548124e+00
1.03684484e+00
1.03903734e+00
1.03547290e+00
1.03688687e+00
1.03724072e+00
1.03404466e+00
1.03656818e+00
1.03579299e+00
1.03511256e+00
1.03455986e+00
1.03443393e+00
1.03588361e+00
1.03705839e+00
1.03251705e+00
1.03467411e+00
1.03400822e+00
1.03193325e+00
1.03393880e+00
1.03127568e+00
1.03397499e+00
1.03367802e+00
1.02977369e+00
1.03229720e+00
1.03327718e+00
1.03148923e+00
1.03211151e+00
1.03176371e+00
1.02920613e+00
1.03150044e+00
1.02901206e+00
1.03031061e+00
1.02848553e+00
1.02854118e+00
1.06428111e+00
1.06950420e+00
1.06699045e+00
1.07420607e+00
1.07687951e+00
1.06008697e+00
1.05261864e+00
1.06757039e+00
1.07275615e+00
1.06159446e+00
1.04916351e+00
1.05175264e+00
1.05391586e+00
1.05132819e+00
1.04750720e+00
1.05468568e+00
1.05421746e+00
1.05051044e+00
1.04466165e+00
1.05062867e+00
1.05602007e+00
1.04025529e+00
1.04689082e+00
1.05408692e+00
1.04696812e+00
1.05039861e+00
1.05577946e+00
1.04831678e+00
1.04242730e+00
1.05074409e+00
1.04921527e+00
1.04771683e+00
1.05141100e+00
1.05014346e+00
1.04661031e+00
1.05135147e+00
1.05029346e+00
1.04536165e+00
1.04673473e+00
1.05154798e+00
1.05174470e+00
1.04968904e+00
1.04327120e+00
1.04587281e+00
1.04888444e+00
1.04920180e+00
1.04817456e+00
1.04741523e+00
1.04432189e+00
1.04651846e+00
1.04661196e+00
1.04695642e+00
1.04681273e+00
1.04230420e+00
1.04291788e+00
1.04971100e+00
1.04333839e+00
1.04076814e+00
1.04201863e+00
1.04357838e+00
1.04659397e+00
1.04481144e+00
1.03950697e+00
1.03720599e+00
1.04522114e+00
1.04449467e+00
1.03973643e+00
1.04161146e+00
1.03936864e+00
1.03850865e+00
1.04276948e+00
1.04174968e+00
1.03753199e+00
1.04005341e+00
1.04221456e+00
1.04137768e+00
1.03965590e+00
1.03918944e+00
1.04144231e+00
1.04175757e+00
1.04217393e+00
1.04190400e+00
1.03411426e+00
1.03765098e+00
1.03900233e+00
1.03794019e+00
1.03763770e+00
1.03571876e+00
1.03820662e+00
1.03843558e+00
1.03712847e+00
1.04024485e+00
1.03377128e+00
1.03453131e+00
1.03709995e+00
1.03954570e+00
1.03769494e+00
1.03214049e+00
1.03515865e+00
1.03749024e+00
1.03555766e+00
1.03798499e+00
1.03479310e+00
1.03461156e+00
1.03735562e+00
1.03649414e+00
1.03346746e+00
1.03481753e+00
1.03143465e+00
1.03519068e+00
1.03298020e+00
1.03180005e+00
1.03415804e+00
1.03261176e+00
1.03550353e+00
1.03502652e+00
1.02986739e+00
1.03354571e+00
1.03439385e+00
1.03019078e+00
1.02988809e+00
1.03153324e+00
1.03219591e+00
1.03165502e+00
1.02708485e+00
1.03074992e+00
1.03085463e+00
1.02838142e+00
1.07015079e+00
1.05909478e+00
1.06328807e+00
1.08202060e+00
1.07247102e+00
1.05072140e+00
1.05617533e+00
1.06870102e+00
1.07286923e+00
1.06155955e+00
1.04676731e+00
1.05326506e+00
1.06339648e+00
1.05358232e+00
1.04860029e+00
1.05504107e+00
1.04870991e+00
1.05323078e+00
1.05172229e+00
1.05634064e+00
1.04793037e+00
1.04242998e+00
1.05440624e+00
1.05512789e+00
1.04565904e+00
1.04845920e+00
1.05592124e+00
1.05004882e+00
1.04830515e+00
1.05118012e+00
1.04792672e+00
1.04673497e+00
1.05083721e+00
1.05196837e+00
1.04869553e+00
1.04805576e+00
1.04769777e+00
1.04825787e+00
1.05172750e+00
1.05035346e+00
1.04556984e+00
1.04816698e+00
1.04852855e+00
1.04977768e+00
1.04871425e+00
1.04430037e+00
1.04491808e+00
1.04805994e+00
1.04699705e+00
1.04657522e+00
1.04535076e+00
1.04517312e+00
1.04798565e+00
1.04682344e+00
1.04042904e+00
1.04506305e+00
1.04036082e+00
1.04045832e+00
1.05004530e+00
1.04402863e+00
1.04232632e+00
1.04172864e+00
1.04320573e+00
1.04235194e+00
1.03823491e+00
1.03984765e+00
1.04079195e+00
1.04367112e+00
1.04438174e+00
1.03948578e+00
1.03590261e+00
1.03935200e+00
1.04376309e+00
1.04063848e+00
1.03910076e+00
1.03820770e+00
1.04125656e+00
1.04191310e+00
1.04335996e+00
1.03794914e+00
1.03556533e+00
1.04057793e+00
1.03979876e+00
1.04131131e+00
1.03611006e+00
1.03600830e+00
1.03841178e+00
1.03660773e+00
1.04060103e+00
1.03900333e+00
1.03453836e+00
1.03911652e+00
1.03746956e+00
1.03734653e+00
1.03433372e+00
1.03580288e+00
1.03724860e+00
1.03563581e+00
1.03786828e+00
1.03616511e+00
1.03251140e+00
1.03730196e+00
1.03526911e+00
1.03628918e+00
1.03521317e+00
1.03558781e+00
1.03364921e+00
1.03562902e+00
1.03335122e+00
1.03486456e+00
1.03115973e+00
1.03166253e+00
1.03598034e+00
1.03229040e+00
1.03465794e+00
1.03218136e+00
1.03137928e+00
1.03226118e+00
1.03254888e+00
1.02982111e+00
1.02921796e+00
1.02821836e+00
1.03025840e+00
1.03243319e+00
1.02593167e+00
1.02767479e+00
1.02935578e+00
1.03054846e+00
1.06996508e+00
1.06379868e+00
1.07094788e+00
1.07280781e+00
1.06257540e+00
1.06003105e+00
1.06128658e+00
1.06278140e+00
1.06741155e+00
1.06260803e+00
1.05161766e+00
1.05587890e+00
1.06105954e+00
1.04846830e+00
1.04339356e+00
1.05456385e+00
1.06095496e+00
1.05094032e+00
1.04687579e+00
1.05811075e+00
1.04814048e+00
1.05196543e+00
1.05375169e+00
1.04817805e+00
1.04391762e+00
1.05370276e+00
1.05575208e+00
1.04473771e+00
1.04648372e+00
1.05870698e+00
1.05001092e+00
1.04415947e+00
1.05144512e+00
1.04829139e+00
1.04601910e+00
1.04910982e+00
1.05130551e+00
1.04847961e+00
1.04788225e+00
1.04721510e+00
1.04678539e+00
1.05314456e+00
1.05037111e+00
1.04528791e+00
1.04724252e+00
1.04806686e+00
1.04802777e+00
1.04513421e+00
1.04349622e+00
1.04549156e+00
1.04832409e+00
1.04615996e+00
1.04515897e+00
1.04459256e+00
1.04165418e+00
1.04458130e+00
1.04505603e+00
1.03918933e+00
1.04348358e+00
1.04364563e+00
1.04257255e+00
1.04646301e+00
1.04013397e+00
1.04170527e+00
1.04246536e+00
1.03916951e+00
1.04460862e+00
1.04049072e+00
1.03705120e+00
1.04187993e+00
1.04406864e+00
1.04011160e+00
1.03942853e+00
1.03852792e+00
1.04005890e+00
1.04010910e+00
1.04119649e+00
1.03637860e+00
1.03836560e+00
1.03986842e+00
1.04252593e+00
1.04038695e+00
1.03526582e+00
1.03897245e+00
1.03856606e+00
1.03989997e+00
1.04094449e+00
1.03550519e+00
1.03858648e+00
1.03926547e+00
1.03736091e+00
1.04130973e+00
1.03383045e+00
1.03505312e+00
1.03622062e+00
1.03695715e+00
1.03666811e+00
1.03413394e+00
1.03734054e+00
1.03594504e+00
1.03524132e+00
1.03829633e+00
1.03351639e+00
1.03391127e+00
1.03605354e+00
1.03637556e+00
1.03405940e+00
1.03398653e+00
1.03418428e+00
1.03636648e+00
1.03332491e+00
1.03160928e+00
1.03578187e+00
1.03160116e+00
1.03325306e+00
1.03083009e+00
1.03088505e+00
1.03510892e+00
1.03258986e+00
1.02957109e+00
1.03187755e+00
1.03142169e+00
1.02764093e+00
1.03245250e+00
1.02820868e+00
1.03003520e+00
1.02744357e+00
1.02910871e+00
1.05437216e+00
1.06239047e+00
1.07860486e+00
1.07100622e+00
1.06017597e+00
1.05995048e+00
1.05837900e+00
1.06587210e+00
1.06780291e+00
1.05569370e+00
1.05607805e+00
1.06390714e+00
1.05427453e+00
1.04427517e+00
1.04900859e+00
1.06131766e+00
1.06046517e+00
1.04445732e+00
1.05108120e+00
1.06048159e+00
1.04748907e+00
1.04836401e+00
1.05390702e+00
1.05159184e+00
1.04530236e+00
1.05058607e+00
1.05397879e+00
1.04899578e+00
1.05150979e+00
1.05922145e+00
1.04427744e+00
1.04549726e+00
1.05404658e+00
1.04900590e+00
1.04409585e+00
1.04952869e+00
1.05183489e+00
1.04903299e+00
1.04835626e+00
1.04886353e+00
1.04816552e+00
1.04884888e+00
1.04455595e+00
1.04646995e+00
1.05224084e+00
1.04862130e+00
1.04616115e+00
1.04555421e+00
1.04551999e+00
1.04806164e+00
1.04667754e+00
1.04173507e+00
1.04267979e+00
1.04620646e+00
1.04440951e+00
1.04303921e+00
1.04380515e+00
1.04386561e+00
1.04490702e+00
1.04556782e+00
1.03858586e+00
1.04384934e+00
1.04229616e+00
1.04318107e+00
1.04595285e+00
1.03743845e+00
1.04115432e+00
1.04358585e+00
1.04169990e+00
1.03930660e+00
1.03983168e+00
1.03899456e+00
1.04012376e+00
1.04314625e+00
1.04056407e+00
1.03698299e+00
1.03957122e+00
1.04146491e+00
1.04179950e+00
1.03683195e+00
1.03835088e+00
1.04085772e+00
1.04041618e+00
1.04313393e+00
1.03892054e+00
1.03579366e+00
1.03978982e+00
1.03646055e+00
1.04034349e+00
1.03824135e+00
1.03495989e+00
1.04044825e+00
1.03721416e+00
1.03809575e+00
1.03716275e+00
1.03388146e+00
1.03460218e+00
1.03629942e+00
1.04063419e+00
1.03528649e+00
1.03272025e+00
1.03537904e+00
1.03563017e+00
1.03495643e+00
1.03494690e+00
1.03503913e+00
1.03516093e+00
1.03622986e+00
1.03371885e+00
1.03585023e+00
1.03318741e+00
1.03316937e+00
1.03430847e+00
1.02960991e+00
1.03209132e+00
1.03129690e+00
1.02984835e+00
1.03499319e+00
1.03230541e+00
1.02979649e+00
1.03053578e+00
1.03157977e+00
1.02970424e+00
1.03067971e+00
1.02787590e+00
1.03154952e+00
1.02869353e+00
1.02519991e+00
1.05960519e+00
1.06737278e+00
1.06870091e+00
1.06770179e+00
1.06395060e+00
1.05765592e+00
1.06076695e+00
1.07211599e+00
1.06254628e+00
1.04843875e+00
1.06108019e+00
1.06992134e+00
1.05264410e+00
1.04029718e+00
1.05495932e+00
1.06936683e+00
1.05355494e+00
1.04942868e+00
1.05821686e+00
1.05142514e+00
1.04694933e+00
1.05089070e+00
1.05080465e+00
1.05158766e+00
1.04754575e+00
1.05295349e+00
1.05768549e+00
1.04687915e+00
1.04864967e+00
1.05507721e+00
1.04715262e+00
1.04854510e+00
1.05203383e+00
1.05024038e+00
1.04715244e+00
1.05110259e+00
1.04840498e+00
1.04672379e+00
1.04953051e+00
1.05270456e+00
1.04686007e+00
1.04519837e+00
1.04515675e+00
1.04968820e+00
1.05289809e+00
1.04535213e+00
1.04365819e+00
1.04882200e+00
1.04785337e+00
1.04774667e+00
1.04412351e+00
1.04334919e+00
1.04526478e+00
1.04579533e+00
1.04215291e+00
1.04612375e+00
1.04217187e+00
1.04480967e+00
1.04485200e+00
1.04167625e+00
1.04149886e+00
1.04421311e+00
1.04410450e+00
1.03773620e+00
1.03945190e+00
1.04526232e+00
1.04231414e+00
1.03928248e+00
1.03938479e+00
1.03924718e+00
1.04131629e+00
1.04312451e+00
1.03794957e+00
1.03768005e+00
1.04083207e+00
1.04327387e+00
1.04188001e+00
1.03957513e+00
1.04098546e+00
1.03945706e+00
1.04284725e+00
1.04306969e+00
1.03643951e+00
1.03652740e+00
1.03833207e+00
1.03907350e+00
1.04226048e+00
1.03412702e+00
1.03710264e+00
1.03725515e+00
1.03730256e+00
1.04039575e+00
1.03371695e+00
1.03675340e+00
1.03961938e+00
1.03635803e+00
1.03675424e+00
1.03615433e+00
1.03760325e+00
1.03339934e+00
1.03616449e+00
1.03754409e+00
1.03229766e+00
1.03243612e+00
1.03414940e+00
1.03633432e+00
1.03246307e+00
1.03427600e+00
1.03334852e+00
1.03567304e+00
1.03247901e+00
1.03318111e+00
1.03673704e+00
1.02904982e+00
1.03223886e+00
1.03409579e+00
1.03054600e+00
1.03235384e+00
1.03003875e+00
1.03071099e+00
1.03438496e+00
1.03003103e+00
1.02885223e+00
1.03274242e+00
1.02722887e+00
1.03029472e+00
1.03003510e+00
1.03001407e+00
1.06904787e+00
1.06913822e+00
1.06335439e+00
1.06664257e+00
1.06366191e+00
1.05793688e+00
1.06402660e+00
1.07119030e+00
1.05915591e+00
1.05292797e+00
1.06067782e+00
1.06162710e+00
1.05795729e+00
1.04772010e+00
1.05451853e+00
1.06094137e+00
1.05135462e+00
1.05562033e+00
1.06179835e+00
1.05335587e+00
1.04847427e+00
1.04877778e+00
1.04993946e+00
1.05150663e+00
1.05283804e+00
1.05924412e+00
1.05365912e+00
1.04418744e+00
1.05467548e+00
1.05466956e+00
1.04295488e+00
1.04998095e+00
1.05592166e+00
1.04669992e+00
1.04710924e+00
1.05290421e+00
1.04957036e+00
1.04677460e+00
1.05154960e+00
1.04996366e+00
1.04281649e+00
1.05146373e+00
1.05253671e+00
1.04632167e+00
1.04355368e+00
1.04258813e+00
1.04817349e+00
1.05268039e+00
1.04438792e+00
1.04582703e+00
1.04675482e+00
1.04539895e+00
1.04483453e+00
1.04455608e+00
1.03866657e+00
1.04485869e+00
1.04424895e+00
1.04171281e+00
1.04389988e+00
1.04227171e+00
1.04336779e+00
1.04034413e+00
1.04025545e+00
1.04256977e+00
1.03877068e+00
1.04404319e+00
1.04373685e+00
1.03864868e+00
1.03890550e+00
1.04231397e+00
1.03843914e+00
1.03948069e+00
1.04237595e+00
1.04074098e+00
1.03819321e+00
1.03934814e+00
1.04092388e+00
1.04029394e+00
1.04334030e+00
1.03881109e+00
1.03744334e+00
1.03823217e+00
1.03896680e+00
1.04117581e+00
1.03659899e+00
1.03690868e+00
1.03878782e+00
1.03402562e+00
1.03865495e+00
1.03906901e+00
1.03302879e+00
1.03692597e+00
1.03555183e+00
1.03879958e+00
1.03874862e+00
1.03318135e+00
1.03628460e+00
1.03696209e+00
1.03859516e+00
1.03416748e+00
1.03418020e+00
1.03804537e+00
1.03397319e+00
1.03509709e+00
1.03418706e+00
1.03486910e+00
1.03373672e+00
1.03391269e+00
1.03427525e+00
1.03469309e+00
1.03231514e+00
1.03149399e+00
1.03702135e+00
1.02940739e+00
1.03256816e+00
1.03152441e+00
1.03250093e+00
1.03312156e+00
1.02870758e+00
1.02954766e+00
1.03634767e+00
1.03260368e+00
1.02690911e+00
1.03073519e+00
1.02856401e+00
1.03069509e+00
1.02763290e+00
1.02936546e+00
1.06591995e+00
1.06349059e+00
1.07235999e+00
1.06918660e+00
1.05472947e+00
1.05852225e+00
1.06909460e+00
1.06512470e+00
1.05254701e+00
1.05545173e+00
1.06302636e+00
1.06604471e+00
1.05757061e+00
1.04883546e+00
1.05315128e+00
1.05728075e+00
1.05634802e+00
1.05213763e+00
1.05760527e+00
1.05810706e+00
1.04693300e+00
1.04773758e+00
1.05563111e+00
1.05223753e+00
1.04910994e+00
1.05878810e+00
1.05092601e+00
1.04697069e+00
1.05846268e+00
1.05282888e+00
1.04288378e+00
1.05108154e+00
1.05563509e+00
1.04554383e+00
1.04643778e+00
1.05365724e+00
1.05071697e+00
1.04429540e+00
1.04877640e+00
1.04972006e+00
1.04879010e+00
1.05209486e+00
1.04843981e+00
1.04536574e+00
1.04776819e+00
1.04718586e+00
1.04716877e+00
1.04552352e+00
1.04051614e+00
1.04699621e+00
1.05035256e+00
1.04489935e+00
1.04357819e+00
1.04691020e+00
1.04373506e+00
1.04134284e+00
1.04403283e+00
1.03912992e+00
1.04230577e+00
1.04581702e+00
1.04360965e+00
1.04272965e+00
1.03770627e+00
1.04340157e+00
1.04218282e+00
1.03747133e+00
1.04163740e+00
1.04042783e+00
1.03844867e+00
1.04214689e+00
1.04107671e+00
1.03972535e+00
1.04075685e+00
1.03909437e+00
1.03761987e+00
1.03997524e+00
1.04226457e+00
1.03977964e+00
1.03877898e+00
1.03798228e+00
1.04189334e+00
1.04060081e+00
1.03457018e+00
1.03851690e+00
1.03676379e+00
1.04049577e+00
1.04173144e+00
1.03552536e+00
1.03656196e+00
1.03801618e+00
1.03636324e+00
1.03989293e+00
1.03343191e+00
1.03638394e+00
1.03788358e+00
1.03533064e+00
1.03701911e+00
1.03448529e+00
1.03498202e+00
1.03393205e+00
1.03721322e+00
1.03770576e+00
1.03429734e+00
1.03502296e+00
1.03460229e+00
1.03410980e+00
1.03684300e+00
1.03444322e+00
1.03007325e+00
1.03220834e+00
1.03359089e+00
1.03276122e+00
1.03553225e+00
1.02838561e+00
1.03521609e+00
1.03185630e+00
1.03006395e+00
1.03452769e+00
1.02891358e+00
1.02762015e+00
1.03296983e+00
1.03201595e+00
1.03007228e+00
1.03040421e+00
1.02889605e+00
1.03271127e+00
1.02771698e+00
1.02592979e+00
1.05621944e+00
1.05795735e+00
1.07644739e+00
1.07086614e+00
1.05533585e+00
1.05409836e+00
1.06032657e+00
1.06486847e+00
1.06092855e+00
1.05545608e+00
1.05924432e+00
1.06885453e+00
1.05458928e+00
1.04586546e+00
1.05522478e+00
1.05647227e+00
1.05307520e+00
1.05681114e+00
1.05808601e+00
1.05147171e+00
1.04911299e+00
1.05612734e+00
1.05410941e+00
1.04766706e+00
1.04684997e+00
1.05652580e+00
1.05400567e+00
1.05098800e+00
1.05479422e+00
1.05033177e+00
1.04721105e+00
1.05218144e+00
1.05215190e+00
1.04507779e+00
1.04776344e+00
1.05477923e+00
1.04779378e+00
1.04448753e+00
1.05029912e+00
1.05195149e+00
1.04801070e+00
1.04936632e+00
1.04653949e+00
1.04876813e+00
1.05190817e+00
1.04552845e+00
1.04314609e+00
1.04884812e+00
1.04518009e+00
1.04338168e+00
1.04565901e+00
1.04512592e+00
1.04430346e+00
1.04521759e+00
1.04366707e+00
1.04099771e+00
1.04424163e+00
1.04460423e+00
1.04078651e+00
1.04165397e+00
1.04152882e+00
1.04624210e+00
1.04260694e+00
1.03921196e+00
1.04120391e+00
1.03943442e+00
1.04131686e+00
1.04088455e+00
1.03978431e+00
1.03779615e+00
1.03836639e+00
1.04142316e+00
1.04086961e+00
1.04022046e+00
1.04041349e+00
1.04072536e+00
1.03866578e+00
1.03947549e+00
1.03962211e+00
1.03836285e+00
1.03883497e+00
1.04084729e+00
1.03562970e+00
1.04088416e+00
1.03789598e+00
1.03763904e+00
1.03802627e+00
1.03636341e+00
1.04029004e+00
1.03967066e+00
1.03396828e+00
1.03948377e+00
1.03408324e+00
1.03813883e+00
1.03653715e+00
1.03336335e+00
1.03795742e+00
1.03471835e+00
1.03505717e+00
1.03374390e+00
1.03667651e+00
1.03610957e+00
1.03360780e+00
1.03730929e+00
1.03644360e+00
1.03360732e+00
1.03611008e+00
1.03619006e+00
1.03245463e+00
1.03284135e+00
1.03222709e+00
1.03317227e+00
1.03534327e+00
1.02931829e+00
1.03412469e+00
1.03495148e+00
1.03065795e+00
1.03307177e+00
1.03057806e+00
1.03054897e+00
1.03093771e+00
1.02882460e+00
1.02954155e+00
1.03323926e+00
1.02713018e+00
1.03084107e+00
1.02772193e+00
1.02863188e+00
1.05049731e+00
1.06712675e+00
1.07013035e+00
1.06452340e+00
1.05901314e+00
1.05407105e+00
1.05589761e+00
1.06693992e+00
1.06462710e+00
1.05690052e+00
1.05795220e+00
1.06432903e+00
1.05016692e+00
1.04749208e+00
1.06193244e+00
1.05892220e+00
1.05074484e+00
1.05751387e+00
1.05506637e+00
1.04956001e+00
1.05526749e+00
1.05818419e+00
1.04724856e+00
1.04675446e+00
1.05405787e+00
1.05670625e+00
1.05226560e+00
1.05076216e+00
1.05665041e+00
1.05374649e+00
1.04720454e+00
1.05086840e+00
1.05118663e+00
1.04486356e+00
1.05041937e+00
1.05225131e+00
1.04355026e+00
1.04751535e+00
1.05680868e+00
1.05000146e+00
1.04203485e+00
1.04883131e+00
1.04927242e+00
1.04626156e+00
1.04950832e+00
1.04623560e+00
1.04524253e+00
1.05154460e+00
1.04560185e+00
1.04263559e+00
1.04483179e+00
1.04456037e+00
1.04400187e+00
1.04463823e+00
1.04264633e+00
1.04603642e+00
1.04080281e+00
1.04051729e+00
1.04186498e+00
1.04396722e+00
1.04454491e+00
1.03934940e+00
1.04193716e+00
1.04118729e+00
1.04059658e+00