# vtk DataFile Version 2.0
LBM Flow Field - Timestep 530
ASCII
DATASET STRUCTURED_POINTS
DIMENSIONS 128 128 1
ORIGIN 0.0 0.0 0.0
SPACING 1.0 1.0 1.0
POINT_DATA 16384
SCALARS density double 1
LOOKUP_TABLE default
1.31849385e+00
1.30423331e+00
1.28715688e+00
1.27042561e+00
1.25371460e+00
1.23760849e+00
1.22152534e+00
1.20628579e+00
1.19106195e+00
1.17688916e+00
1.16271613e+00
1.14976117e+00
1.13678444e+00
1.12514504e+00
1.11346113e+00
1.10318165e+00
1.09283823e+00
1.08391312e+00
1.07491190e+00
1.06729226e+00
1.05959416e+00
1.05319626e+00
1.04672826e+00
1.04144320e+00
1.03610623e+00
1.03180964e+00
1.02748677e+00
1.02404780e+00
1.02061224e+00
1.01790118e+00
1.01522349e+00
1.01311768e+00
1.01107193e+00
1.00945984e+00
1.00792843e+00
1.00671194e+00
1.00558905e+00
1.00468429e+00
1.00387794e+00
1.00321498e+00
1.00264782e+00
1.00216957e+00
1.00177866e+00
1.00143939e+00
1.00117513e+00
1.00093877e+00
1.00076333e+00
1.00060190e+00
1.00048729e+00
1.00037939e+00
1.00030557e+00
1.00023512e+00
1.00018813e+00
1.00014328e+00
1.00011367e+00
1.00008586e+00
1.00006737e+00
1.00005059e+00
1.00003915e+00
1.00002930e+00
1.00002231e+00
1.00001668e+00
1.00001246e+00
1.00000932e+00
1.00000683e+00
1.00000511e+00
1.00000367e+00
1.00000275e+00
1.00000194e+00
1.00000145e+00
1.00000101e+00
1.00000074e+00
1.00000051e+00
1.00000037e+00
1.00000026e+00
1.00000018e+00
1.00000013e+00
1.00000009e+00
1.00000006e+00
1.00000004e+00
1.00000003e+00
1.00000002e+00
1.00000001e+00
1.00000001e+00
1.00000001e+00
1.00000000e+00
1.00000000e+00
1.00000000e+00
1.00000000e+00
1.00000000e+00
1.00000000e+00
1.00000000e+00
1.00000000e+00
1.00000000e+00
1.00000000e+00
1.00000000e+00
1.00000000e+00
1.00000000e+00
1.00000000e+00
1.00000000e+00
1.00000000e+00
1.00000000e+00
1.00000000e+00
1.00000000e+00
1.00000000e+00
1.00000000e+00
1.00000000e+00
1.00000000e+00
1.00000000e+00
1.00000000e+00
1.00000000e+00
1.00000000e+00
1.00000000e+00
1.00000000e+00
1.00000000e+00
1.00000000e+00
1.00000000e+00
1.00000000e+00
1.00000000e+00
1.00000000e+00
1.00000000e+00
1.00000000e+00
1.00000000e+00
1.00000000e+00
1.00000000e+00
1.00000000e+00
1.00000000e+00
1.00000000e+00
1.11794722e+00
1.09622722e+00
1.07951945e+00
1.07501491e+00
1.06938417e+00
1.06212705e+00
1.05837582e+00
1.05116329e+00
1.05086902e+00
1.04750898e+00
1.04422972e+00
1.04435959e+00
1.04233094e+00
1.04121001e+00
1.04668595e+00
1.04524274e+00
1.04040069e+00
1.04464824e+00
1.04538171e+00
1.04250598e+00
1.04196940e+00
1.04704853e+00
1.04448725e+00
1.04053427e+00
1.04231103e+00
1.04273337e+00
1.04078623e+00
1.03936298e+00
1.04157327e+00
1.04805946e+00
1.05397297e+00
1.05371051e+00
1.05155109e+00
1.05356799e+00
1.05537101e+00
1.04700859e+00
1.04036107e+00
1.04348371e+00
1.05299326e+00
1.05586404e+00
1.04530443e+00
1.03855511e+00
1.04419830e+00
1.05233679e+00
1.05133429e+00
1.04632187e+00
1.04279844e+00
1.04651525e+00
1.04838306e+00
1.04486681e+00
1.04484409e+00
1.04676730e+00
1.04501668e+00
1.04442924e+00
1.04298208e+00
1.04476773e+00
1.04562496e+00
1.04229783e+00
1.04339197e+00
1.04250629e+00
1.04346044e+00
1.04410234e+00
1.04076628e+00
1.04381362e+00
1.03984343e+00
1.04220604e+00
1.04319994e+00
1.03814410e+00
1.04072866e+00
1.04163230e+00
1.03953500e+00
1.04032346e+00
1.04186935e+00
1.03826573e+00
1.03895314e+00
1.03980248e+00
1.04156295e+00
1.03904130e+00
1.04009759e+00
1.03931938e+00
1.03825012e+00
1.04045076e+00
1.03968270e+00
1.03813449e+00
1.03749552e+00
1.04010668e+00
1.04011230e+00
1.03588501e+00
1.03745733e+00
1.03750092e+00
1.03494289e+00
1.03832283e+00
1.03710397e+00
1.03501325e+00
1.03660758e+00
1.03656410e+00
1.03748276e+00
1.03512356e+00
1.03464104e+00
1.03695022e+00
1.03460152e+00
1.03521868e+00
1.03553857e+00
1.03480440e+00
1.03636025e+00
1.03632624e+00
1.03456199e+00
1.03304376e+00
1.03228034e+00
1.03314123e+00
1.03399441e+00
1.03234193e+00
1.03396313e+00
1.03218118e+00
1.03387356e+00
1.03251368e+00
1.03179328e+00
1.03345560e+00
1.03248575e+00
1.03110533e+00
1.03061603e+00
1.03079333e+00
1.03011912e+00
1.03149219e+00
1.02804852e+00
1.03051569e+00
1.03009556e+00
1.02845153e+00
1.09567450e+00
1.09290088e+00
1.08895999e+00
1.07195547e+00
1.06092027e+00
1.06256282e+00
1.06420214e+00
1.05467063e+00
1.04491595e+00
1.04442466e+00
1.05158585e+00
1.04852697e+00
1.03680333e+00
1.04461330e+00
1.05274963e+00
1.04694992e+00
1.04046873e+00
1.04111103e+00
1.04583808e+00
1.04606144e+00
1.04174522e+00
1.04183965e+00
1.04744574e+00
1.04291515e+00
1.04100437e+00
1.04462527e+00
1.04170969e+00
1.03767585e+00
1.03799532e+00
1.04543630e+00
1.04992091e+00
1.05317684e+00
1.05449750e+00
1.04992649e+00
1.04704908e+00
1.04597547e+00
1.04688282e+00
1.05153792e+00
1.04923464e+00
1.04392771e+00
1.04215151e+00
1.04886870e+00
1.05129953e+00
1.04611616e+00
1.04204244e+00
1.04749012e+00
1.04982275e+00
1.04713220e+00
1.04479912e+00
1.04374568e+00
1.04507656e+00
1.04812985e+00
1.04434899e+00
1.04379633e+00
1.04459984e+00
1.04372234e+00
1.04503598e+00
1.04350509e+00
1.04033498e+00
1.04535717e+00
1.04158702e+00
1.04207653e+00
1.04191391e+00
1.04217416e+00
1.04449854e+00
1.03665486e+00
1.04208871e+00
1.04170672e+00
1.03978152e+00
1.04168928e+00
1.04052302e+00
1.03856254e+00
1.04118083e+00
1.04314998e+00
1.03875390e+00
1.03891083e+00
1.04167576e+00
1.04047171e+00
1.04010487e+00
1.04028067e+00
1.03923322e+00
1.03996871e+00
1.03809533e+00
1.03843691e+00
1.03596768e+00
1.03544693e+00
1.03784168e+00
1.03654444e+00
1.03775586e+00
1.03815402e+00
1.03478976e+00
1.03879174e+00
1.03676541e+00
1.03513441e+00
1.03562746e+00
1.03498110e+00
1.03596565e+00
1.03513086e+00
1.03598034e+00
1.03631896e+00
1.03401405e+00
1.03527441e+00
1.03584548e+00
1.03498570e+00
1.03654141e+00
1.03485645e+00
1.03379789e+00
1.03360973e+00
1.03348343e+00
1.03318808e+00
1.03217158e+00
1.03197021e+00
1.03387661e+00
1.03313041e+00
1.03340002e+00
1.03174164e+00
1.03213846e+00
1.03387780e+00
1.03156488e+00
1.02978782e+00
1.03063847e+00
1.03115309e+00
1.02942615e+00
1.03074548e+00
1.02831863e+00
1.02946845e+00
1.02938507e+00
1.02964520e+00
1.08431543e+00
1.09056658e+00
1.08318899e+00
1.06527758e+00
1.06448229e+00
1.06518192e+00
1.05776324e+00
1.05205291e+00
1.04967980e+00
1.04684357e+00
1.04912863e+00
1.04345122e+00
1.04016711e+00
1.04834904e+00
1.04886305e+00
1.04578878e+00
1.03966220e+00
1.04482971e+00
1.04779208e+00
1.04107950e+00
1.04215212e+00
1.04743433e+00
1.04534334e+00
1.04004327e+00
1.04482150e+00
1.04528490e+00
1.03882409e+00
1.03700566e+00
1.03820200e+00
1.04583757e+00
1.05232508e+00
1.05032963e+00
1.04913321e+00
1.04767749e+00
1.04699182e+00
1.04871315e+00
1.05289846e+00
1.04914748e+00
1.04090889e+00
1.04474102e+00
1.05188476e+00
1.04926368e+00
1.04509712e+00
1.04309401e+00
1.04942321e+00
1.05067091e+00
1.04612521e+00
1.04226799e+00
1.04454703e+00
1.04724023e+00
1.04739687e+00
1.04465707e+00
1.04186335e+00
1.04430642e+00
1.04819290e+00
1.04334618e+00
1.04023310e+00
1.04274556e+00
1.04133298e+00
1.04534022e+00
1.04357425e+00
1.04040182e+00
1.04326386e+00
1.04132956e+00
1.04164878e+00
1.04004166e+00
1.03854515e+00
1.04184020e+00
1.04094888e+00
1.03905419e+00
1.04230669e+00
1.04079641e+00
1.03683823e+00
1.04030529e+00
1.04114352e+00
1.03931495e+00
1.04042407e+00
1.04015605e+00
1.03977939e+00
1.03939169e+00
1.03846165e+00
1.03911908e+00
1.03561094e+00
1.03846648e+00
1.03956388e+00
1.03776567e+00
1.03856622e+00
1.03648155e+00
1.03829790e+00
1.03814210e+00
1.03664262e+00
1.03960457e+00
1.03472502e+00
1.03511457e+00
1.03885812e+00
1.03584556e+00
1.03559098e+00
1.03353494e+00
1.03641070e+00
1.03808715e+00
1.03428335e+00
1.03605834e+00
1.03384388e+00
1.03464204e+00
1.03533246e+00
1.03515700e+00
1.03413227e+00
1.03347017e+00
1.03274796e+00
1.03607369e+00
1.03340131e+00
1.03329761e+00
1.03507768e+00
1.03312202e+00
1.03234347e+00
1.02969058e+00
1.03068687e+00
1.03451694e+00
1.03174499e+00
1.02830132e+00
1.03085252e+00
1.03172842e+00
1.02804657e+00
1.02919360e+00
1.02782427e+00
1.03097228e+00
1.02873356e+00
1.02787426e+00
1.08530164e+00
1.07777268e+00
1.06827480e+00
1.06807873e+00
1.07033121e+00
1.06270164e+00
1.06055975e+00
1.06296277e+00
1.04755481e+00
1.04014972e+00
1.05142951e+00
1.04703837e+00
1.04075804e+00
1.04183543e+00
1.05026493e+00
1.04861132e+00
1.04032846e+00
1.04229569e+00
1.04797662e+00
1.04617153e+00
1.03705138e+00
1.04365969e+00
1.04794857e+00
1.04536940e+00
1.04079260e+00
1.04342086e+00
1.04202259e+00
1.03977647e+00
1.04417604e+00
1.04795684e+00
1.05003551e+00
1.04608387e+00
1.04642666e+00
1.04872264e+00
1.04918943e+00
1.04748595e+00
1.04760987e+00
1.04684874e+00
1.04649386e+00
1.05012901e+00
1.04748653e+00
1.04317511e+00
1.04691992e+00
1.04911657e+00
1.04908035e+00
1.04401320e+00
1.04352897e+00
1.04826762e+00
1.04967860e+00
1.04446251e+00
1.04276351e+00
1.04425282e+00
1.04512069e+00
1.04343775e+00
1.04342510e+00
1.04283281e+00
1.04398805e+00
1.04620698e+00
1.04442014e+00
1.04088578e+00
1.04205914e+00
1.03973814e+00
1.04408916e+00
1.04476057e+00
1.03783550e+00
1.04409610e+00
1.04084734e+00
1.04072010e+00
1.04335202e+00
1.03908583e+00
1.03765969e+00
1.04079911e+00
1.04236112e+00
1.04104319e+00
1.04139675e+00
1.03793070e+00
1.03863837e+00
1.03869724e+00
1.04091917e+00
1.03822560e+00
1.03662023e+00
1.04010593e+00
1.04009744e+00
1.03971278e+00
1.03834910e+00
1.03690821e+00
1.03984879e+00
1.03892122e+00
1.03862067e+00
1.03750845e+00
1.03486722e+00
1.03877611e+00
1.03494689e+00
1.03623848e+00
1.03896448e+00
1.03417437e+00
1.03514198e+00
1.03607040e+00
1.03666773e+00
1.03482684e+00
1.03235719e+00
1.03714064e+00
1.03348615e+00
1.03455055e+00
1.03367709e+00
1.03256876e+00
1.03350881e+00
1.03538174e+00
1.03420666e+00
1.03478424e+00
1.03250389e+00
1.03296683e+00
1.03545869e+00
1.03224877e+00
1.03173185e+00
1.03047985e+00
1.02946472e+00
1.03352950e+00
1.03054388e+00
1.02975481e+00
1.03075592e+00
1.03358852e+00
1.02976224e+00
1.03093559e+00
1.02711325e+00
1.03076211e+00
1.02909959e+00
1.02783216e+00
1.08585494e+00
1.06762725e+00
1.06749259e+00
1.06791756e+00
1.06635609e+00
1.07196835e+00
1.06742990e+00
1.05484546e+00
1.04526130e+00
1.04583979e+00
1.04837029e+00
1.05169190e+00
1.04443140e+00
1.03792158e+00
1.05057124e+00
1.05449057e+00
1.04239519e+00
1.03929534e+00
1.05226909e+00
1.04868394e+00
1.03434159e+00
1.03964786e+00
1.04804261e+00
1.04581590e+00
1.04222845e+00
1.04394843e+00
1.04459783e+00
1.04415301e+00
1.04571936e+00
1.04549089e+00
1.04522203e+00
1.04981673e+00
1.04689898e+00
1.04601365e+00
1.05089886e+00
1.04996995e+00
1.04580653e+00
1.04778219e+00
1.04838986e+00
1.04749497e+00
1.04426285e+00
1.04568846e+00
1.04759933e+00
1.04518380e+00
1.04414306e+00
1.04819990e+00
1.04744443e+00
1.04555778e+00
1.04500031e+00
1.04689088e+00
1.04731441e+00
1.04537249e+00
1.03908392e+00
1.04209950e+00
1.04648984e+00
1.04581040e+00
1.04473547e+00
1.04389186e+00
1.04099707e+00
1.04457804e+00
1.04280790e+00
1.04144920e+00
1.04061812e+00
1.04320359e+00
1.03963756e+00
1.04261242e+00
1.04477328e+00
1.03812832e+00
1.03922685e+00
1.04293773e+00
1.04128738e+00
1.03766947e+00
1.04079732e+00
1.04066536e+00
1.03996844e+00
1.04031209e+00
1.04114067e+00
1.03735028e+00
1.03969794e+00
1.03960944e+00
1.03804246e+00
1.03757691e+00
1.03858249e+00
1.03896809e+00
1.03984830e+00
1.03989630e+00
1.04008089e+00
1.03509840e+00
1.03572041e+00
1.03853987e+00
1.03633137e+00
1.03723301e+00
1.03326543e+00
1.03559980e+00
1.03988156e+00
1.03667083e+00
1.03817184e+00
1.03446455e+00
1.03507412e+00
1.03577463e+00
1.03390842e+00
1.03691038e+00
1.03201924e+00
1.03473373e+00
1.03549108e+00
1.03364104e+00
1.03419963e+00
1.03377484e+00
1.03486337e+00
1.03608314e+00
1.03212487e+00
1.03342428e+00
1.03499199e+00
1.03215176e+00
1.03114170e+00
1.03260583e+00
1.03045863e+00
1.03425402e+00
1.02841909e+00
1.02953482e+00
1.03277176e+00
1.03185732e+00
1.02996339e+00
1.03282079e+00
1.02844548e+00
1.02987657e+00
1.02805313e+00
1.02862888e+00
1.06751950e+00
1.06924192e+00
1.07186017e+00
1.06612247e+00
1.06843648e+00
1.06859516e+00
1.05672778e+00
1.05598050e+00
1.06204113e+00
1.05710797e+00
1.04537243e+00
1.04879606e+00
1.04969910e+00
1.04548038e+00
1.04628931e+00
1.05170946e+00
1.04984088e+00
1.04618788e+00
1.05081830e+00
1.04467620e+00
1.03903026e+00
1.04212128e+00
1.04892143e+00
1.04480139e+00
1.04542966e+00
1.05058375e+00
1.04716653e+00
1.04343751e+00
1.04612303e+00
1.04801180e+00
1.04387204e+00
1.04719421e+00
1.04871431e+00
1.05039868e+00
1.04854454e+00
1.04869507e+00
1.04872463e+00
1.05107096e+00
1.04547505e+00
1.04447306e+00
1.04604614e+00
1.04886424e+00
1.04839558e+00
1.04579386e+00
1.04310081e+00
1.04584756e+00
1.04528991e+00
1.04698151e+00
1.04704628e+00
1.04607839e+00
1.04208328e+00
1.04497361e+00
1.04468981e+00
1.04781683e+00
1.04666736e+00
1.04021930e+00
1.04111641e+00
1.04847907e+00
1.03994487e+00
1.04305388e+00
1.03981215e+00
1.04352657e+00
1.04423064e+00
1.04170714e+00
1.04007998e+00
1.03542403e+00
1.04259460e+00
1.04410408e+00
1.04058909e+00
1.03880850e+00
1.04005208e+00
1.03828269e+00
1.04124233e+00
1.04344360e+00
1.03913456e+00
1.03762346e+00
1.04015005e+00
1.04093513e+00
1.04069734e+00
1.03948241e+00
1.03808403e+00
1.03850871e+00
1.03957766e+00
1.03991942e+00
1.03710748e+00
1.03396710e+00
1.03847853e+00
1.03837018e+00
1.03744427e+00
1.03687938e+00
1.03503338e+00
1.03800410e+00
1.03544172e+00
1.03666729e+00
1.03775707e+00
1.03323945e+00
1.03712781e+00
1.03904523e+00
1.03665584e+00
1.03447402e+00
1.03262161e+00
1.03666158e+00
1.03422282e+00
1.03612458e+00
1.03514519e+00
1.03169812e+00
1.03527298e+00
1.03413874e+00
1.03131753e+00
1.03351655e+00
1.03058328e+00
1.03206189e+00
1.03446188e+00
1.03121015e+00
1.03386164e+00
1.03245052e+00
1.03137745e+00
1.03467615e+00
1.02886355e+00
1.02868213e+00
1.03253898e+00
1.03100699e+00
1.02790735e+00
1.02972408e+00
1.03121079e+00
1.03141647e+00
1.02790815e+00
1.02804533e+00
1.06166348e+00
1.06958469e+00
1.06410844e+00
1.07202636e+00
1.07170372e+00
1.05539069e+00
1.05115694e+00
1.06749325e+00
1.06848145e+00
1.05332358e+00
1.04885488e+00
1.05423005e+00
1.05289569e+00
1.04691707e+00
1.05212814e+00
1.05697478e+00
1.04924357e+00
1.04768752e+00
1.04592700e+00
1.04576333e+00
1.04949423e+00
1.04455887e+00
1.04673715e+00
1.04534036e+00
1.04934668e+00
1.05386632e+00
1.04847733e+00
1.04474037e+00
1.04726264e+00
1.04647781e+00
1.04490151e+00
1.04753007e+00
1.05048388e+00
1.04997561e+00
1.04767366e+00
1.04899692e+00
1.04951461e+00
1.04643179e+00
1.04286711e+00
1.04950824e+00
1.05171235e+00
1.04626468e+00
1.04318187e+00
1.04652804e+00
1.04836445e+00
1.04732207e+00
1.04389465e+00
1.04517783e+00
1.04425353e+00
1.04405597e+00
1.04466766e+00
1.04808089e+00
1.04383140e+00
1.04234878e+00
1.04538369e+00
1.04541724e+00
1.04223657e+00
1.04442034e+00
1.03753008e+00
1.04060297e+00
1.04669324e+00
1.04334235e+00
1.04070056e+00
1.03649757e+00
1.04001813e+00
1.04343074e+00
1.03913562e+00
1.03960141e+00
1.03949289e+00
1.04081851e+00
1.04218495e+00
1.04095616e+00
1.03743963e+00
1.03917706e+00
1.04144294e+00
1.04280565e+00
1.03920619e+00
1.03774771e+00
1.03843045e+00
1.03971776e+00
1.03931954e+00
1.04006930e+00
1.03532528e+00
1.03622932e+00
1.03920828e+00
1.03870040e+00
1.03766713e+00
1.03517038e+00
1.03533013e+00
1.03887508e+00
1.03793987e+00
1.03869675e+00
1.03373614e+00
1.03493927e+00
1.03809854e+00
1.03579865e+00
1.03720811e+00
1.03499805e+00
1.03340947e+00
1.03551881e+00
1.03671179e+00
1.03785547e+00
1.03239891e+00
1.03571136e+00
1.03605557e+00
1.03384761e+00
1.03594630e+00
1.03292005e+00
1.03139088e+00
1.03306932e+00
1.03360199e+00
1.03108178e+00
1.03350331e+00
1.03009675e+00
1.03613935e+00
1.03341763e+00
1.03035891e+00
1.03270482e+00
1.03003088e+00
1.03092508e+00
1.03156598e+00
1.02973663e+00
1.02992141e+00
1.03003080e+00
1.02808785e+00
1.03274276e+00
1.02890120e+00
1.02743172e+00
1.06956392e+00
1.05922722e+00
1.06090184e+00
1.08186098e+00
1.06711162e+00
1.04570303e+00
1.05553692e+00
1.07203701e+00
1.06718249e+00
1.05484647e+00
1.04503881e+00
1.05436167e+00
1.05849037e+00
1.05006092e+00
1.05670109e+00
1.05507301e+00
1.04371352e+00
1.04957684e+00
1.05419619e+00
1.04902418e+00
1.04298993e+00
1.04825107e+00
1.05416460e+00
1.04835189e+00
1.04998807e+00
1.05026664e+00
1.04577600e+00
1.04760179e+00
1.04901458e+00
1.04560861e+00
1.04578601e+00
1.04998832e+00
1.04976323e+00
1.04934518e+00
1.05060702e+00
1.04585000e+00
1.04450653e+00
1.04824141e+00
1.04899428e+00
1.04757209e+00
1.04422178e+00
1.04218897e+00
1.04817626e+00
1.04865071e+00
1.04754214e+00
1.04517830e+00
1.04483651e+00
1.04603757e+00
1.04645259e+00
1.04118687e+00
1.04052656e+00
1.04478937e+00
1.04671742e+00
1.04649489e+00
1.04403133e+00
1.04283605e+00
1.04238055e+00
1.04280051e+00
1.04496915e+00
1.03982961e+00
1.04184026e+00
1.04015300e+00
1.04495546e+00
1.04404943e+00
1.03815547e+00
1.04156253e+00
1.03813399e+00
1.04034410e+00
1.04231209e+00
1.04177355e+00
1.03591971e+00
1.03950468e+00
1.04449172e+00
1.04213780e+00
1.03800558e+00
1.03912824e+00
1.03993808e+00
1.03968649e+00
1.03972395e+00
1.03752985e+00
1.03430847e+00
1.03950004e+00
1.03877328e+00
1.03866997e+00
1.03677025e+00
1.03659159e+00
1.03742682e+00
1.03898913e+00
1.03792091e+00
1.03758842e+00
1.03364866e+00
1.03767497e+00
1.03754878e+00
1.03797459e+00
1.03599241e+00
1.02990044e+00
1.03644971e+00
1.03745321e+00
1.03381264e+00
1.03347654e+00
1.03403055e+00
1.03638325e+00
1.03335705e+00
1.03703400e+00
1.03644148e+00
1.03118881e+00
1.03458642e+00
1.03323610e+00
1.03365584e+00
1.03153339e+00
1.03270533e+00
1.03336322e+00
1.03435971e+00
1.02870787e+00
1.03285893e+00
1.03275560e+00
1.03062687e+00
1.03164552e+00
1.02941381e+00
1.03236139e+00
1.03080997e+00
1.02796603e+00
1.02816502e+00
1.03271956e+00
1.02795842e+00
1.02857125e+00
1.02834129e+00
1.02882329e+00
1.06958383e+00
1.06441154e+00
1.06792696e+00
1.06814875e+00
1.05640727e+00
1.05737886e+00
1.06389985e+00
1.06486964e+00
1.06309590e+00
1.05590277e+00
1.04948582e+00
1.05775744e+00
1.05269442e+00
1.05047574e+00
1.05222173e+00
1.05503668e+00
1.05742249e+00
1.04840258e+00
1.04600986e+00
1.04911755e+00
1.04441329e+00
1.05544234e+00
1.05251779e+00
1.04332791e+00
1.05198415e+00
1.05468467e+00
1.04524189e+00
1.04230243e+00
1.04869622e+00
1.04995496e+00
1.04751401e+00
1.05025301e+00
1.04992795e+00
1.04651664e+00
1.04665897e+00
1.04901769e+00
1.04933068e+00
1.05086735e+00
1.04574090e+00
1.04399650e+00
1.04523763e+00
1.04795146e+00
1.05009843e+00
1.04252277e+00
1.04048317e+00
1.04904439e+00
1.04972788e+00
1.04454090e+00
1.04531640e+00
1.04313515e+00
1.04431991e+00
1.04726462e+00
1.04104717e+00
1.04066809e+00
1.04467396e+00
1.04398387e+00
1.04700364e+00
1.04209634e+00
1.03893306e+00
1.04155657e+00
1.04347079e+00
1.04352351e+00
1.03876316e+00
1.04100100e+00
1.04200006e+00
1.04096139e+00
1.04272644e+00
1.04016480e+00
1.03716088e+00
1.04184388e+00
1.04276267e+00
1.03898204e+00
1.03867196e+00
1.03859835e+00
1.03874122e+00
1.04209364e+00
1.04231610e+00
1.03724296e+00
1.03551792e+00
1.03923984e+00
1.03938004e+00
1.03881794e+00
1.03553437e+00
1.03874230e+00
1.03968302e+00
1.03914135e+00
1.03793506e+00
1.03494420e+00
1.03477408e+00
1.03972886e+00
1.03711917e+00
1.03893916e+00
1.03594516e+00
1.03470485e+00
1.03504470e+00
1.03384317e+00
1.03824958e+00
1.03295910e+00
1.03221981e+00
1.03643716e+00
1.03658535e+00
1.03496776e+00
1.03005079e+00
1.03362494e+00
1.03542766e+00
1.03331585e+00
1.03630524e+00
1.03317136e+00
1.03279666e+00
1.03501399e+00
1.03466190e+00
1.03294565e+00
1.03261647e+00
1.03065004e+00
1.03291721e+00
1.03288064e+00
1.02972850e+00
1.03335716e+00
1.02917309e+00
1.03286759e+00
1.03244349e+00
1.02887824e+00
1.02815221e+00
1.03087789e+00
1.02982836e+00
1.03004402e+00
1.02606508e+00
1.02825468e+00
1.05353396e+00
1.06078846e+00
1.07488743e+00
1.06734853e+00
1.05424873e+00
1.05963724e+00
1.06122860e+00
1.06446157e+00
1.06103140e+00
1.05189977e+00
1.05913893e+00
1.06226783e+00
1.04721507e+00
1.04885116e+00
1.05895983e+00
1.06030691e+00
1.05501543e+00
1.04720349e+00
1.05307145e+00
1.05033839e+00
1.04224057e+00
1.05264031e+00
1.05035404e+00
1.04943155e+00
1.05612288e+00
1.04917218e+00
1.04408260e+00
1.04830819e+00
1.05264341e+00
1.04616503e+00
1.04391257e+00
1.04998590e+00
1.05092951e+00
1.04946816e+00
1.04725460e+00
1.04793909e+00
1.04955769e+00
1.04967089e+00
1.04390959e+00
1.04600049e+00
1.04970785e+00
1.04391465e+00
1.04251229e+00
1.04471762e+00
1.04602130e+00
1.04870597e+00
1.04499642e+00
1.04310980e+00
1.04679070e+00
1.04717171e+00
1.04242617e+00
1.04518670e+00
1.03995454e+00
1.04191350e+00
1.04735886e+00
1.04124087e+00
1.04168900e+00
1.04539179e+00
1.04064381e+00
1.04459174e+00
1.03965195e+00
1.04023133e+00
1.03992800e+00
1.04152415e+00
1.04476943e+00
1.03705068e+00
1.03774434e+00
1.04414682e+00
1.04298626e+00
1.03872905e+00
1.03966023e+00
1.03918362e+00
1.04059864e+00
1.04359275e+00
1.03951268e+00
1.03652512e+00
1.03810727e+00
1.04057572e+00
1.03908191e+00
1.03853064e+00
1.03737524e+00
1.03809812e+00
1.03646821e+00
1.03999175e+00
1.03845797e+00
1.03313636e+00
1.03578778e+00
1.03916712e+00
1.03821223e+00
1.03672738e+00
1.03276496e+00
1.03626100e+00
1.03679663e+00
1.03849651e+00
1.03622383e+00
1.03196342e+00
1.03827482e+00
1.03540089e+00
1.03620056e+00
1.03866571e+00
1.03323742e+00
1.03500222e+00
1.03205141e+00
1.03720002e+00
1.03359210e+00
1.03027269e+00
1.03424073e+00
1.03475696e+00
1.03248065e+00
1.03334050e+00
1.03441495e+00
1.03417344e+00
1.03259727e+00
1.03145258e+00
1.03355070e+00
1.03167014e+00
1.02744890e+00
1.03382045e+00
1.03080305e+00
1.03083367e+00
1.02942690e+00
1.02902896e+00
1.03052079e+00
1.03146544e+00
1.02668586e+00
1.03045181e+00
1.02742778e+00
1.02674585e+00
1.05970919e+00
1.06768861e+00
1.06659783e+00
1.06446580e+00
1.05890313e+00
1.05753006e+00
1.06221555e+00
1.06909815e+00
1.05474263e+00
1.05061492e+00
1.06664922e+00
1.06556077e+00
1.04336288e+00
1.04320336e+00
1.06376376e+00
1.06400634e+00
1.04773458e+00
1.05324073e+00
1.05894394e+00
1.04182824e+00
1.04444844e+00
1.05804393e+00
1.04571051e+00
1.04840049e+00
1.05663682e+00
1.05055393e+00
1.04833645e+00
1.05008046e+00
1.04866330e+00
1.04185384e+00
1.04710258e+00
1.05245416e+00
1.04682722e+00
1.04984553e+00
1.05455566e+00
1.05014674e+00
1.04560286e+00
1.04610708e+00
1.04523965e+00
1.04947220e+00
1.04912239e+00
1.04041713e+00
1.04549023e+00
1.04899538e+00
1.04650290e+00
1.04400799e+00
1.04264520e+00
1.04295112e+00
1.04655542e+00
1.04876152e+00
1.04173856e+00
1.04585576e+00
1.04493888e+00
1.04069538e+00
1.04331896e+00
1.04365058e+00
1.04042328e+00
1.04437865e+00
1.04198664e+00
1.04131228e+00
1.04281387e+00
1.04086800e+00
1.04370806e+00
1.03637632e+00
1.03827198e+00
1.04407515e+00
1.04014763e+00
1.04155140e+00
1.04069735e+00
1.03735837e+00
1.04054154e+00
1.04320001e+00
1.03862139e+00
1.03702956e+00
1.04024363e+00
1.04271515e+00
1.04080285e+00
1.03836865e+00
1.03807299e+00
1.03826795e+00
1.03804144e+00
1.03834534e+00
1.03541739e+00
1.03664592e+00
1.04014440e+00
1.03905955e+00
1.03786216e+00
1.03537949e+00
1.03419711e+00
1.03631614e+00
1.03538675e+00
1.03870923e+00
1.03410955e+00
1.03502511e+00
1.03680726e+00
1.03731994e+00
1.03897279e+00
1.03282463e+00
1.03189779e+00
1.03863659e+00
1.03496472e+00
1.03753662e+00
1.02985985e+00
1.03445087e+00
1.03404284e+00
1.03312831e+00
1.03486705e+00
1.03309234e+00
1.03249076e+00
1.03328479e+00
1.03205957e+00
1.03192502e+00
1.03375895e+00
1.03156886e+00
1.03327255e+00
1.03255470e+00
1.02937965e+00
1.03230639e+00
1.02923073e+00
1.03351269e+00
1.03094701e+00
1.02844320e+00
1.03158078e+00
1.03303451e+00
1.02643609e+00
1.03005651e+00
1.03010756e+00
1.03003208e+00
1.06967619e+00
1.07058773e+00
1.06185924e+00
1.06450181e+00
1.05848710e+00
1.05571283e+00
1.06490857e+00
1.06773943e+00
1.05418817e+00
1.05753251e+00
1.06474671e+00
1.05511394e+00
1.04755813e+00
1.05501799e+00
1.06110741e+00
1.05519015e+00
1.04842029e+00
1.05990557e+00
1.05682854e+00
1.04481368e+00
1.04907707e+00
1.05240692e+00
1.04532716e+00
1.05153210e+00
1.06016461e+00
1.05210345e+00
1.04380790e+00
1.05116443e+00
1.05042550e+00
1.04358840e+00
1.04825295e+00
1.05287420e+00
1.04577067e+00
1.04852530e+00
1.05434121e+00
1.04963376e+00
1.04481657e+00
1.04798016e+00
1.04800354e+00
1.04554351e+00
1.04350510e+00
1.04420201e+00
1.05285886e+00
1.04740361e+00
1.04115241e+00
1.04507167e+00
1.04787273e+00
1.04444513e+00
1.04194737e+00
1.04393131e+00
1.04124847e+00
1.04522220e+00
1.04685815e+00
1.04309906e+00
1.04290488e+00
1.04433239e+00
1.04351379e+00
1.04040690e+00
1.04270891e+00
1.04172346e+00
1.04261252e+00
1.03940099e+00
1.04325672e+00
1.04147996e+00
1.03732388e+00
1.04137176e+00
1.03901548e+00
1.04041817e+00
1.03938437e+00
1.03986340e+00
1.03846548e+00
1.03844334e+00
1.04146509e+00
1.04060075e+00
1.03828344e+00
1.03799352e+00
1.03784290e+00
1.03804099e+00
1.04057090e+00
1.04023042e+00
1.03559705e+00
1.03600089e+00
1.03897999e+00
1.04013475e+00
1.03684885e+00
1.03530133e+00
1.03645049e+00
1.04025432e+00
1.03842384e+00
1.03914297e+00
1.03346074e+00
1.03552482e+00
1.03561536e+00
1.03795332e+00
1.03596137e+00
1.03434053e+00
1.03702315e+00
1.03343093e+00
1.03585524e+00
1.03644403e+00
1.02983178e+00
1.03544309e+00
1.03261636e+00
1.03651271e+00
1.03530088e+00
1.03173501e+00
1.03476832e+00
1.03223299e+00
1.03420911e+00
1.03369559e+00
1.02975260e+00
1.03025552e+00
1.03489753e+00
1.03322202e+00
1.03277518e+00
1.03098702e+00
1.03137055e+00
1.03422801e+00
1.02700423e+00
1.03104535e+00
1.03073274e+00
1.02893471e+00
1.03011850e+00
1.03099389e+00
1.02771159e+00
1.02997840e+00
1.02848283e+00
1.03031515e+00
1.06448739e+00
1.06372461e+00
1.07089601e+00
1.06213528e+00
1.04999981e+00
1.05963356e+00
1.07282257e+00
1.06405594e+00
1.04986662e+00
1.05869638e+00
1.06388413e+00
1.05514620e+00
1.05117943e+00
1.05748929e+00
1.05572422e+00
1.05320143e+00
1.05682980e+00
1.05637641e+00
1.05274946e+00
1.05185485e+00
1.04743033e+00
1.05107551e+00
1.05142356e+00
1.05138717e+00
1.05545523e+00
1.05101681e+00
1.04314551e+00
1.05407339e+00
1.05265485e+00
1.04149871e+00
1.04906726e+00
1.05403142e+00
1.04763399e+00
1.04908149e+00
1.05087869e+00
1.04821641e+00
1.04620332e+00
1.04879272e+00
1.04392913e+00
1.04427297e+00
1.05005077e+00
1.04383419e+00
1.04560640e+00
1.04654699e+00
1.04386025e+00
1.04889334e+00
1.04810889e+00
1.04038618e+00
1.04156018e+00
1.04693087e+00
1.04409856e+00
1.04363639e+00
1.04225890e+00
1.04270414e+00
1.04625404e+00
1.04161242e+00
1.04364053e+00
1.04010462e+00
1.04116039e+00
1.04471484e+00
1.03928799e+00
1.04140424e+00
1.03966743e+00
1.04117604e+00
1.04082224e+00
1.03771669e+00
1.03833967e+00
1.04395566e+00
1.03792551e+00
1.03864834e+00
1.04245390e+00
1.03908316e+00
1.03946043e+00
1.04020189e+00
1.03886027e+00
1.04004339e+00
1.04091886e+00
1.03948387e+00
1.03590073e+00
1.03828487e+00
1.03845266e+00
1.03770447e+00
1.03782136e+00
1.03734676e+00
1.03810857e+00
1.03904641e+00
1.03912101e+00
1.03663103e+00
1.03331480e+00
1.03582942e+00
1.03808110e+00
1.03834362e+00
1.03512120e+00
1.03336163e+00
1.03537181e+00
1.03594424e+00
1.03842243e+00
1.03086590e+00
1.03475052e+00
1.03611481e+00
1.03136736e+00
1.03614651e+00
1.03352409e+00
1.03334846e+00
1.03235686e+00
1.03261423e+00
1.03811793e+00
1.03282502e+00
1.03179384e+00
1.03301385e+00
1.03138594e+00
1.03064530e+00
1.03368897e+00
1.03173628e+00
1.03416323e+00
1.03069083e+00
1.03056154e+00
1.03596752e+00
1.02956825e+00
1.02924502e+00
1.02771788e+00
1.02985924e+00
1.03204177e+00
1.02914080e+00
1.02585413e+00
1.03260292e+00
1.02824099e+00
1.02771625e+00
1.05303891e+00
1.05653085e+00
1.07389071e+00
1.06473085e+00
1.05223397e+00
1.05627101e+00
1.06661826e+00
1.06266434e+00
1.05586582e+00
1.05668912e+00
1.05851943e+00
1.05750241e+00
1.05171841e+00
1.05563520e+00
1.05623709e+00
1.05210916e+00
1.05882110e+00
1.05799396e+00
1.05084495e+00
1.04434087e+00
1.04928319e+00
1.05767859e+00
1.05181815e+00
1.05211266e+00
1.05362345e+00
1.05013099e+00
1.04686631e+00
1.05480669e+00
1.04742459e+00
1.03980131e+00
1.05595870e+00
1.05414452e+00
1.04572336e+00
1.04959615e+00
1.05388279e+00
1.04575953e+00
1.04453116e+00
1.05011396e+00
1.04545727e+00
1.04800379e+00
1.05099141e+00
1.04089915e+00
1.04277477e+00
1.04797057e+00
1.04375978e+00
1.04373667e+00
1.04471710e+00
1.04534390e+00
1.04796098e+00
1.04464227e+00
1.03845779e+00
1.04262093e+00
1.04342484e+00
1.04233821e+00
1.04542767e+00
1.04122085e+00
1.04311534e+00
1.04498559e+00
1.03780218e+00
1.03945356e+00
1.03541214e+00
1.04424207e+00
1.04382455e+00
1.03616990e+00
1.04008730e+00
1.04145272e+00
1.03797180e+00
1.04312484e+00
1.03965339e+00
1.03741630e+00
1.04278838e+00
1.04070861e+00
1.03929121e+00
1.03993647e+00
1.04075599e+00
1.03919098e+00
1.03661578e+00
1.03903129e+00
1.03659121e+00
1.03703136e+00
1.03892454e+00
1.03914838e+00
1.03940749e+00
1.03757503e+00
1.03760491e+00
1.03368917e+00
1.03741682e+00
1.03772023e+00
1.03650861e+00
1.03634853e+00
1.03663082e+00
1.03522898e+00
1.03658631e+00
1.03683691e+00
1.03697157e+00
1.03281018e+00
1.03676116e+00
1.03391408e+00
1.03761149e+00
1.03506590e+00
1.03068917e+00
1.03625124e+00
1.03302206e+00
1.03508238e+00
1.03456483e+00
1.03230897e+00
1.03550880e+00
1.03236870e+00
1.03474259e+00
1.03271733e+00
1.03117966e+00
1.03312736e+00
1.03558900e+00
1.02986582e+00
1.03219085e+00
1.03160567e+00
1.03087608e+00
1.03311819e+00
1.02870547e+00
1.03188480e+00
1.02842334e+00
1.02825519e+00
1.03250751e+00
1.03122982e+00
1.02526207e+00
1.02863685e+00
1.02878773e+00
1.02706670e+00
1.04875534e+00
1.06657963e+00
1.06926747e+00
1.06033786e+00
1.05663921e+00
1.05634931e+00
1.05919610e+00
1.05895668e+00
1.05785287e+00
1.06028117e+00
1.06224478e+00
1.05816372e+00
1.05184373e+00
1.05694073e+00
1.05966416e+00
1.05297172e+00
1.05387241e+00
1.05889649e+00
1.05021198e+00
1.04358766e+00
1.05637832e+00
1.05989983e+00
1.04687085e+00
1.05010754e+00
1.05987284e+00
1.05186168e+00
1.04400795e+00
1.05477895e+00
1.04755806e+00
1.04367081e+00
1.05312927e+00
1.05147169e+00
1.04692636e+00
1.05265215e+00
1.05515443e+00
1.04431295e+00
1.04375818e+00
1.05172052e+00
1.04848293e+00
1.04399856e+00
1.04658024e+00
1.04395548e+00
1.04900609e+00
1.04703313e+00
1.04179554e+00
1.04203185e+00
1.04600847e+00
1.04690063e+00
1.04570452e+00
1.04404970e+00
1.04083810e+00
1.04268109e+00
1.04355864e+00
1.04130608e+00
1.04225248e+00
1.04660972e+00
1.04257567e+00
1.04080101e+00
1.04082515e+00
1.04466574e+00
1.04031152e+00
1.03787212e+00
1.04165578e+00
1.03687830e+00
1.04030197e+00