# vtk DataFile Version 2.0
LBM Flow Field - Timestep 320
ASCII
DATASET STRUCTURED_POINTS
DIMENSIONS 128 128 1
ORIGIN 0.0 0.0 0.0
SPACING 1.0 1.0 1.0
POINT_DATA 16384
SCALARS density double 1
LOOKUP_TABLE default
1.31515476e+00
1.29686530e+00
1.27490753e+00
1.25380102e+00
1.23257578e+00
1.21278460e+00
1.19285447e+00
1.17478662e+00
1.15661311e+00
1.14054874e+00
1.12446164e+00
1.11054595e+00
1.09672865e+00
1.08497968e+00
1.07347078e+00
1.06379882e+00
1.05450836e+00
1.04674258e+00
1.03947898e+00
1.03339650e+00
1.02789963e+00
1.02325281e+00
1.01922808e+00
1.01576715e+00
1.01291636e+00
1.01040592e+00
1.00845167e+00
1.00668109e+00
1.00538301e+00
1.00417158e+00
1.00333433e+00
1.00253253e+00
1.00200650e+00
1.00149482e+00
1.00117165e+00
1.00085789e+00
1.00066302e+00
1.00047874e+00
1.00036315e+00
1.00025974e+00
1.00019232e+00
1.00013692e+00
1.00009841e+00
1.00007005e+00
1.00004866e+00
1.00003470e+00
1.00002327e+00
1.00001661e+00
1.00001078e+00
1.00000765e+00
1.00000484e+00
1.00000338e+00
1.00000211e+00
1.00000143e+00
1.00000090e+00
1.00000058e+00
1.00000037e+00
1.00000022e+00
1.00000014e+00
1.00000008e+00
1.00000005e+00
1.00000003e+00
1.00000002e+00
1.00000001e+00
1.00000001e+00
1.00000000e+00
1.00000000e+00
1.00000000e+00
1.00000000e+00
1.00000000e+00
1.00000000e+00
1.00000000e+00
1.00000000e+00
1.00000000e+00
1.00000000e+00
1.00000000e+00
1.00000000e+00
1.00000000e+00
1.00000000e+00
1.00000000e+00
1.00000000e+00
1.00000000e+00
1.00000000e+00
1.00000000e+00
1.00000000e+00
1.00000000e+00
1.00000000e+00
1.00000000e+00
1.00000000e+00
1.00000000e+00
1.00000000e+00
1.00000000e+00
1.00000000e+00
1.00000000e+00
1.00000000e+00
1.00000000e+00
1.00000000e+00
1.00000000e+00
1.00000000e+00
1.00000000e+00
1.00000000e+00
1.00000000e+00
1.00000000e+00
1.00000000e+00
1.00000000e+00
1.00000000e+00
1.00000000e+00
1.00000000e+00
1.00000000e+00
1.00000000e+00
1.00000000e+00
1.00000000e+00
1.00000000e+00
1.00000000e+00
1.00000000e+00
1.00000000e+00
1.00000000e+00
1.00000000e+00
1.00000000e+00
1.00000000e+00
1.00000000e+00
1.00000000e+00
1.00000000e+00
1.00000000e+00
1.00000000e+00
1.00000000e+00
1.00000000e+00
1.00000000e+00
1.12400910e+00
1.10581575e+00
1.08543211e+00
1.08335707e+00
1.08315988e+00
1.07201145e+00
1.07060237e+00
1.07205397e+00
1.06697032e+00
1.06772272e+00
1.06854248e+00
1.07108041e+00
1.07144851e+00
1.07103738e+00
1.06999037e+00
1.06910706e+00
1.06629529e+00
1.07341369e+00
1.07950258e+00
1.08168312e+00
1.07894944e+00
1.08128251e+00
1.07619464e+00
1.07725345e+00
1.07738045e+00
1.07974928e+00
1.07967558e+00
1.08203149e+00
1.08063800e+00
1.08013613e+00
1.07961643e+00
1.08069631e+00
1.07477898e+00
1.07880179e+00
1.07789884e+00
1.07968392e+00
1.07498933e+00
1.07816795e+00
1.08419257e+00
1.07877467e+00
1.07860644e+00
1.08105743e+00
1.07795914e+00
1.08021060e+00
1.07586847e+00
1.07983341e+00
1.08135310e+00
1.07990140e+00
1.08061160e+00
1.07773248e+00
1.07904121e+00
1.07941115e+00
1.07691452e+00
1.08019933e+00
1.07869961e+00
1.07985590e+00
1.08029203e+00
1.07879439e+00
1.08094355e+00
1.07868204e+00
1.07731844e+00
1.08268062e+00
1.07815834e+00
1.07786579e+00
1.07818577e+00
1.07804127e+00
1.08045796e+00
1.07586128e+00
1.07944114e+00
1.08001254e+00
1.07474167e+00
1.07436736e+00
1.07272021e+00
1.07016782e+00
1.06824555e+00
1.06979630e+00
1.06988762e+00
1.06963299e+00
1.07195642e+00
1.06763046e+00
1.06323267e+00
1.06215249e+00
1.06547539e+00
1.06737263e+00
1.06672813e+00
1.06716675e+00
1.06635926e+00
1.06434949e+00
1.06667583e+00
1.06414521e+00
1.05744724e+00
1.05990599e+00
1.06160478e+00
1.05900152e+00
1.05537151e+00
1.05556595e+00
1.05755975e+00
1.05435905e+00
1.05370501e+00
1.05192822e+00
1.05379778e+00
1.05051195e+00
1.05113085e+00
1.05344519e+00
1.05167080e+00
1.05158759e+00
1.05210841e+00
1.05085531e+00
1.05100652e+00
1.04972155e+00
1.05086562e+00
1.04893239e+00
1.04798886e+00
1.04905637e+00
1.04854969e+00
1.04827944e+00
1.04866421e+00
1.04742052e+00
1.04752377e+00
1.04790131e+00
1.04604389e+00
1.04597106e+00
1.04606743e+00
1.04541308e+00
1.04473658e+00
1.04620348e+00
1.04512361e+00
1.04569525e+00
1.10454770e+00
1.09959449e+00
1.09338515e+00
1.08627288e+00
1.07674531e+00
1.07558523e+00
1.07682850e+00
1.07005828e+00
1.06756888e+00
1.07032013e+00
1.06813478e+00
1.07373741e+00
1.07226568e+00
1.07313053e+00
1.06664810e+00
1.06708492e+00
1.07255323e+00
1.07459033e+00
1.07674523e+00
1.08183900e+00
1.07842182e+00
1.07708477e+00
1.07362904e+00
1.07716786e+00
1.07298888e+00
1.07777399e+00
1.07981693e+00
1.08277787e+00
1.08300450e+00
1.07943604e+00
1.07828928e+00
1.08599459e+00
1.08231494e+00
1.08304329e+00
1.07610978e+00
1.07841077e+00
1.07710520e+00
1.07820048e+00
1.08179362e+00
1.07620926e+00
1.07852670e+00
1.08514315e+00
1.07929037e+00
1.07875696e+00
1.07601764e+00
1.08061092e+00
1.07838937e+00
1.08007241e+00
1.08172554e+00
1.07658621e+00
1.07772748e+00
1.08186479e+00
1.08037842e+00
1.08145399e+00
1.07679291e+00
1.07860697e+00
1.08164176e+00
1.08072345e+00
1.07548432e+00
1.08063321e+00
1.08090797e+00
1.08307615e+00
1.07792574e+00
1.07787721e+00
1.07963083e+00
1.07581354e+00
1.08009465e+00
1.07765764e+00
1.07484508e+00
1.08066149e+00
1.07610866e+00
1.07207401e+00
1.07014397e+00
1.06820330e+00
1.06686024e+00
1.06683962e+00
1.07105397e+00
1.07370332e+00
1.07088197e+00
1.06778463e+00
1.06057780e+00
1.05910634e+00
1.06601758e+00
1.06976682e+00
1.06751172e+00
1.06433396e+00
1.06464531e+00
1.06626996e+00
1.06952984e+00
1.06423354e+00
1.05764850e+00
1.05967427e+00
1.06332024e+00
1.05818201e+00
1.05202410e+00
1.05358896e+00
1.06025775e+00
1.05436328e+00
1.05219751e+00
1.05458611e+00
1.05433663e+00
1.05077983e+00
1.05023747e+00
1.05386756e+00
1.05130979e+00
1.04925779e+00
1.05091042e+00
1.04963930e+00
1.05152071e+00
1.05110311e+00
1.04929656e+00
1.04986301e+00
1.04927461e+00
1.04843102e+00
1.04797473e+00
1.04901943e+00
1.04807657e+00
1.04632306e+00
1.04676302e+00
1.04837614e+00
1.04632802e+00
1.04787079e+00
1.04793223e+00
1.04378907e+00
1.04403426e+00
1.04433138e+00
1.04254602e+00
1.04471619e+00
1.09181368e+00
1.09812408e+00
1.09392278e+00
1.08312853e+00
1.07869412e+00
1.08290181e+00
1.07488691e+00
1.06449429e+00
1.06972878e+00
1.07165651e+00
1.07032825e+00
1.06921993e+00
1.07290779e+00
1.07113096e+00
1.07137038e+00
1.07106860e+00
1.07398877e+00
1.07623727e+00
1.07750773e+00
1.07929200e+00
1.08147337e+00
1.07767610e+00
1.07862829e+00
1.07380764e+00
1.07825497e+00
1.08028914e+00
1.07759881e+00
1.07570180e+00
1.07965700e+00
1.07582531e+00
1.07949789e+00
1.08337494e+00
1.08019197e+00
1.08121280e+00
1.07739748e+00
1.08073070e+00
1.08004483e+00
1.07531295e+00
1.07869733e+00
1.07775623e+00
1.08284166e+00
1.08169457e+00
1.07615817e+00
1.08101155e+00
1.07830398e+00
1.08323823e+00
1.07761722e+00
1.08013642e+00
1.08244356e+00
1.07589210e+00
1.08047177e+00
1.08420865e+00
1.07854562e+00
1.08184734e+00
1.07938813e+00
1.08314509e+00
1.08033745e+00
1.07996208e+00
1.07975837e+00
1.07973324e+00
1.08192148e+00
1.08273353e+00
1.07801617e+00
1.07919680e+00
1.08127158e+00
1.07697555e+00
1.07723311e+00
1.07836898e+00
1.07637993e+00
1.07909611e+00
1.07660246e+00
1.07304012e+00
1.06833868e+00
1.06713284e+00
1.06713859e+00
1.06673698e+00
1.07097657e+00
1.07687340e+00
1.07049137e+00
1.06577680e+00
1.06130769e+00
1.06012422e+00
1.06659953e+00
1.07094222e+00
1.06704214e+00
1.06053454e+00
1.05986591e+00
1.07035329e+00
1.07552865e+00
1.06190604e+00
1.05255940e+00
1.06178492e+00
1.06734482e+00
1.05878867e+00
1.04912497e+00
1.05309737e+00
1.05898164e+00
1.05384491e+00
1.04859848e+00
1.05616027e+00
1.05787191e+00
1.04963905e+00
1.04875351e+00
1.05456556e+00
1.05128947e+00
1.04914830e+00
1.04849216e+00
1.05134798e+00
1.04967489e+00
1.04956919e+00
1.05160464e+00
1.04991745e+00
1.04877422e+00
1.04884641e+00
1.04713913e+00
1.04837218e+00
1.04605255e+00
1.04676665e+00
1.04739766e+00
1.04796329e+00
1.04759848e+00
1.04885505e+00
1.04702052e+00
1.04285938e+00
1.04464774e+00
1.04417915e+00
1.04106910e+00
1.04408321e+00
1.09363361e+00
1.09028003e+00
1.08650287e+00
1.08967739e+00
1.08749439e+00
1.07732713e+00
1.07035481e+00
1.07374499e+00
1.07775935e+00
1.06764806e+00
1.07463540e+00
1.07551882e+00
1.07464588e+00
1.06875492e+00
1.07629031e+00
1.07307996e+00
1.07887055e+00
1.07770990e+00
1.07888323e+00
1.07487527e+00
1.07867706e+00
1.07859624e+00
1.08146945e+00
1.07730443e+00
1.08649492e+00
1.07678330e+00
1.08020904e+00
1.07957852e+00
1.08041772e+00
1.07294437e+00
1.08031805e+00
1.07938285e+00
1.07715156e+00
1.07833257e+00
1.07918405e+00
1.07965572e+00
1.08377484e+00
1.08072732e+00
1.08195296e+00
1.07512535e+00
1.08102318e+00
1.07953399e+00
1.08073216e+00
1.08280335e+00
1.07719932e+00
1.08242274e+00
1.08318592e+00
1.08212676e+00
1.08319108e+00
1.07618252e+00
1.08321442e+00
1.08411532e+00
1.07819790e+00
1.08181999e+00
1.08073455e+00
1.08333608e+00
1.08280845e+00
1.08067135e+00
1.08479604e+00
1.07805784e+00
1.07866001e+00
1.08318844e+00
1.08050378e+00
1.07852808e+00
1.07955515e+00
1.08102588e+00
1.07955743e+00
1.07853613e+00
1.07744277e+00
1.07814669e+00
1.07557755e+00
1.07726676e+00
1.06981038e+00
1.06764807e+00
1.06527837e+00
1.07056581e+00
1.07125655e+00
1.07640833e+00
1.07138450e+00
1.06673075e+00
1.06035934e+00
1.06231530e+00
1.06746835e+00
1.07217548e+00
1.06446790e+00
1.06093649e+00
1.06177932e+00
1.07248198e+00
1.07544287e+00
1.06101083e+00
1.05054445e+00
1.06393388e+00
1.06964024e+00
1.05668359e+00
1.04675468e+00
1.05590913e+00
1.06291127e+00
1.05253111e+00
1.04522084e+00
1.05500316e+00
1.05816900e+00
1.05024913e+00
1.04571242e+00
1.05585134e+00
1.05311009e+00
1.04890844e+00
1.05121409e+00
1.05185084e+00
1.04975189e+00
1.04686093e+00
1.04980298e+00
1.05052726e+00
1.04781300e+00
1.04933445e+00
1.04861352e+00
1.04848865e+00
1.04625096e+00
1.04614605e+00
1.04746290e+00
1.04743291e+00
1.04532391e+00
1.04761258e+00
1.04776913e+00
1.04540228e+00
1.04501601e+00
1.04448384e+00
1.04110866e+00
1.04382900e+00
1.09536957e+00
1.09253334e+00
1.08813431e+00
1.08578127e+00
1.07854143e+00
1.07995843e+00
1.08013677e+00
1.07691204e+00
1.07648525e+00
1.07440783e+00
1.07948737e+00
1.07197358e+00
1.07476553e+00
1.07453342e+00
1.07666789e+00
1.07926042e+00
1.07812036e+00
1.07433904e+00
1.07924403e+00
1.07640089e+00
1.07939209e+00
1.07526238e+00
1.07603166e+00
1.07711538e+00
1.08260296e+00
1.07961430e+00
1.07975474e+00
1.08073133e+00
1.08358458e+00
1.07946411e+00
1.08039840e+00
1.07951826e+00
1.07555167e+00
1.07607400e+00
1.08172916e+00
1.08245423e+00
1.08160457e+00
1.08030699e+00
1.08187522e+00
1.07710658e+00
1.08438241e+00
1.08053184e+00
1.07915580e+00
1.07919645e+00
1.08005719e+00
1.08417119e+00
1.08152464e+00
1.07808210e+00
1.08515727e+00
1.08225211e+00
1.08485724e+00
1.07836595e+00
1.07634016e+00
1.08274682e+00
1.08205872e+00
1.08115558e+00
1.08472820e+00
1.08007800e+00
1.08182355e+00
1.08067355e+00
1.07806952e+00
1.08117824e+00
1.07978650e+00
1.08193059e+00
1.08052964e+00
1.07831116e+00
1.07899432e+00
1.07871276e+00
1.07792101e+00
1.08150136e+00
1.07490216e+00
1.07580453e+00
1.06921044e+00
1.06535746e+00
1.06304088e+00
1.07091021e+00
1.07735678e+00
1.07799537e+00
1.07334120e+00
1.06647635e+00
1.05721807e+00
1.05961776e+00
1.07138362e+00
1.07396685e+00
1.06339912e+00
1.05808320e+00
1.06194480e+00
1.07454848e+00
1.07797783e+00
1.06099645e+00
1.05091795e+00
1.06593138e+00
1.06924938e+00
1.05302799e+00
1.04647960e+00
1.05929900e+00
1.06406650e+00
1.05173811e+00
1.04115481e+00
1.05583465e+00
1.06068765e+00
1.04843783e+00
1.04672113e+00
1.05456447e+00
1.05492733e+00
1.04593113e+00
1.05131660e+00
1.05289551e+00
1.04819055e+00
1.04782340e+00
1.04778837e+00
1.04927947e+00
1.04929830e+00
1.04801871e+00
1.04894127e+00
1.04741866e+00
1.04744091e+00
1.04654531e+00
1.04674146e+00
1.04765843e+00
1.04421408e+00
1.04506886e+00
1.04631039e+00
1.04459119e+00
1.04696652e+00
1.04767948e+00
1.04148695e+00
1.04261873e+00
1.08327967e+00
1.09016952e+00
1.09312713e+00
1.08286246e+00
1.07531528e+00
1.08513827e+00
1.08174498e+00
1.07599066e+00
1.07753853e+00
1.08235718e+00
1.07370160e+00
1.06892155e+00
1.08089295e+00
1.08244007e+00
1.07798157e+00
1.08008870e+00
1.07808105e+00
1.08105007e+00
1.07615621e+00
1.07859417e+00
1.07868946e+00
1.07624488e+00
1.07890173e+00
1.07692171e+00
1.07610500e+00
1.07953936e+00
1.07816261e+00
1.08212826e+00
1.08074521e+00
1.08484689e+00
1.07894731e+00
1.08035486e+00
1.08078428e+00
1.07930310e+00
1.07784345e+00
1.07847619e+00
1.07804041e+00
1.08097488e+00
1.07987824e+00
1.07903278e+00
1.08658379e+00
1.08190514e+00
1.08047397e+00
1.07959375e+00
1.07871607e+00
1.08219891e+00
1.08054218e+00
1.08305471e+00
1.08606290e+00
1.08105839e+00
1.08550289e+00
1.08125722e+00
1.07881634e+00
1.08266403e+00
1.07973394e+00
1.08126025e+00
1.08320784e+00
1.08151797e+00
1.08092367e+00
1.08160811e+00
1.08220029e+00
1.08055488e+00
1.07908686e+00
1.08134290e+00
1.08109196e+00
1.07444353e+00
1.07930388e+00
1.08011644e+00
1.07611689e+00
1.07944317e+00
1.07779848e+00
1.07335603e+00
1.06897359e+00
1.06305642e+00
1.06530780e+00
1.06608573e+00
1.07878153e+00
1.07853595e+00
1.07468075e+00
1.06450398e+00
1.05659836e+00
1.05711529e+00
1.07490391e+00
1.07523250e+00
1.06245434e+00
1.05853027e+00
1.06294687e+00
1.07382667e+00
1.07543156e+00
1.06077890e+00
1.05200506e+00
1.06835716e+00
1.06901176e+00
1.05035036e+00
1.04755825e+00
1.06131256e+00
1.06302729e+00
1.04847754e+00
1.04325171e+00
1.05497609e+00
1.06172002e+00
1.04588840e+00
1.04770220e+00
1.05657035e+00
1.05268477e+00
1.04599626e+00
1.05109497e+00
1.05298488e+00
1.04819609e+00
1.04729392e+00
1.05004773e+00
1.04804612e+00
1.04866699e+00
1.04873154e+00
1.04828910e+00
1.04692302e+00
1.04780986e+00
1.04637218e+00
1.04651513e+00
1.04735327e+00
1.04313652e+00
1.04379406e+00
1.04699440e+00
1.04310873e+00
1.04847448e+00
1.05084993e+00
1.04022051e+00
1.04203826e+00
1.08253238e+00
1.08678321e+00
1.08527153e+00
1.07972519e+00
1.08284952e+00
1.08457637e+00
1.07882736e+00
1.07980965e+00
1.07642532e+00
1.07568751e+00
1.07542466e+00
1.08027872e+00
1.08011865e+00
1.07813733e+00
1.07749546e+00
1.07991392e+00
1.08028685e+00
1.08205498e+00
1.08097043e+00
1.08494930e+00
1.07822574e+00
1.07836860e+00
1.07669713e+00
1.07938420e+00
1.07901497e+00
1.08273564e+00
1.08062922e+00
1.07691896e+00
1.07341992e+00
1.08429339e+00
1.08060483e+00
1.07853238e+00
1.08062023e+00
1.08230322e+00
1.07994097e+00
1.08219443e+00
1.07811209e+00
1.08070142e+00
1.08074084e+00
1.08452605e+00
1.08628160e+00
1.07969923e+00
1.08131572e+00
1.08767699e+00
1.08251578e+00
1.08448923e+00
1.07771372e+00
1.08050051e+00
1.08157735e+00
1.08229133e+00
1.08728789e+00
1.08484050e+00
1.07902428e+00
1.08500308e+00
1.07986401e+00
1.08414220e+00
1.07692187e+00
1.07816216e+00
1.08500512e+00
1.08070223e+00
1.08163461e+00
1.08177455e+00
1.07836682e+00
1.07897055e+00
1.08122415e+00
1.07812725e+00
1.07799105e+00
1.07856443e+00
1.07657856e+00
1.07674246e+00
1.07675859e+00
1.07095952e+00
1.06672100e+00
1.06261977e+00
1.06715193e+00
1.06509148e+00
1.07648859e+00
1.08197916e+00
1.07346243e+00
1.06223019e+00
1.05431229e+00
1.05707373e+00
1.07787615e+00
1.07892050e+00
1.06190445e+00
1.05663268e+00
1.06179878e+00
1.07394891e+00
1.07734733e+00
1.05896284e+00
1.05360176e+00
1.06792809e+00
1.07146408e+00
1.04943370e+00
1.04726932e+00
1.05619790e+00
1.06243202e+00
1.05059507e+00
1.04579358e+00
1.05842048e+00
1.05848260e+00
1.04616367e+00
1.04717685e+00
1.05847768e+00
1.05097944e+00
1.04279472e+00
1.05117583e+00
1.05201131e+00
1.04987285e+00
1.04932141e+00
1.05123272e+00
1.04944704e+00
1.04559020e+00
1.04753497e+00
1.04749631e+00
1.04650576e+00
1.04680538e+00
1.04566413e+00
1.04818693e+00
1.04752434e+00
1.04219493e+00
1.04658959e+00
1.04837160e+00
1.04160889e+00
1.04624265e+00
1.04934693e+00
1.04078125e+00
1.04548461e+00
1.08891915e+00
1.08428094e+00
1.08065050e+00
1.08477454e+00
1.08635017e+00
1.08269488e+00
1.07930965e+00
1.08037228e+00
1.07430784e+00
1.07657173e+00
1.07798277e+00
1.08107419e+00
1.08035997e+00
1.07715425e+00
1.07949041e+00
1.07990791e+00
1.07569763e+00
1.08143693e+00
1.08212824e+00
1.07728571e+00
1.07709409e+00
1.08101936e+00
1.08183605e+00
1.08190510e+00
1.07934437e+00
1.07986960e+00
1.07812871e+00
1.08007850e+00
1.07919715e+00
1.07889506e+00
1.07831432e+00
1.07821476e+00
1.08078664e+00
1.08268269e+00
1.08143348e+00
1.08133208e+00
1.08132502e+00
1.08514294e+00
1.08327596e+00
1.08077181e+00
1.08046605e+00
1.08005945e+00
1.08348106e+00
1.08724238e+00
1.08035629e+00
1.08469853e+00
1.08108022e+00
1.08269110e+00
1.08054922e+00
1.08113452e+00
1.08080565e+00
1.08015963e+00
1.07975708e+00
1.08513302e+00
1.07438689e+00
1.07815401e+00
1.08113327e+00
1.07771553e+00
1.08298528e+00
1.07690088e+00
1.07753076e+00
1.08173833e+00
1.07682646e+00
1.07651425e+00
1.07885475e+00
1.08171370e+00
1.07893081e+00
1.07571490e+00
1.07623661e+00
1.07479706e+00
1.07212291e+00
1.06889279e+00
1.06782437e+00
1.06486580e+00
1.06518933e+00
1.06408079e+00
1.07265612e+00
1.07997353e+00
1.07210473e+00
1.06271053e+00
1.05563484e+00
1.05825409e+00
1.07834486e+00
1.07529747e+00
1.05892148e+00
1.05660203e+00
1.06475275e+00
1.07287452e+00
1.07660367e+00
1.05938911e+00
1.05576676e+00
1.06783709e+00
1.06894083e+00
1.05075211e+00
1.04923819e+00
1.05626327e+00
1.05899865e+00
1.05482636e+00
1.04751413e+00
1.05636234e+00
1.05607228e+00
1.04468480e+00
1.04926123e+00
1.05714628e+00
1.05068318e+00
1.04407876e+00
1.05129166e+00
1.05499722e+00
1.04690346e+00
1.04850017e+00
1.05087691e+00
1.04897804e+00
1.04587941e+00
1.04710946e+00
1.04610271e+00
1.04733690e+00
1.04788546e+00
1.04558580e+00
1.04748280e+00
1.04795280e+00
1.04353767e+00
1.04652176e+00
1.04568285e+00
1.03887663e+00
1.04528854e+00
1.04906842e+00
1.04022655e+00
1.04507469e+00
1.08805614e+00
1.08078020e+00
1.08585709e+00
1.08285785e+00
1.07908979e+00
1.08410616e+00
1.08280461e+00
1.07611810e+00
1.07515389e+00
1.08758227e+00
1.08012718e+00
1.07731792e+00
1.07828287e+00
1.07773940e+00
1.08191005e+00
1.08039669e+00
1.08227103e+00
1.08393631e+00
1.07382775e+00
1.07816414e+00
1.07528237e+00
1.08114778e+00
1.08059264e+00
1.07787444e+00
1.08096214e+00
1.08239322e+00
1.07947411e+00
1.08125108e+00
1.08217031e+00
1.08381848e+00
1.07967881e+00
1.08050725e+00
1.07855572e+00
1.08061476e+00
1.08196422e+00
1.08351817e+00
1.08217277e+00
1.08124044e+00
1.08198627e+00
1.08093776e+00
1.08319151e+00
1.07942772e+00
1.08193945e+00
1.08031967e+00
1.07842129e+00
1.08543321e+00
1.08349847e+00
1.08282486e+00
1.08252082e+00
1.07885412e+00
1.08054464e+00
1.07792021e+00
1.07894451e+00
1.08066874e+00
1.07405643e+00
1.07548888e+00
1.08497151e+00
1.07475090e+00
1.07597132e+00
1.07726913e+00
1.07816710e+00
1.08077912e+00
1.07408828e+00
1.07882822e+00
1.07796848e+00
1.07546435e+00
1.07988100e+00
1.07598152e+00
1.07400457e+00
1.07769671e+00
1.07368296e+00
1.06892323e+00
1.06547070e+00
1.06340316e+00
1.06333384e+00
1.06497378e+00
1.07579407e+00
1.08179644e+00
1.07112210e+00
1.05970895e+00
1.05346846e+00
1.06001548e+00
1.08082111e+00
1.07449334e+00
1.05734960e+00
1.05656531e+00
1.06302757e+00
1.07411690e+00
1.07555261e+00
1.06172607e+00
1.05334425e+00
1.06814357e+00
1.06754177e+00
1.05348513e+00
1.05048919e+00
1.05568922e+00
1.05794413e+00
1.05287276e+00
1.04953823e+00
1.05270563e+00
1.05717071e+00
1.04733523e+00
1.04987335e+00
1.05607879e+00
1.04785369e+00
1.04625068e+00
1.05282336e+00
1.05047234e+00
1.04532995e+00
1.04881643e+00
1.05225640e+00
1.04931589e+00
1.04641571e+00
1.04817760e+00
1.04624247e+00
1.04705785e+00
1.04736070e+00
1.04504465e+00
1.04702489e+00
1.04660650e+00
1.04438564e+00
1.04765109e+00
1.04683275e+00
1.03810028e+00
1.04505333e+00
1.04926462e+00
1.04036438e+00
1.04383322e+00
1.07949144e+00
1.07782611e+00
1.08908178e+00
1.08257944e+00
1.07810983e+00
1.07887432e+00
1.07968345e+00
1.07810809e+00
1.07683256e+00
1.08185780e+00
1.07763853e+00
1.08115388e+00
1.08168063e+00
1.08084061e+00
1.08005621e+00
1.08225824e+00
1.08451294e+00
1.07820050e+00
1.07630157e+00
1.08537660e+00
1.07502490e+00
1.08171660e+00
1.07720346e+00
1.08019536e+00
1.07671945e+00
1.07818999e+00
1.08308164e+00
1.08226718e+00
1.07859996e+00
1.08325299e+00
1.07979537e+00
1.08340110e+00
1.08329529e+00
1.08381313e+00
1.07965338e+00
1.08233234e+00
1.08144758e+00
1.08071367e+00
1.08273378e+00
1.08482816e+00
1.08720514e+00
1.07970869e+00
1.08360962e+00
1.08232186e+00
1.07939921e+00
1.08256332e+00
1.07975060e+00
1.08241425e+00
1.08242264e+00
1.07460018e+00
1.08055152e+00
1.07834459e+00
1.07844178e+00
1.07666159e+00
1.07394183e+00
1.07640660e+00
1.07895434e+00
1.07611931e+00
1.07531565e+00
1.07821497e+00
1.07873251e+00
1.08094194e+00
1.07196295e+00
1.07664958e+00
1.07820230e+00
1.07288176e+00
1.07993478e+00
1.07955504e+00
1.07298498e+00
1.07655017e+00
1.07209215e+00
1.06742483e+00
1.06408668e+00
1.06245814e+00
1.06431842e+00
1.06497712e+00
1.07610069e+00
1.08224416e+00
1.06762510e+00
1.05647845e+00
1.05236225e+00
1.06409132e+00
1.08269292e+00
1.07391343e+00
1.05687339e+00
1.05791532e+00
1.06130395e+00
1.07042231e+00
1.07359253e+00
1.06271617e+00
1.05600219e+00
1.06704059e+00
1.06595148e+00
1.05270834e+00
1.05439326e+00
1.05633459e+00
1.05562909e+00
1.05261286e+00
1.04709175e+00
1.05369177e+00
1.05698306e+00
1.04884709e+00
1.05035957e+00
1.05318785e+00
1.04923108e+00
1.04821398e+00
1.05689674e+00
1.04913106e+00
1.04257753e+00
1.05041016e+00
1.05115013e+00
1.04661289e+00
1.04640559e+00
1.04940092e+00
1.04924738e+00
1.04732645e+00
1.04728875e+00
1.04412959e+00
1.04599448e+00
1.04522671e+00
1.04147646e+00
1.04772514e+00
1.04998694e+00
1.03811560e+00
1.04258366e+00
1.04685036e+00
1.03795677e+00
1.04541818e+00
1.08087632e+00
1.08410902e+00
1.08217762e+00
1.08055968e+00
1.08082454e+00
1.07701920e+00
1.07663577e+00
1.08199504e+00
1.08202313e+00
1.08126054e+00
1.07898247e+00
1.07819869e+00
1.07665965e+00
1.08095958e+00
1.08460246e+00
1.08359090e+00
1.07478953e+00
1.07753079e+00
1.08254842e+00
1.08383815e+00
1.07899905e+00
1.07823210e+00
1.08120311e+00
1.08448345e+00
1.08081912e+00
1.07644818e+00
1.08020846e+00
1.08061706e+00
1.07765179e+00
1.08085782e+00
1.08287360e+00
1.08308396e+00
1.08350912e+00
1.08162155e+00
1.08204986e+00
1.08311696e+00
1.08169418e+00
1.07864701e+00
1.08295346e+00
1.08346763e+00
1.08399645e+00
1.07961853e+00
1.08316829e+00
1.08239230e+00
1.07842436e+00
1.08068919e+00
1.07695623e+00
1.08010001e+00
1.07946365e+00
1.07849685e+00
1.07961887e+00
1.07741548e+00
1.07632873e+00
1.07697591e+00
1.07216698e+00
1.07806190e+00
1.07386923e+00
1.07742054e+00
1.08001167e+00
1.07584613e+00
1.07316616e+00
1.08004736e+00
1.07557169e+00
1.07745115e+00
1.07851691e+00
1.07422137e+00
1.07491604e+00
1.07577817e+00
1.07284293e+00
1.07518548e+00
1.07039136e+00
1.06793906e+00
1.06526212e+00
1.05830893e+00
1.05944964e+00
1.06383180e+00
1.07674877e+00
1.08355409e+00
1.06498360e+00
1.05429492e+00
1.05096700e+00
1.06264098e+00
1.08087864e+00
1.07511659e+00
1.05908519e+00
1.05778125e+00
1.05934902e+00
1.06868316e+00
1.07502903e+00
1.06140969e+00
1.05466435e+00
1.06602016e+00
1.06637071e+00
1.05495631e+00
1.05217297e+00
1.05610638e+00
1.05551653e+00
1.05707832e+00
1.04649179e+00
1.05096627e+00
1.05869411e+00
1.04704698e+00
1.04826885e+00
1.05297458e+00
1.04854424e+00
1.05050273e+00
1.05229554e+00
1.04969795e+00
1.04559287e+00
1.05248883e+00
1.05024199e+00
1.04402707e+00
1.04691763e+00
1.04864413e+00
1.04638480e+00
1.04647984e+00
1.04753313e+00
1.04430728e+00
1.04638543e+00
1.04738733e+00
1.04028177e+00
1.04632969e+00
1.04766467e+00
1.03838178e+00
1.04576864e+00
1.04872218e+00
1.03423163e+00
1.04302997e+00
1.08494800e+00
1.08748406e+00
1.07957711e+00
1.08244844e+00
1.07934064e+00
1.08048937e+00
1.08096372e+00
1.08339797e+00
1.07956870e+00
1.07829899e+00
1.08239879e+00
1.08422357e+00
1.08369627e+00
1.08146266e+00
1.08121779e+00
1.07857522e+00
1.07849295e+00
1.08296265e+00
1.07807395e+00
1.07507315e+00
1.07960468e+00
1.08213982e+00
1.08341282e+00
1.07681218e+00
1.08652878e+00
1.08088795e+00
1.08341001e+00
1.08177895e+00
1.08238850e+00
1.07831894e+00
1.08397170e+00
1.08269570e+00
1.08410703e+00
1.07984729e+00
1.08575370e+00
1.08357961e+00
1.08407141e+00
1.08001396e+00
1.08029025e+00
1.07639484e+00
1.07900829e+00
1.08053565e+00
1.08540500e+00
1.07871266e+00
1.07931644e+00
1.08209302e+00
1.07837270e+00
1.07792061e+00
1.07471945e+00
1.07880033e+00
1.08011635e+00
1.07724032e+00
1.07931262e+00
1.08039796e+00
1.07348031e+00
1.08076010e+00
1.07856654e+00
1.07319638e+00
1.07958072e+00
1.07902648e+00
1.07874731e+00
1.07998946e+00
1.07493568e+00
1.07921171e+00
1.07732759e+00
1.07452797e+00
1.07620140e+00
1.07460184e+00
1.07392193e+00
1.07274011e+00
1.06694662e+00
1.06691266e+00
1.06524688e+00
1.05764125e+00
1.05771152e+00
1.06717831e+00
1.07731268e+00
1.08192867e+00
1.06548821e+00
1.05591990e+00
1.05148893e+00
1.06095867e+00
1.07970136e+00
1.07391957e+00
1.05792933e+00
1.05828232e+00
1.05764880e+00
1.06531332e+00
1.07473220e+00
1.06317024e+00
1.05355543e+00
1.06570670e+00
1.06416042e+00
1.05602726e+00
1.05472369e+00
1.05457311e+00
1.05649053e+00
1.05693133e+00
1.04891579e+00
1.05053666e+00
1.05608585e+00
1.05034313e+00
1.04678729e+00
1.05479336e+00
1.04924333e+00
1.05022327e+00
1.05213277e+00
1.04847340e+00
1.04673923e+00
1.05138414e+00
1.04710890e+00
1.04350521e+00
1.04898328e+00
1.05215449e+00
1.04569039e+00
1.04653718e+00
1.04839375e+00
1.04512192e+00
1.04605728e+00
1.04609921e+00
1.03657669e+00
1.04561043e+00
1.04960279e+00
1.04013102e+00
1.04744097e+00
1.04887014e+00
1.03255373e+00
1.04161874e+00
1.08703225e+00
1.07859638e+00
1.08070537e+00
1.08318463e+00
1.07656159e+00
1.07929582e+00
1.08096954e+00
1.08183259e+00
1.07904346e+00
1.08012850e+00
1.08269040e+00
1.07915034e+00
1.08477057e+00
1.08630572e+00
1.08089217e+00
1.07945680e+00
1.08173018e+00
1.07763613e+00
1.08084096e+00
1.08102619e+00
1.08355725e+00
1.07831324e+00
1.07521935e+00
1.08064734e+00
1.08242756e+00
1.07868554e+00
1.08208222e+00
1.08166378e+00
1.08688699e+00
1.08304548e+00
1.08122457e+00
1.07901440e+00
1.08363787e+00
1.08378675e+00
1.08352114e+00
1.08270148e+00
1.08044261e+00
1.08158615e+00
1.08175838e+00
1.08112182e+00
1.08130445e+00
1.07868122e+00
1.08134384e+00
1.07633112e+00
1.08369845e+00
1.08405944e+00
1.07628821e+00
1.07957901e+00
1.08126282e+00
1.07819544e+00
1.07969098e+00
1.07262470e+00
1.08048574e+00
1.08115435e+00
1.07830206e+00
1.07940550e+00
1.07997568e+00
1.07300914e+00
1.08217914e+00
1.08108701e+00
1.07991001e+00
1.07991841e+00
1.07374519e+00
1.08133057e+00
1.07724370e+00
1.07265930e+00
1.08093884e+00
1.07499498e+00
1.07318245e+00
1.07412193e+00
1.06771826e+00
1.06548208e+00
1.06342212e+00
1.05916120e+00
1.05945831e+00
1.06660048e+00
1.07835184e+00
1.08011447e+00
1.06446059e+00
1.05606585e+00
1.05498617e+00
1.06150987e+00
1.07996062e+00
1.07600025e+00
1.05845101e+00
1.05628808e+00
1.05677673e+00
1.06451652e+00
1.07435074e+00
1.06041614e+00
1.05131073e+00
1.06811929e+00
1.06934802e+00
1.05400633e+00
1.05260245e+00
1.05429822e+00
1.05784051e+00
1.05809757e+00
1.04617287e+00
1.05316451e+00
1.05689449e+00
1.04720246e+00
1.04843844e+00
1.05259929e+00
1.05033270e+00
1.04752468e+00
1.05185630e+00
1.04831908e+00
1.04813869e+00
1.05163206e+00
1.04612741e+00
1.04404729e+00
1.05124014e+00
1.05071654e+00
1.04292388e+00
1.04434979e+00
1.04651972e+00
1.04443703e+00
1.04917802e+00
1.04782063e+00
1.03802408e+00
1.04519052e+00
1.04728103e+00
1.03740237e+00
1.04658756e+00
1.04948530e+00
1.03326673e+00
1.04476659e+00
1.08436733e+00
1.07732554e+00
1.07911234e+00
1.07946943e+00
1.08158269e+00
1.07799976e+00
1.08212807e+00
1.07890353e+00
1.07545718e+00
1.07734376e+00
1.08212874e+00
1.08223487e+00
1.08258034e+00
1.07957331e+00
1.07680045e+00
1.08523767e+00
1.08474407e+00
1.07932165e+00
1.08242846e+00
1.08025881e+00
1.08422470e+00
1.07877394e+00
1.08213643e+00
1.08546915e+00
1.07639666e+00
1.08368915e+00
1.08222999e+00
1.08077128e+00
1.07900900e+00
1.08068148e+00
1.08301471e+00
1.08446815e+00
1.08347124e+00
1.08333414e+00
1.07501057e+00
1.08036566e+00
1.08083809e+00
1.08710606e+00
1.08012137e+00
1.07956210e+00
1.08091753e+00
1.07924393e+00
1.07929792e+00
1.07878199e+00
1.08187152e+00
1.08325942e+00
1.07567065e+00
1.08284033e+00
1.08066236e+00
1.07448125e+00
1.08184598e+00
1.07702550e+00
1.07770719e+00
1.07840353e+00
1.07943697e+00
1.08245023e+00
1.07525724e+00
1.07453280e+00
1.08007443e+00
1.07779217e+00
1.07701770e+00
1.08204766e+00
1.07462481e+00
1.07943192e+00
1.07729417e+00
1.07289146e+00
1.08067875e+00
1.07500131e+00
1.07273704e+00
1.07429212e+00
1.06818411e+00
1.06539440e+00
1.06120258e+00
1.05710648e+00
1.06307926e+00
1.06451511e+00
1.07688000e+00
1.08060396e+00
1.06536198e+00
1.05331099e+00
1.05509169e+00
1.06276709e+00
1.07921489e+00
1.07442384e+00
1.05864762e+00
1.05702871e+00
1.05716550e+00
1.06390610e+00
1.07448494e+00
1.05825704e+00
1.04988032e+00
1.06684799e+00
1.06893421e+00
1.05637864e+00
1.05472933e+00
1.05712932e+00
1.05880152e+00
1.05349254e+00
1.04586266e+00
1.05119582e+00
1.06057612e+00
1.04509689e+00
1.04828192e+00
1.05512242e+00
1.05017253e+00
1.04590969e+00
1.05105287e+00
1.04664330e+00
1.04854139e+00
1.05073720e+00
1.04654007e+00
1.04745241e+00
1.05410401e+00
1.04718482e+00
1.03966751e+00
1.04722355e+00
1.04914168e+00
1.04063118e+00
1.04714741e+00
1.04854488e+00
1.04121918e+00
1.04772723e+00
1.04702702e+00
1.03678073e+00
1.04862817e+00
1.05231352e+00
1.03040598e+00
1.04054562e+00
1.07720888e+00
1.07933728e+00
1.07576146e+00
1.08003629e+00
1.08435549e+00
1.08004893e+00
1.07705358e+00
1.07663989e+00
1.08619392e+00
1.08248935e+00
1.08151806e+00
1.08215828e+00
1.07937812e+00
1.08184903e+00
1.08021776e+00
1.07876967e+00
1.07675070e+00
1.08157233e+00
1.08351414e+00
1.08131734e+00
1.08165855e+00
1.08312193e+00
1.07952365e+00
1.08128865e+00
1.08552474e+00
1.08622209e+00
1.07851237e+00
1.08116790e+00
1.08508242e+00
1.08580045e+00
1.08320249e+00
1.08207662e+00
1.07912523e+00
1.08437480e+00
1.08110109e+00
1.08223512e+00
1.07850601e+00
1.08422762e+00
1.08178640e+00
1.08004622e+00
1.07879875e+00
1.07941738e+00
1.08205141e+00
1.08013704e+00
1.07708964e+00
1.07715909e+00
1.07167006e+00
1.08037530e+00
1.08281172e+00
1.07892864e+00
1.08111323e+00
1.07837782e+00
1.07592975e+00
1.07801285e+00
1.07393748e+00
1.08102710e+00
1.07303309e+00
1.07606823e+00
1.08061022e+00
1.07622403e+00
1.07387885e+00
1.07791721e+00
1.07167280e+00
1.07585152e+00
1.07765591e+00