# vtk DataFile Version 2.0
LBM Flow Field - Timestep 1090
ASCII
DATASET STRUCTURED_POINTS
DIMENSIONS 128 128 1
ORIGIN 0.0 0.0 0.0
SPACING 1.0 1.0 1.0
POINT_DATA 16384
SCALARS density double 1
LOOKUP_TABLE default
1.32200503e+00
1.31201605e+00
1.30012617e+00
1.28823909e+00
1.27651906e+00
1.26480368e+00
1.25334668e+00
1.24189445e+00
1.23078746e+00
1.21968338e+00
1.20900515e+00
1.19832599e+00
1.18814532e+00
1.17795815e+00
1.16833255e+00
1.15869362e+00
1.14966842e+00
1.14062246e+00
1.13223040e+00
1.12381023e+00
1.11607144e+00
1.10829801e+00
1.10122045e+00
1.09410321e+00
1.08768351e+00
1.08122109e+00
1.07544562e+00
1.06962676e+00
1.06447297e+00
1.05927770e+00
1.05471565e+00
1.05011655e+00
1.04611049e+00
1.04207408e+00
1.03858398e+00
1.03507218e+00
1.03205530e+00
1.02902672e+00
1.02643900e+00
1.02385037e+00
1.02164764e+00
1.01945494e+00
1.01759404e+00
1.01575359e+00
1.01419317e+00
1.01266260e+00
1.01136379e+00
1.01010274e+00
1.00902960e+00
1.00800032e+00
1.00712015e+00
1.00628794e+00
1.00557134e+00
1.00490480e+00
1.00432570e+00
1.00379686e+00
1.00333242e+00
1.00291673e+00
1.00254712e+00
1.00222337e+00
1.00193157e+00
1.00168168e+00
1.00145322e+00
1.00126202e+00
1.00108469e+00
1.00093960e+00
1.00080320e+00
1.00069398e+00
1.00059004e+00
1.00050843e+00
1.00043001e+00
1.00036947e+00
1.00031090e+00
1.00026627e+00
1.00022300e+00
1.00019031e+00
1.00015869e+00
1.00013487e+00
1.00011203e+00
1.00009478e+00
1.00007846e+00
1.00006603e+00
1.00005451e+00
1.00004561e+00
1.00003757e+00
1.00003124e+00
1.00002568e+00
1.00002121e+00
1.00001741e+00
1.00001427e+00
1.00001171e+00
1.00000953e+00
1.00000780e+00
1.00000630e+00
1.00000516e+00
1.00000414e+00
1.00000338e+00
1.00000269e+00
1.00000219e+00
1.00000174e+00
1.00000141e+00
1.00000111e+00
1.00000090e+00
1.00000071e+00
1.00000057e+00
1.00000044e+00
1.00000036e+00
1.00000028e+00
1.00000022e+00
1.00000017e+00
1.00000014e+00
1.00000011e+00
1.00000008e+00
1.00000006e+00
1.00000005e+00
1.00000004e+00
1.00000003e+00
1.00000002e+00
1.00000002e+00
1.00000001e+00
1.00000001e+00
1.00000001e+00
1.00000001e+00
1.00000001e+00
1.00000000e+00
1.00000000e+00
1.00000000e+00
1.00000000e+00
6.16629740e+226
1.34270411e+227
2.05076763e+228
-2.54886129e+228
9.61915423e+226
1.33456196e+228
4.43284348e+227
1.03723363e+228
5.36814027e+227
2.37562650e+227
1.84123897e+227
9.65589797e+227
1.36331865e+227
6.85456578e+227
6.35262366e+227
4.96299062e+227
-1.01854968e+227
-9.99894376e+226
-2.23367975e+225
-6.99424801e+226
-7.20185463e+226
-2.05261128e+227
-4.09684155e+227
1.03420598e+228
4.48077065e+226
2.35714639e+227
-6.79878769e+226
-3.26859208e+227
7.54367104e+226
-1.04577405e+227
-2.11150443e+226
2.42531740e+228
5.68016306e+228
1.69666930e+227
2.29871888e+228
1.12365510e+228
-1.46474848e+228
-2.04048939e+227
5.92439279e+226
1.90557784e+226
8.49649449e+225
1.03846374e+227
3.58236741e+224
-9.59474462e+226
3.11051980e+227
3.51222976e+227
3.78895240e+227
3.23306076e+226
-3.35112642e+227
4.05407324e+227
-2.61481368e+227
-1.70967822e+226
-5.15551150e+227
-5.28272499e+227
8.68854914e+227
-3.76648017e+227
-6.83514485e+228
-5.80461885e+228
2.19167430e+228
1.34560527e+227
-1.52179179e+228
-2.27458864e+228
-2.08555740e+228
-1.61116056e+228
-6.36533022e+227
-1.04443922e+228
-2.05264205e+227
1.08372938e+226
5.95460012e+225
-9.79852772e+225
4.58841361e+225
-1.20195293e+225
-1.45424800e+226
4.81491424e+224
5.31950425e+225
-1.38836040e+226
4.48914981e+225
-1.53257078e+225
4.31557521e+226
-6.18710768e+226
-2.61986693e+226
-5.44395566e+225
1.44460182e+225
9.19014978e+224
-1.89529782e+224
2.66411637e+224
-1.85555827e+224
3.31820575e+224
-5.95510466e+224
-2.89719270e+224
3.20882535e+222
4.90838386e+222
4.19176230e+222
4.60404392e+221
-3.83563414e+222
-1.19901771e+223
4.10708384e+222
-8.92186028e+221
-8.18649002e+221
-9.64636638e+221
-3.53590365e+221
9.72285157e+221
-8.34650154e+221
-4.65801188e+219
-8.06363269e+220
-2.03449363e+220
1.72677441e+221
-2.61932339e+220
2.17113324e+218
-3.66487902e+219
1.27546167e+219
1.59404296e+219
-5.55669318e+218
-7.45808153e+218
1.23402835e+219
9.58872082e+220
-4.31639758e+219
-1.28331388e+220
6.69499442e+219
6.25969984e+219
-8.87732804e+219
-3.32926064e+219
-5.84735363e+218
5.14303172e+218
7.81058457e+218
-3.50254255e+218
1.55755502e+219
-1.27434838e+219
2.52590485e+228
1.64410692e+228
9.11275229e+228
-1.25244125e+229
6.89153851e+228
-7.23382069e+227
-1.48195427e+228
-2.04700467e+227
1.82917752e+228
1.85254313e+228
-1.94785585e+228
6.75971529e+227
3.32989353e+227
9.04233151e+227
1.91076982e+228
-3.67287913e+227
2.00779415e+229
-9.68206172e+228
-1.27182860e+228
-2.66884385e+227
-5.17235476e+227
9.21039612e+227
-3.76613613e+228
1.24465960e+228
5.69183896e+227
8.88803575e+227
1.10925717e+228
1.75952755e+227
5.52667741e+227
1.76021516e+227
-1.54967696e+227
1.66061763e+228
-1.42774391e+229
-2.01275587e+228
-5.20702409e+228
5.30117913e+228
-1.69090738e+228
3.99310534e+227
-9.68449547e+225
-7.74764133e+226
-3.45357953e+227
4.55560191e+226
1.69054928e+226
1.80633529e+227
-9.40257654e+227
-1.82194975e+227
-1.09382772e+227
3.61993895e+226
-3.66762113e+227
2.31557509e+227
1.06428155e+228
3.00736634e+228
1.92766906e+229
1.84223529e+229
-8.69881336e+229
3.34893414e+229
-6.93212331e+229
5.61787261e+228
-2.17718096e+229
-8.87597487e+228
-9.61479067e+227
2.34815791e+228
7.20366223e+228
2.82421085e+228
1.35178841e+228
-5.79960071e+227
-5.94732178e+227
8.51550611e+226
5.20859815e+226
7.63486308e+225
-1.69724925e+225
2.34087210e+226
5.82585312e+226
2.54620663e+225
5.89206235e+225
-7.56955622e+225
4.60793660e+225
2.40881919e+225
4.87865594e+225
-3.02435026e+226
5.64212844e+226
-3.74480278e+226
1.10324077e+226
1.37074561e+225
-2.68040785e+224
5.31269276e+224
-4.00235307e+224
3.41113056e+224
8.31598209e+224
-4.39246024e+223
-8.99909836e+223
5.19295630e+223
-3.29110655e+223
-1.45380494e+222
-9.41173271e+223
-8.02539024e+222
-1.99921027e+223
3.32260520e+223
3.35559541e+222
-7.06304226e+222
-7.90921059e+222
1.05372806e+222
-8.16968062e+221
8.91745021e+220
-1.31594898e+221
-9.12483857e+220
2.47608856e+219
4.00196978e+220
6.62278749e+219
-2.60363774e+220
4.00556347e+219
7.69435614e+219
5.07550189e+220
1.56427806e+220
9.59313478e+219
8.47874371e+220
-3.16189103e+221
7.72956112e+220
-7.93559489e+219
2.41282693e+220
-1.11216802e+220
-8.84956914e+219
3.86071753e+219
8.70912552e+217
3.08221112e+219
6.82355955e+218
-4.83724757e+218
-5.03010870e+218
1.72152218e+229
1.01060233e+230
-9.06377300e+229
-1.33822658e+230
9.48990583e+229
-7.88372237e+229
-6.44411943e+229
-1.95195864e+229
-1.44948788e+229
-7.07128535e+228
9.93877683e+227
9.79993400e+228
-7.25370324e+228
-4.08142685e+228
-4.16225481e+228
7.55807563e+228
3.08745944e+229
-7.45932783e+229
2.89590810e+229
-4.61889583e+226
7.34215118e+227
1.42982910e+228
2.93779841e+227
-7.59236319e+227
-7.77322962e+228
-2.61765158e+229
-5.11349051e+228
6.81830861e+227
-2.94024196e+227
1.58229081e+226
-1.13587247e+228
2.06202015e+228
4.10086038e+228
2.00142123e+228
-6.09995218e+228
1.71613378e+229
-8.01915398e+228
-4.01154299e+227
2.21342410e+227
8.43914257e+227
-1.71396697e+228
-3.78054337e+227
1.24869153e+227
-5.50026518e+227
4.29528292e+227
9.84543377e+227
-4.29577269e+226
1.37130788e+227
4.16771783e+227
1.35657248e+228
4.58906858e+228
2.13429706e+229
1.39490444e+230
-1.56317873e+230
-9.53181489e+229
1.35492716e+230
-6.57932608e+228
6.02477962e+229
5.68980459e+229
-1.67524607e+229
-6.49288314e+228
-1.48005017e+229
-1.85162257e+228
-3.78601102e+228
-2.18863120e+230
3.32976300e+230
-1.17115676e+230
-4.33338703e+227
-1.50400204e+227
5.41439517e+226
-4.34501954e+226
-3.69191895e+226
-7.38920086e+226
3.85430249e+226
3.63979669e+225
-1.24989054e+225
-1.18752001e+226
2.44919564e+225
-2.70821816e+225
1.57444382e+226
-4.20324740e+226
-7.79574425e+226
4.17101355e+226
-1.07804085e+225
6.97216234e+224
-1.02574658e+225
-3.61207731e+224
6.39109610e+224
-5.73133424e+224
-2.54464400e+223
6.53692176e+224
1.97318362e+224
6.37341757e+222
6.36598354e+223
1.32618897e+224
-6.00165011e+223
-1.96418242e+223
-6.89957091e+222
1.02623020e+223
1.80356183e+223
1.93274955e+223
4.41813934e+222
-1.33459279e+222
6.75677646e+221
1.62023962e+221
-3.02433409e+221
-1.10480669e+221
-7.74051750e+220
-3.92637456e+220
2.45611259e+220
8.68130319e+219
3.34999933e+220
-5.92640303e+220
-3.96677210e+220
-6.85092422e+219
-1.92899543e+220
-2.09189094e+220
6.71368993e+220
-3.06554435e+220
1.90853293e+219
-3.75501701e+219
1.67139241e+220
-3.29687956e+217
-1.40063609e+220
-3.42682090e+218
1.28879804e+219
1.58823577e+219
-2.97466434e+219
1.46127107e+230
8.77582155e+229
3.28156029e+230
-5.72594163e+230
4.82588550e+230
-1.06695799e+230
5.51593033e+229
-8.56814528e+229
-1.74562902e+230
1.11025444e+229
4.38328110e+228
1.57014868e+229
-4.84366591e+229
1.40173032e+229
1.29438676e+229
-3.61611294e+228
-4.68167829e+228
-1.45182488e+229
2.00534784e+229
-3.44277253e+227
6.06669108e+228
5.30233699e+228
-1.49992789e+228
-3.88794858e+228
1.51791180e+229
5.28105061e+229
8.56732107e+228
-2.57442467e+228
-3.02981947e+227
3.37756364e+227
-2.22198881e+228
6.15349632e+228
-3.20295322e+228
-2.63911962e+228
-5.99067577e+227
5.08470142e+228
-4.42235726e+228
-2.08723913e+228
-4.77072068e+227
1.38289682e+228
2.28471068e+228
-2.36427848e+228
6.00685844e+227
2.02639235e+228
5.82374069e+227
-5.47833958e+228
1.79129313e+229
2.91913516e+229
-2.53404178e+228
-6.22299693e+227
1.79401876e+229
-2.84687215e+229
1.49965278e+230
-2.69104749e+230
1.67032799e+230
-4.53416974e+229
2.03971767e+230
-1.06153313e+230
5.62194750e+229
2.61235345e+229
-9.41434800e+228
-2.90588666e+229
8.16656233e+229
-1.58230585e+229
-6.80549342e+230
1.35378695e+231
-6.54464061e+230
-3.85968216e+227
-7.75533663e+227
3.38980909e+227
-4.54554483e+226
-5.58569655e+226
-2.91134972e+224
-1.53788852e+226
1.67072812e+226
1.65673941e+226
-5.53342902e+225
-1.01271227e+226
-1.45845678e+226
-8.21670480e+225
6.35200537e+225
4.08789017e+226
9.32469508e+225
-1.19203099e+225
1.50741437e+225
-4.51152244e+224
4.21355472e+224
-6.87344421e+224
-1.25081072e+225
8.42122483e+224
-8.65785801e+223
-1.50268994e+225
1.25490205e+224
-6.60892812e+223
3.21888700e+223
7.84373190e+222
1.23763727e+223
-2.50375596e+223
-2.95047337e+223
3.41187572e+222
1.56863793e+223
3.98080083e+222
-1.55195891e+221
-4.87378916e+221
3.94770900e+221
7.98417016e+221
2.77555286e+221
1.69073565e+221
3.06429155e+220
-9.59442960e+219
8.53792645e+220
6.86283791e+220
-2.82007853e+220
6.07709543e+220
-2.37256442e+220
2.43686091e+219
4.02889836e+219
7.59118362e+220
1.12967797e+220
-5.96464967e+219
-2.39270057e+220
1.06121458e+220
2.09992219e+220
-4.43949107e+220
-7.56062395e+218
-1.96097569e+220
-2.82451973e+220
3.15948049e+219
3.80199227e+230
-4.11326598e+230
2.66638247e+230
-1.65991162e+230
-1.56661523e+229
-1.06062753e+229
1.63814335e+230
1.71750375e+230
2.19679167e+230
6.33334618e+229
1.86822137e+228
-6.74167514e+228
-1.14832267e+229
1.64758292e+229
6.56266302e+228
-8.07494256e+228
5.24570967e+228
-2.03561941e+228
-1.13048941e+228
-8.11351455e+227
-1.02602157e+228
-1.94068690e+229
4.20037871e+228
-1.02315845e+228
-3.80589820e+228
-3.01865535e+229
-6.42511596e+225
-9.67968304e+227
4.84911757e+228
-9.68875118e+227
-8.88340736e+227
1.62137839e+228
2.76316155e+229
1.17733127e+229
1.30283737e+229
-7.48497266e+228
2.80658617e+228
2.35426035e+227
2.59418153e+228
-1.75971959e+228
6.29642910e+228
9.97118146e+227
-3.22589680e+228
-2.88255421e+228
-2.70578610e+228
7.67504609e+228
-9.73974754e+229
8.91554139e+228
-4.67587146e+228
1.31999360e+229
-1.01743519e+229
-2.53257631e+229
2.37011542e+230
3.91317836e+229
-2.43144911e+230
-1.40272867e+230
9.96993745e+230
-2.16778996e+230
5.56593974e+229
-1.17856786e+230
2.83351738e+229
-6.39393011e+229
2.56066716e+229
1.00685926e+229
-1.20400364e+230
3.26404336e+230
-2.47155403e+230
2.08190981e+228
-2.37576017e+228
8.23728413e+227
4.87507673e+227
-3.72361259e+227
-1.10781877e+226
-6.94411009e+226
1.85491150e+226
-1.02495001e+226
1.49415376e+226
9.70959040e+225
-5.47903931e+225
2.76595808e+225
3.82250706e+225
1.51409835e+226
-2.05117540e+226
-1.43370786e+226
-7.13238112e+223
9.93785662e+224
-2.08684072e+225
4.06952085e+224
1.76994713e+225
1.03018752e+225
-1.74550140e+225
8.24823658e+224
5.97121305e+224
5.35091658e+222
-3.53544001e+223
4.01224913e+223
1.23730613e+224
-2.28897805e+223
1.38252186e+223
-6.52853187e+223
-3.70186261e+223
3.67042497e+223
-2.53462862e+222
-1.13515108e+222
-1.96907381e+220
-4.72332127e+221
-5.93692064e+221
6.53535385e+220
8.93989094e+219
-2.02965975e+220
-2.29794706e+221
-5.91797993e+220
2.85842276e+220
-9.94474321e+220
-6.59050570e+220
4.75778770e+220
-1.61705070e+220
-3.99871813e+220
-2.99647744e+220
4.28100288e+220
2.15829480e+219
1.11529877e+220
-7.92902349e+218
-1.37702866e+220
2.63007103e+220
3.77181120e+220
2.83461959e+220
-1.21758197e+220
3.91264812e+230
2.27430090e+230
1.89341588e+230
-1.41978532e+230
8.16380864e+229
-6.51520980e+230
3.54679239e+230
2.28870285e+230
-1.99023949e+230
-1.64687576e+229
1.64295845e+229
-5.38227796e+227
1.86438679e+228
-9.65458267e+228
4.12529123e+228
3.14914756e+227
-1.04918935e+229
-6.02677090e+228
3.65427492e+228
6.36190593e+227
-1.34414248e+228
1.11716260e+229
5.86098197e+228
-3.08096019e+228
2.07884293e+228
-1.44392833e+228
2.66050040e+228
-2.92789043e+228
6.72459614e+228
-1.67245855e+229
4.11274916e+228
3.90634035e+228
-3.69355199e+229
-2.62239163e+229
4.17662017e+229
2.29778334e+228
7.29765074e+228
-4.98735926e+228
2.18628675e+227
-6.78383971e+228
-8.91190079e+228
1.41936566e+229
-2.37445574e+229
-1.38855698e+228
-1.22760923e+229
2.98319996e+229
5.80002447e+228
-4.83624411e+228
8.89296885e+228
1.86400281e+228
-3.74663125e+229
9.85995418e+228
-2.17937360e+230
4.97005224e+229
1.84518797e+230
3.03435599e+230
3.71390512e+230
-2.05454623e+231
2.73256329e+230
8.74627265e+229
6.19179694e+229
-4.06886750e+229
-9.31795141e+229
6.24599794e+229
6.31988844e+228
-9.08633145e+228
7.28482716e+228
1.18727515e+229
-4.85318804e+227
4.68537554e+228
-1.77148645e+228
-7.21908114e+227
2.70247341e+227
-4.28187834e+226
6.85256744e+226
-1.69736180e+226
1.09004070e+226
-5.65550113e+225
1.98444473e+226
-1.30293721e+226
-6.82372982e+225
-3.66484671e+225
6.11211184e+226
1.15720195e+226
7.02901473e+225
1.60817113e+227
-1.87476456e+227
2.02109428e+225
-1.07746903e+228
-8.27874997e+227
-5.48790498e+226
5.65541365e+224
-9.32103905e+223
5.60222387e+223
5.48960924e+223
-8.09369574e+223
6.62209282e+222
4.64178626e+223
1.62356690e+224
-1.59774658e+224
-2.37006879e+223
2.25196409e+223
-2.67538359e+222
1.70421169e+222
4.61269548e+220
8.57189798e+220
-1.35504837e+220
5.67330892e+220
-8.13738446e+218
8.02912902e+220
9.52961185e+220
-1.11050085e+221
2.74801316e+221
-4.99616909e+220
4.98493940e+220
2.96318904e+220
-1.91990158e+220
-2.77717015e+220
6.39280243e+220
1.13267849e+221
-3.99889485e+220
3.79787804e+219
3.62860626e+219
4.42191274e+219
2.24582964e+219
-2.89136586e+220
6.61220208e+219
1.19287851e+220
-1.64612813e+230
-2.16680291e+229
2.09762345e+230
7.10258228e+228
1.68084750e+230
-2.90189474e+230
1.89845464e+230
-3.19800617e+230
-9.82880877e+229
-3.23281981e+229
2.79785917e+229
2.00511832e+229
8.70826878e+226
-2.92866573e+228
9.38982353e+228
7.59696076e+228
2.42630214e+228
8.44145141e+228
1.77913753e+228
4.89563652e+227
-2.85292310e+228
6.15382911e+228
-5.76357213e+228
-4.60264338e+227
-1.92040462e+228
2.60681592e+228
2.37356312e+228
-4.92289428e+228
-1.65431962e+229
1.71246463e+228
6.50554202e+228
7.84315338e+228
-2.04106676e+229
-7.75182668e+228
-6.49367590e+229
4.20537000e+228
-2.08271213e+229
9.56422107e+228
-8.87266984e+228
-9.45245810e+228
-1.36099439e+229
-1.09649110e+229
3.36697562e+229
1.49026250e+229
4.98778096e+228
-8.37843597e+228
2.79237761e+229
-1.07640349e+229
-2.56923265e+229
-5.14697263e+229
-3.82263632e+229
-9.98060058e+229
5.61948365e+230
-2.13609041e+229
-1.25219860e+230
6.63809016e+228
-9.21792523e+230
6.17973560e+230
5.41287928e+230
2.23238068e+230
1.62916062e+230
-2.24540066e+230
2.63816207e+230
5.00170685e+228
9.64917655e+229
-1.37607653e+230
-6.01823550e+228
8.52741228e+226
6.63260632e+228
-6.84826448e+228
-2.61331501e+228
-2.68530758e+228
3.04707280e+228
-4.68154071e+227
3.10626354e+227
5.70709767e+228
-4.22520564e+228
-1.31293011e+228
5.54021649e+226
-4.47582574e+226
-1.31221614e+227
-2.73577393e+226
-2.81228084e+227
-5.78222754e+226
3.09558635e+228
1.02100699e+229
2.22959746e+228
1.93031183e+228
8.42712105e+227
5.42668171e+227
-8.43035442e+227
-1.14740087e+225
-3.21640510e+225
4.41386386e+224
-9.14965530e+224
4.95518401e+224
-3.61387739e+224
2.74837253e+224
3.59056612e+224
-1.67732514e+224
-3.22989360e+223
1.20296792e+223
9.77001194e+221
5.49107695e+222
2.29971179e+222
-4.42829780e+222
-1.00179159e+222
1.76703481e+221
-1.14093029e+221
6.48016070e+220
-5.34834175e+219
-3.67810081e+220
-7.29937105e+220
-9.00828104e+220
-4.35565109e+220
2.20728062e+219
1.38027894e+221
-1.98400702e+220
-3.15521170e+220
-2.21189832e+221
-4.97972877e+218
1.01068819e+221
-6.65190648e+220
2.21579545e+220
2.85513347e+220
3.46818059e+220
1.24508144e+220
-5.46133151e+218
2.88972283e+229
-1.18311521e+230
2.42398809e+229
1.83239452e+229
-2.70285356e+229
-1.99705925e+230
6.82394730e+229
-1.94275455e+229
9.21893585e+229
-5.80474583e+228
-7.10781588e+229
-3.10245199e+229
-8.27976071e+228
-3.77822841e+227
6.48381467e+228
2.14265339e+229
-1.52784974e+229
-1.81918713e+228
-2.80376475e+228
5.32740146e+228
-2.23039713e+228
-4.78436482e+228
-9.77339006e+227
-2.07592520e+228
-5.22750681e+228
1.65706222e+228
2.87008247e+228
-1.42755997e+228
2.77313342e+229
1.03358119e+229
4.68435466e+228
9.93405195e+228
-1.64165367e+230
-1.46153092e+230
-1.00095627e+230
3.33560852e+229
7.37803278e+228
4.99846198e+229
1.94608437e+229
3.16223998e+229
2.68263145e+229
2.62576864e+229
-2.19961788e+229
1.08127344e+229
1.29509064e+229
-5.82038562e+228
6.72368852e+228
3.47658021e+227
1.83595763e+229
2.54739442e+228
7.07311886e+230
-1.00502461e+231
-4.73891638e+230
-4.17082927e+230
1.11757253e+230
-4.94258210e+230
3.87084418e+230
-9.99491216e+230
6.80457049e+230
-6.50255473e+228
2.29318575e+230
-6.87946253e+230
4.02875074e+230
-2.98721149e+230
2.31989536e+230
-1.14511720e+230
2.56800452e+228
-7.09255442e+227
2.95272345e+228
-5.82619178e+228
7.94667925e+228
-6.21013515e+228
4.70002553e+228
-9.65155354e+228
7.41061971e+228
3.04506550e+228
1.35180732e+229
-1.39277503e+229
7.43193453e+227
1.98681312e+227
8.20757105e+227
3.04204067e+227
3.71222987e+227
-2.34683415e+227
-6.12513116e+228
-2.19884193e+229
-3.68674969e+228
-1.23322068e+227
-3.92185077e+227
1.46885732e+228
-1.29937878e+228
7.88376781e+224
2.32526644e+225
1.33169840e+225
-4.29474253e+225
1.91942706e+225
-3.47654993e+224
1.80530071e+224
1.21559189e+224
-7.23638791e+223
5.26961027e+223
1.35649538e+224
-6.59076054e+222
-4.15946900e+222
-6.50546745e+221
8.25146397e+222
-4.88289602e+222
-3.09731853e+221
-6.98870833e+221
1.18414949e+221
-1.54689774e+221
-2.47572508e+221
-4.76791257e+221
1.57633305e+221
-5.76877689e+220
-2.68844093e+221
-9.60350230e+219
-4.72189736e+220
4.88857108e+220
-6.37953958e+218
6.75967407e+220
6.18757827e+220
-1.94700989e+221
7.92236215e+220
-1.20218252e+220
-1.70790971e+220
-1.10247068e+220
2.77757049e+219
-1.23565202e+230
1.39366910e+230
2.89475259e+229
-1.17278668e+230
-1.93922170e+230
-1.56209568e+230
3.05453264e+230
-6.29609092e+229
7.59841501e+229
1.84675550e+229
4.75116477e+229
7.27168030e+228
-1.84440582e+228
1.06472840e+228
5.35302377e+229
-5.80278200e+229
-2.13828549e+229
-9.79630033e+227
-4.33265868e+228
3.17893647e+228
6.90094427e+228
1.35337021e+229
-6.99448453e+228
2.81282949e+229
3.12656417e+229
3.42104572e+229
7.66996157e+229
-1.14270633e+230
-2.98889045e+230
4.19032708e+229
4.04839217e+229
9.26080345e+229
-3.10061859e+229
5.52802815e+230
4.98560391e+229
1.54136010e+230
-4.36458300e+229
2.35726094e+229
-6.73080922e+229
6.24637220e+229
4.44312479e+229
-6.65430901e+229
9.33571570e+229
2.35741735e+230
3.03697060e+230
8.86787099e+229
-6.46478750e+229
-3.64603891e+230
3.47748020e+229
1.61244274e+229
9.12398494e+230
-1.55976433e+231
1.08248275e+231
-7.31935095e+230
-6.76407091e+230
-1.50048982e+230
4.55706141e+230
-7.97407619e+230
1.20192485e+231
-8.61565936e+230
7.43700964e+230
-5.44689557e+230
1.50762109e+230
5.22374162e+229
1.85755457e+230
-1.87487989e+230
3.39066355e+228
3.21084068e+228
3.66261891e+228
-4.20039243e+228
-7.46793636e+228
-1.74081916e+229
1.87735039e+228
-1.42398349e+229
1.67046404e+229
-1.29878531e+229
1.74270674e+229
-8.41648921e+228
-2.36224433e+227
-9.03399547e+227
-5.75589689e+227
-8.32848088e+227
-7.94526303e+227
3.26290255e+227
1.89998383e+228
1.24838694e+229
2.24176810e+228
-2.15380806e+228
-2.60192500e+226
3.59700037e+228
2.03609887e+227
3.28841109e+225
4.05216954e+224
2.85386290e+224
3.96179211e+224
2.23372351e+224
-4.34937622e+224
3.62076487e+224
9.32224182e+223
-3.91343939e+223
-5.77948821e+223
-2.65799067e+224
-5.38878637e+223
-5.41704630e+222
9.32916773e+222
2.71658370e+223
-1.40071307e+223
3.16910885e+222
-3.66131179e+221
-4.96748812e+220
1.78077580e+221
3.83253270e+221
-6.36240627e+221
1.84560909e+222
-4.65991771e+221
4.11332616e+220
2.62203232e+220
8.15149289e+220
3.00026621e+220
1.93562244e+220
-5.02923660e+220
-7.16213091e+219
-4.69214334e+220
2.34131077e+220
-1.72184741e+220
2.17570947e+219
8.20334732e+219
-2.45033628e+220
-7.65032128e+229
3.85814885e+229
1.86107244e+229
6.57424797e+229
7.71700938e+229
-6.21979521e+227
1.23870632e+229
-1.38482775e+229
2.24396302e+229
-1.76303111e+229
-3.46821962e+229
-1.73092677e+229
3.32650043e+228
-3.58234117e+228
2.82291963e+229
-5.49667834e+229
4.57491193e+229
-2.73300018e+229
3.54037059e+229
-8.81085746e+228
-5.48935671e+227
5.54554957e+228
1.70797514e+229
-1.01494392e+230
-8.96368652e+229
-6.41586454e+229
-1.60482233e+230
9.76720094e+230
-1.05190152e+230
2.47110634e+229
-7.74247011e+229
1.81077063e+229
-7.46574727e+228
-2.47450063e+230
-1.17894203e+230
8.12585627e+229
1.21254370e+229
-4.83364296e+229
-1.77981459e+230
-5.39583011e+230
-2.35091015e+230
-7.41781944e+230
-1.74518139e+230
-4.31627764e+230
4.75984577e+229
1.42950334e+231
3.91524481e+230
-3.60737368e+230
-8.26886219e+229
-1.71815886e+230
2.72589411e+230
-5.52879299e+230
2.82724270e+230
3.89972517e+230
1.70043034e+231
-5.09931204e+230
1.00479997e+230
-6.51529020e+230
6.11886824e+230
1.04562633e+229
6.10608908e+230
-5.58481951e+230
2.13545008e+229
-4.54555990e+229
-3.16681286e+230
-4.64694940e+229
1.09803875e+229
1.37534568e+228
5.90633387e+228
1.97101123e+228
1.55522045e+226
2.48863281e+229
7.86161674e+228
5.36656709e+229
-1.84450701e+229
-6.73717047e+228
6.30428809e+228
-1.12791107e+229
1.06081446e+228
-1.04587126e+228
7.16589505e+227
2.15099120e+228
5.00825683e+227
1.41216725e+228
-1.61738494e+228
1.58846298e+228
-8.02520482e+227
-1.13934383e+227
7.98918692e+227
-4.28546623e+228
-1.61023592e+228
2.86808755e+226
1.05213650e+225
3.40821252e+224
4.98904012e+224
-4.95424461e+224
8.67235746e+224
-1.65085876e+224
-2.52704052e+223
-4.81810759e+223
-1.03049898e+223
1.28555430e+224
9.99108290e+223
-6.52879727e+223
2.15989297e+223
1.52377801e+223
-7.43580600e+222
-7.07569268e+221
-2.26138854e+220
-2.64395061e+221
4.53181148e+221
-3.27320465e+222
8.90595481e+220
1.86321300e+221
-4.49288034e+221
1.65725594e+221
-1.75031712e+221
1.40515408e+221
-4.78659289e+219
5.45524456e+220
-3.11148397e+220
-3.41712827e+219
-9.90984217e+219
6.84689387e+219
-3.30159812e+219
3.33117336e+219
-1.49074867e+220
1.83399948e+219
2.31590203e+229
8.78493469e+229
-2.18949424e+229
4.71426577e+229
-8.32287829e+229
1.12508836e+229
3.00352336e+228
-6.01929933e+229
-3.03084107e+229
-2.45285230e+229
2.34999663e+229
1.06066384e+229
-9.16016698e+228
4.46197723e+227
2.69814091e+229
-1.88764162e+229
-1.37916000e+229
-4.93586942e+229
4.17465082e+229
-2.15051106e+229
3.36313439e+229
-3.11159640e+229
3.24164217e+229
8.32979559e+230
2.85045423e+231
8.92940429e+230
2.02481242e+231
3.69859968e+230
6.34235333e+230
7.91483085e+230
-7.48800009e+229
7.82101375e+229
-2.64595099e+230
-3.30874255e+229
-1.84521756e+230
2.74359588e+230
-2.79647716e+230
-2.04855915e+230
-4.13722067e+230
4.85881545e+230
-3.08789705e+230
1.47373538e+231
2.71303245e+230
1.03123349e+230
-4.21721464e+230
1.71927094e+231
-4.99732429e+231
2.27825769e+231
-1.26746894e+230
-1.57936177e+230
3.85378172e+230
2.43270847e+230
-6.69521154e+229
5.73065645e+230
-8.78236423e+230
2.23169592e+229
3.91217974e+230
-4.04070813e+229
2.04548804e+230
2.49988883e+230
-3.61676244e+230
-2.84981872e+229
2.66676075e+229
2.49535600e+230
-6.51184735e+229
4.20384982e+230
-1.02643109e+230
-7.59869705e+228
-1.19563058e+229
5.69193612e+228
-1.19638452e+229
1.43801023e+228
-7.70239501e+228
5.13719469e+229
-2.33482003e+230
6.17332250e+229
-2.27197534e+228
-9.88870067e+227
-1.00013182e+228
-2.44884226e+229
-8.22234987e+228
-9.31831394e+228
1.17831727e+227
-1.68394549e+228
-1.69741619e+228
1.64006738e+228
6.09485415e+227
1.83192921e+228
7.55190071e+226
1.60708789e+228
8.09460979e+227
-7.89912123e+225
-2.41054667e+225
1.66222084e+225
3.49716843e+224
1.15311433e+225
2.26302098e+225
-5.76421968e+224
6.51367806e+224
1.63086901e+224
1.13330327e+224
-4.64840578e+223
8.89349089e+223
-3.14323777e+222
-1.35457714e+222
1.52508011e+223
-1.28377558e+223
-6.67710541e+222
3.00616775e+222
-2.79383447e+221
-2.68225172e+222
3.11460733e+222
-3.54844242e+222
-5.55710489e+220
2.52889670e+221
-1.38799034e+221
4.38838094e+221
-3.29207820e+221
-2.69626261e+220
5.61381763e+220
-3.91394385e+220
1.29485622e+220
2.41102776e+220
2.35889218e+220
-9.92173364e+219
1.45525835e+220
-1.82642784e+219
-1.00188490e+220
-1.26901605e+230
-1.72642545e+228
7.97488739e+229
1.28618538e+230
-9.90633004e+229
1.45844288e+229
4.99749842e+229
1.45736571e+230
-2.33203319e+229
3.97454495e+229
-3.92546930e+228
-4.48594089e+228
1.58849248e+229
3.76613693e+228
-1.30271011e+227
-3.58576584e+228
-1.88147727e+229
-2.09596453e+228
-3.81014977e+228
-4.37513152e+229
2.74872038e+229
1.08917243e+229
7.65735518e+230
5.00518725e+230
-2.52788755e+231
-2.55957912e+231
-1.35108944e+231
3.56565022e+231
6.03649083e+230
-3.28352211e+231
2.92510847e+231
-1.97843001e+231
1.07558628e+230
-2.53369392e+231
1.19362245e+231
-2.59329679e+230
-8.96710056e+230
7.14376116e+230
1.33303064e+232
-4.44621491e+232
3.27722260e+232
-2.57635159e+230
-4.05795835e+231
-2.65930822e+231
1.88214136e+229
-1.77510333e+230
-1.56577145e+231
3.10733721e+231
-7.01576934e+230
3.67486181e+229
-2.84854650e+230
2.46965044e+230
-7.76948835e+230
-1.62838356e+231
3.56652960e+229
9.59873259e+230
-3.66547941e+230
-3.11580541e+230
1.09489710e+230
-1.33278090e+230
-5.35900509e+229
1.52314190e+230
-2.82101327e+230
8.23225543e+229
-9.24297187e+229
1.35627216e+229
-9.37223004e+229
-6.32970202e+228
5.89357507e+228
2.64562780e+227
3.87553951e+228
7.91317664e+228
3.60760410e+228
1.11822437e+230
1.53168435e+229
1.23584281e+230
-5.34467871e+229
-6.46395459e+228
-1.40567327e+229
2.07595993e+229
2.10338046e+229
6.04224561e+228
1.30666125e+228
2.88796994e+227
2.91091285e+226
-1.02446138e+228
-1.04559887e+228
-9.50776489e+226
-1.73757034e+227
1.71066467e+226
-4.42028561e+226
2.82766589e+226
3.52908469e+224
1.03369068e+225
1.09430199e+224
-3.68567644e+224
-2.99652696e+225
-1.22908649e+225
-4.65483448e+224
-6.31534669e+224
4.50037739e+224
-2.87236334e+224
1.67728916e+224
-2.69517895e+223
-1.10317466e+223
-4.66224047e+222
-7.36532808e+222
6.79479357e+222
2.08886903e+222
1.62862271e+223
-4.56568551e+222
3.19006638e+222
7.51220349e+221
4.71395168e+221
-3.64153310e+221
-2.40568971e+220
1.29198779e+221
-4.43912125e+220
1.09833774e+221
4.56839121e+220
-4.45467191e+220
6.14590271e+220
1.88377990e+220
8.00046984e+219
-3.86085072e+219
9.90930213e+219
1.49345179e+220
1.60331967e+220
-2.29310708e+230
-1.93609539e+230
1.66131288e+230
-1.01058344e+230
-3.96751761e+229
-7.39534099e+229
-1.23905747e+230
5.81607784e+229
-6.73102233e+229
-6.45285621e+228
-1.29516180e+229
2.44993480e+228
-5.58253423e+228
-4.51025469e+228
3.93330622e+228
-7.83230633e+227
1.29167028e+229
6.96340460e+229
-3.71665339e+229
1.53609149e+229
-8.02575528e+228
4.25881683e+229
6.27567859e+229
-2.70142725e+231
-3.62779929e+230
-8.65265068e+229
-8.93194766e+230
-9.22513910e+231
-1.44924932e+231
-9.16707120e+230
1.31292608e+232
-2.31750311e+231
4.01286098e+231
8.51539967e+231
9.24434281e+231
-2.75175552e+231
8.94614839e+230
1.06819064e+232
9.98373199e+232
-1.89625048e+233
8.89648788e+232
-8.59436738e+230
9.42408663e+231
1.78387681e+231
-4.88669923e+230
6.71141630e+230
4.40912146e+230
2.23267140e+231
-6.75491714e+231
3.41698515e+231
1.21734709e+231
-4.70711616e+230
4.62455199e+231
-5.51469743e+230
-1.33760980e+231
1.52919782e+230
1.29844173e+230
4.58302432e+230
1.54637179e+230
-1.38305052e+229
-2.42496109e+230
5.57048926e+230
-2.64072152e+227
-2.48152311e+228
-2.00116749e+229
-1.14207703e+229
1.95584125e+228
-1.03152090e+229
1.87918474e+229
-1.00152094e+229
-2.05086958e+229
2.15655368e+229
-9.58875635e+229
-2.12694642e+229
-5.52571782e+229
-3.01024689e+228
-5.60969518e+229
1.77120561e+229
6.43870792e+228
6.65638381e+228
-1.87992580e+229
-6.83867402e+227
9.32234767e+228
6.10301072e+226
2.13800566e+227
1.11875184e+227
-2.82468722e+227
2.14204962e+227
3.09949677e+227
-2.93727037e+227
9.74331031e+226
-3.56143945e+226
3.30377638e+226
-2.38371629e+225
-2.32894861e+225
7.30372529e+224
2.55012116e+225
2.94286119e+224
1.13593017e+225
-4.46720426e+224
3.39222315e+224
1.24558963e+224
9.77576761e+223
7.05326051e+223
1.93819717e+223
5.19510471e+222
9.26321168e+220
2.15546722e+222
-1.27764414e+223
-2.05479084e+222
3.68871849e+222
-9.68349803e+222
-2.76145618e+222
-1.45211486e+222
5.07267145e+221
-4.00924820e+221
-2.10709691e+220
-8.57395024e+220
-2.21092092e+221
-8.58945266e+220
-3.51356912e+220
-1.36178046e+221
2.17084306e+220
1.60142083e+220
-1.73983907e+219
-3.27857440e+219
-6.68099471e+219
-4.79040673e+219
5.06531887e+230
-4.14658644e+230
1.02983958e+229
-6.12748461e+228
-3.16908002e+229
1.42765613e+230
1.09765127e+230
1.05594815e+230
-6.42068267e+229
-1.61087023e+230
-2.42065750e+229
1.05267564e+229
1.64846765e+229
1.73186252e+229
7.99420970e+228
-2.13288832e+228
2.79255615e+229
-3.16057201e+228
8.05177956e+229
-1.33998080e+230
1.38349470e+230
3.13527681e+230
4.66385415e+230
4.75043473e+231
-3.97420856e+229
-1.71644151e+231