# vtk DataFile Version 2.0
LBM Flow Field - Timestep 470
ASCII
DATASET STRUCTURED_POINTS
DIMENSIONS 128 128 1
ORIGIN 0.0 0.0 0.0
SPACING 1.0 1.0 1.0
POINT_DATA 16384
SCALARS density double 1
LOOKUP_TABLE default
1.31780424e+00
1.30256530e+00
1.28463728e+00
1.26663853e+00
1.24933067e+00
1.23190233e+00
1.21550428e+00
1.19895273e+00
1.18370479e+00
1.16828950e+00
1.15437241e+00
1.14029462e+00
1.12782460e+00
1.11522071e+00
1.10424963e+00
1.09318958e+00
1.08370998e+00
1.07420029e+00
1.06615399e+00
1.05814481e+00
1.05143391e+00
1.04482905e+00
1.03932790e+00
1.03399667e+00
1.02956359e+00
1.02535325e+00
1.02184095e+00
1.01858862e+00
1.01585270e+00
1.01339595e+00
1.01130111e+00
1.00948647e+00
1.00791056e+00
1.00659966e+00
1.00543576e+00
1.00450912e+00
1.00366608e+00
1.00302453e+00
1.00242649e+00
1.00199086e+00
1.00157602e+00
1.00128539e+00
1.00100451e+00
1.00081361e+00
1.00062830e+00
1.00050460e+00
1.00038566e+00
1.00030647e+00
1.00023232e+00
1.00018220e+00
1.00013732e+00
1.00010599e+00
1.00007962e+00
1.00006032e+00
1.00004526e+00
1.00003359e+00
1.00002520e+00
1.00001831e+00
1.00001373e+00
1.00000977e+00
1.00000731e+00
1.00000511e+00
1.00000380e+00
1.00000262e+00
1.00000193e+00
1.00000132e+00
1.00000095e+00
1.00000065e+00
1.00000046e+00
1.00000031e+00
1.00000021e+00
1.00000015e+00
1.00000010e+00
1.00000007e+00
1.00000004e+00
1.00000003e+00
1.00000002e+00
1.00000001e+00
1.00000001e+00
1.00000001e+00
1.00000000e+00
1.00000000e+00
1.00000000e+00
1.00000000e+00
1.00000000e+00
1.00000000e+00
1.00000000e+00
1.00000000e+00
1.00000000e+00
1.00000000e+00
1.00000000e+00
1.00000000e+00
1.00000000e+00
1.00000000e+00
1.00000000e+00
1.00000000e+00
1.00000000e+00
1.00000000e+00
1.00000000e+00
1.00000000e+00
1.00000000e+00
1.00000000e+00
1.00000000e+00
1.00000000e+00
1.00000000e+00
1.00000000e+00
1.00000000e+00
1.00000000e+00
1.00000000e+00
1.00000000e+00
1.00000000e+00
1.00000000e+00
1.00000000e+00
1.00000000e+00
1.00000000e+00
1.00000000e+00
1.00000000e+00
1.00000000e+00
1.00000000e+00
1.00000000e+00
1.00000000e+00
1.00000000e+00
1.00000000e+00
1.00000000e+00
1.00000000e+00
1.00000000e+00
1.00000000e+00
1.00000000e+00
1.12124334e+00
1.09886774e+00
1.08108435e+00
1.07930068e+00
1.07474368e+00
1.06637047e+00
1.06336854e+00
1.06001250e+00
1.05702572e+00
1.05479902e+00
1.05422606e+00
1.05681530e+00
1.05571454e+00
1.05067191e+00
1.05282544e+00
1.05189559e+00
1.05023119e+00
1.04931711e+00
1.05266129e+00
1.04842323e+00
1.04486497e+00
1.04916540e+00
1.05153405e+00
1.05232983e+00
1.05328190e+00
1.05781015e+00
1.06355706e+00
1.06369653e+00
1.05887612e+00
1.05820102e+00
1.06012065e+00
1.05951087e+00
1.05663293e+00
1.05702050e+00
1.05860888e+00
1.05484634e+00
1.05009409e+00
1.05632476e+00
1.06319566e+00
1.05842762e+00
1.05106304e+00
1.05154529e+00
1.05560999e+00
1.06036822e+00
1.05708930e+00
1.05176400e+00
1.04913443e+00
1.05473272e+00
1.05600704e+00
1.05463601e+00
1.05240053e+00
1.05216951e+00
1.05104779e+00
1.05156759e+00
1.05185041e+00
1.05151820e+00
1.05029713e+00
1.05052821e+00
1.05118786e+00
1.04748881e+00
1.04763453e+00
1.04950025e+00
1.04825509e+00
1.04927427e+00
1.04540312e+00
1.04851274e+00
1.05039390e+00
1.04372908e+00
1.04660966e+00
1.04897381e+00
1.04532231e+00
1.04575763e+00
1.04711372e+00
1.04501862e+00
1.04387394e+00
1.04578024e+00
1.04497142e+00
1.04328531e+00
1.04313463e+00
1.04420602e+00
1.04191409e+00
1.04152308e+00
1.04298391e+00
1.04026659e+00
1.03976072e+00
1.04108789e+00
1.04073904e+00
1.04001121e+00
1.03880695e+00
1.03918716e+00
1.03975260e+00
1.03963063e+00
1.03961362e+00
1.03818007e+00
1.03853600e+00
1.03760794e+00
1.03702017e+00
1.03554582e+00
1.03659469e+00
1.03563018e+00
1.03632742e+00
1.03539950e+00
1.03737867e+00
1.03669969e+00
1.03596928e+00
1.03714671e+00
1.03502051e+00
1.03412929e+00
1.03419722e+00
1.03471618e+00
1.03142759e+00
1.03293160e+00
1.03429375e+00
1.03426064e+00
1.03306866e+00
1.03144160e+00
1.03305632e+00
1.03255966e+00
1.03093130e+00
1.03105302e+00
1.03057263e+00
1.03114975e+00
1.03180558e+00
1.02980096e+00
1.02811220e+00
1.03024367e+00
1.02947064e+00
1.02799998e+00
1.09787166e+00
1.09414815e+00
1.09208161e+00
1.07896964e+00
1.06618785e+00
1.06560414e+00
1.06871807e+00
1.06203988e+00
1.05633401e+00
1.05592066e+00
1.05642611e+00
1.05819707e+00
1.05532960e+00
1.04926678e+00
1.05052333e+00
1.05083594e+00
1.05202329e+00
1.04960548e+00
1.04769516e+00
1.05045008e+00
1.04647307e+00
1.04627929e+00
1.05143630e+00
1.05395998e+00
1.05392983e+00
1.05800552e+00
1.06157541e+00
1.05961957e+00
1.05778279e+00
1.05810721e+00
1.05909205e+00
1.05817487e+00
1.05847007e+00
1.05839439e+00
1.05719566e+00
1.05681945e+00
1.05531864e+00
1.05790952e+00
1.06095252e+00
1.05240644e+00
1.05115013e+00
1.05908966e+00
1.05951527e+00
1.05367767e+00
1.05343084e+00
1.05500639e+00
1.05452233e+00
1.05204688e+00
1.05195879e+00
1.05205422e+00
1.05110849e+00
1.05309926e+00
1.05337786e+00
1.05216899e+00
1.05083885e+00
1.05154800e+00
1.05246362e+00
1.05272451e+00
1.04917109e+00
1.05091269e+00
1.04903500e+00
1.04939238e+00
1.04760704e+00
1.04715885e+00
1.04872520e+00
1.04505603e+00
1.04972879e+00
1.04686110e+00
1.04250920e+00
1.04829406e+00
1.04333283e+00
1.04297637e+00
1.04578903e+00
1.04640271e+00
1.03995535e+00
1.04173880e+00
1.04393054e+00
1.04381203e+00
1.04136618e+00
1.04179219e+00
1.04131237e+00
1.04039321e+00
1.04271866e+00
1.03966176e+00
1.03800034e+00
1.03895999e+00
1.04012869e+00
1.03862040e+00
1.03749884e+00
1.03688727e+00
1.03823515e+00
1.03778528e+00
1.03846801e+00
1.03724585e+00
1.03808706e+00
1.03746787e+00
1.03633116e+00
1.03696926e+00
1.03719178e+00
1.03544647e+00
1.03447736e+00
1.03445045e+00
1.03414964e+00
1.03655607e+00
1.03419162e+00
1.03543423e+00
1.03419511e+00
1.03576254e+00
1.03521240e+00
1.03527532e+00
1.03366806e+00
1.03356273e+00
1.03552623e+00
1.03460813e+00
1.03236359e+00
1.03030355e+00
1.03367723e+00
1.03124411e+00
1.02874345e+00
1.03089947e+00
1.03131962e+00
1.03187157e+00
1.03017017e+00
1.02940632e+00
1.02966429e+00
1.02975403e+00
1.02983937e+00
1.02879860e+00
1.08710506e+00
1.09274902e+00
1.08259777e+00
1.07132920e+00
1.07183504e+00
1.07470604e+00
1.06707027e+00
1.05745663e+00
1.05872910e+00
1.05940965e+00
1.05784353e+00
1.05595477e+00
1.05590959e+00
1.05241164e+00
1.04908043e+00
1.04659969e+00
1.05250715e+00
1.05365198e+00
1.04738485e+00
1.04606003e+00
1.04948904e+00
1.05479980e+00
1.04975146e+00
1.04783202e+00
1.05312300e+00
1.05690338e+00
1.06510035e+00
1.05866202e+00
1.05178534e+00
1.05601835e+00
1.06155810e+00
1.05680785e+00
1.05414871e+00
1.05969107e+00
1.06251044e+00
1.05798434e+00
1.05609383e+00
1.05647092e+00
1.05673598e+00
1.05350227e+00
1.05607801e+00
1.06012287e+00
1.05448957e+00
1.05111895e+00
1.05488742e+00
1.05944115e+00
1.05281125e+00
1.04935334e+00
1.05212341e+00
1.05361072e+00
1.05174017e+00
1.05072692e+00
1.05001201e+00
1.05116001e+00
1.05225783e+00
1.05168579e+00
1.04719342e+00
1.04782175e+00
1.04897974e+00
1.05204453e+00
1.05150384e+00
1.04740590e+00
1.04730665e+00
1.04659953e+00
1.04736824e+00
1.04601342e+00
1.04327871e+00
1.04751069e+00
1.04484285e+00
1.04612568e+00
1.04494625e+00
1.04469840e+00
1.04268228e+00
1.04329790e+00
1.04352610e+00
1.04328085e+00
1.04214049e+00
1.04248833e+00
1.03981539e+00
1.04308267e+00
1.04301236e+00
1.04067375e+00
1.04022819e+00
1.04059170e+00
1.03897743e+00
1.04132410e+00
1.03921176e+00
1.03926484e+00
1.03744587e+00
1.03892531e+00
1.03840139e+00
1.03729829e+00
1.03602117e+00
1.03786518e+00
1.03814663e+00
1.03945572e+00
1.03516573e+00
1.03855348e+00
1.03759946e+00
1.03657949e+00
1.03408712e+00
1.03315103e+00
1.03632763e+00
1.03447731e+00
1.03240131e+00
1.03416644e+00
1.03426666e+00
1.03414094e+00
1.03633077e+00
1.03679930e+00
1.03152052e+00
1.03319942e+00
1.03643603e+00
1.03283589e+00
1.03206490e+00
1.02926861e+00
1.03296100e+00
1.03356282e+00
1.02675367e+00
1.02967315e+00
1.03074202e+00
1.03254858e+00
1.02912812e+00
1.02591044e+00
1.03001094e+00
1.03113902e+00
1.02878038e+00
1.02780135e+00
1.08652264e+00
1.07716422e+00
1.07178345e+00
1.08036059e+00
1.08096008e+00
1.07190160e+00
1.06679678e+00
1.06998782e+00
1.05983855e+00
1.05089836e+00
1.05929450e+00
1.06270169e+00
1.05583997e+00
1.05348052e+00
1.04768916e+00
1.04639335e+00
1.05117115e+00
1.05580575e+00
1.05190162e+00
1.04363763e+00
1.04579726e+00
1.05555396e+00
1.05644513e+00
1.05248984e+00
1.05156152e+00
1.05444594e+00
1.06274646e+00
1.05669886e+00
1.05455966e+00
1.05941384e+00
1.06119472e+00
1.05752188e+00
1.05471349e+00
1.06165000e+00
1.06293960e+00
1.05340868e+00
1.05254371e+00
1.05933125e+00
1.06301730e+00
1.05464395e+00
1.05197532e+00
1.05412808e+00
1.05644875e+00
1.05500216e+00
1.05242129e+00
1.05556031e+00
1.05118733e+00
1.05214491e+00
1.05450966e+00
1.05185077e+00
1.04963624e+00
1.05237613e+00
1.05355257e+00
1.05075890e+00
1.04843003e+00
1.04958261e+00
1.04857641e+00
1.04874050e+00
1.04974562e+00
1.04637645e+00
1.04930876e+00
1.04847303e+00
1.05021339e+00
1.04829277e+00
1.04324935e+00
1.04985154e+00
1.04589603e+00
1.04787827e+00
1.04801512e+00
1.04438904e+00
1.04257196e+00
1.04743246e+00
1.04605287e+00
1.04286735e+00
1.04536487e+00
1.04478691e+00
1.04272063e+00
1.04574393e+00
1.04146447e+00
1.04181583e+00
1.04044303e+00
1.04128519e+00
1.04265969e+00
1.04273098e+00
1.03894386e+00
1.04309962e+00
1.04098059e+00
1.04113367e+00
1.03874651e+00
1.04029467e+00
1.03922690e+00
1.03760138e+00
1.03749793e+00
1.03761063e+00
1.03807103e+00
1.03778768e+00
1.03483049e+00
1.03877554e+00
1.03755995e+00
1.03599611e+00
1.03650407e+00
1.03388990e+00
1.03678438e+00
1.03650023e+00
1.03245581e+00
1.03313561e+00
1.03468671e+00
1.03564897e+00
1.03422050e+00
1.03544690e+00
1.03241012e+00
1.03391032e+00
1.03581050e+00
1.03215370e+00
1.03086704e+00
1.03127620e+00
1.03405945e+00
1.03349089e+00
1.02822375e+00
1.03066431e+00
1.03108121e+00
1.03110835e+00
1.02881773e+00
1.02726988e+00
1.02817250e+00
1.03135766e+00
1.02954727e+00
1.02797921e+00
1.08466500e+00
1.07399176e+00
1.07580390e+00
1.07920952e+00
1.07348391e+00
1.07870560e+00
1.07681721e+00
1.06657403e+00
1.05524779e+00
1.05414245e+00
1.05870997e+00
1.06721747e+00
1.06186716e+00
1.05180580e+00
1.04321078e+00
1.04735992e+00
1.05335633e+00
1.05784552e+00
1.05375264e+00
1.04493237e+00
1.04616371e+00
1.05994431e+00
1.06098217e+00
1.05145872e+00
1.04908404e+00
1.05959900e+00
1.06152115e+00
1.05607837e+00
1.05398501e+00
1.05965115e+00
1.06595077e+00
1.05791890e+00
1.05155122e+00
1.06012919e+00
1.06380064e+00
1.05388556e+00
1.04752509e+00
1.06000081e+00
1.06428871e+00
1.05067747e+00
1.05123469e+00
1.06076070e+00
1.05863540e+00
1.04846809e+00
1.05048571e+00
1.05954305e+00
1.05373902e+00
1.04720887e+00
1.05225725e+00
1.05553908e+00
1.05461847e+00
1.05078217e+00
1.05107956e+00
1.04964404e+00
1.05150044e+00
1.05079766e+00
1.04927321e+00
1.04633849e+00
1.04686166e+00
1.04925146e+00
1.05112024e+00
1.04706729e+00
1.04606816e+00
1.04777936e+00
1.04784184e+00
1.04797408e+00
1.04844740e+00
1.04411581e+00
1.04753126e+00
1.04936675e+00
1.04480663e+00
1.04443731e+00
1.04397286e+00
1.04202623e+00
1.04631040e+00
1.04676621e+00
1.04271629e+00
1.04253516e+00
1.04117057e+00
1.04301701e+00
1.04299004e+00
1.04023344e+00
1.04161817e+00
1.04165863e+00
1.04170726e+00
1.04374723e+00
1.04126170e+00
1.03830008e+00
1.03943014e+00
1.04233217e+00
1.04159223e+00
1.03766023e+00
1.03801384e+00
1.03693551e+00
1.03770968e+00
1.03656351e+00
1.03498983e+00
1.03810712e+00
1.03620798e+00
1.03546259e+00
1.03663285e+00
1.03645020e+00
1.03883657e+00
1.03609863e+00
1.03253175e+00
1.03479027e+00
1.03446198e+00
1.03301018e+00
1.03570554e+00
1.03419488e+00
1.03023011e+00
1.03446900e+00
1.03336174e+00
1.02885347e+00
1.03202381e+00
1.03146931e+00
1.03435670e+00
1.03098150e+00
1.02776614e+00
1.03445270e+00
1.02983503e+00
1.02980243e+00
1.02714782e+00
1.02887168e+00
1.02887005e+00
1.02814389e+00
1.02776957e+00
1.02798062e+00
1.07315932e+00
1.07867717e+00
1.08075754e+00
1.07250081e+00
1.07369447e+00
1.08229661e+00
1.07353233e+00
1.06505818e+00
1.06171215e+00
1.05993929e+00
1.05622816e+00
1.06462866e+00
1.07053390e+00
1.06038788e+00
1.03829852e+00
1.04066382e+00
1.05877941e+00
1.06679833e+00
1.05920049e+00
1.04407045e+00
1.04770708e+00
1.06147154e+00
1.06278481e+00
1.05418627e+00
1.04983316e+00
1.06097085e+00
1.06174665e+00
1.05445291e+00
1.05221645e+00
1.06370576e+00
1.06323330e+00
1.05276315e+00
1.05466566e+00
1.06454851e+00
1.05906808e+00
1.04789175e+00
1.05084794e+00
1.06308896e+00
1.05975697e+00
1.04696028e+00
1.05201124e+00
1.06355058e+00
1.05752184e+00
1.04760610e+00
1.05242877e+00
1.06031645e+00
1.05288990e+00
1.05045565e+00
1.05575339e+00
1.05402499e+00
1.05011865e+00
1.05067454e+00
1.05426881e+00
1.05133370e+00
1.05019662e+00
1.04844342e+00
1.05166695e+00
1.05451531e+00
1.04811749e+00
1.04639897e+00
1.04699474e+00
1.04665450e+00
1.04878425e+00
1.04872105e+00
1.04985800e+00
1.04256958e+00
1.04822916e+00
1.04857585e+00
1.04414816e+00
1.04334798e+00
1.04226000e+00
1.04572401e+00
1.04573140e+00
1.04402175e+00
1.04271064e+00
1.04171043e+00
1.04205104e+00
1.04606391e+00
1.04292119e+00
1.04148181e+00
1.04199841e+00
1.04018630e+00
1.04305491e+00
1.04224025e+00
1.04050396e+00
1.04005297e+00
1.04013191e+00
1.03944237e+00
1.03985963e+00
1.03994749e+00
1.03928742e+00
1.03897621e+00
1.03987255e+00
1.03724672e+00
1.03739844e+00
1.03513815e+00
1.03635934e+00
1.03809345e+00
1.03550527e+00
1.03310293e+00
1.03658517e+00
1.03579409e+00
1.03890801e+00
1.03796185e+00
1.03365867e+00
1.03650358e+00
1.03731918e+00
1.03437182e+00
1.03278486e+00
1.03436856e+00
1.03245767e+00
1.03172441e+00
1.03189211e+00
1.03015398e+00
1.03200804e+00
1.03227156e+00
1.03415673e+00
1.03252683e+00
1.02867511e+00
1.03439820e+00
1.03101068e+00
1.02892772e+00
1.02752834e+00
1.02874526e+00
1.03010163e+00
1.02891061e+00
1.02714726e+00
1.02778548e+00
1.06698590e+00
1.07530779e+00
1.07244175e+00
1.07215787e+00
1.08021502e+00
1.07532941e+00
1.07090965e+00
1.07265660e+00
1.05736970e+00
1.05035674e+00
1.06239467e+00
1.07491086e+00
1.07016237e+00
1.05529999e+00
1.04085943e+00
1.04657030e+00
1.06070203e+00
1.06869881e+00
1.05681760e+00
1.04615411e+00
1.05835046e+00
1.06606785e+00
1.05994820e+00
1.05134725e+00
1.05181261e+00
1.06310092e+00
1.06786712e+00
1.05622102e+00
1.05144235e+00
1.06107294e+00
1.06636931e+00
1.05411755e+00
1.04845190e+00
1.06029204e+00
1.06344147e+00
1.05293584e+00
1.05163008e+00
1.06061850e+00
1.05861106e+00
1.05052556e+00
1.05602448e+00
1.06136660e+00
1.05308101e+00
1.04695008e+00
1.05758792e+00
1.06100248e+00
1.04842930e+00
1.05003186e+00
1.05653162e+00
1.05355941e+00
1.05108449e+00
1.05256593e+00
1.04918288e+00
1.04654614e+00
1.05158124e+00
1.05524408e+00
1.04801709e+00
1.05014052e+00
1.04894741e+00
1.04762368e+00
1.05186848e+00
1.04744094e+00
1.04695380e+00
1.04560426e+00
1.04784262e+00
1.04921910e+00
1.04438218e+00
1.04504890e+00
1.04434980e+00
1.04753498e+00
1.04675748e+00
1.04675157e+00
1.04010216e+00
1.04046141e+00
1.04630300e+00
1.04448169e+00
1.03945807e+00
1.04183982e+00
1.04045210e+00
1.04153055e+00
1.04376801e+00
1.04025836e+00
1.03892775e+00
1.03955642e+00
1.04076238e+00
1.04133557e+00
1.03869206e+00
1.03696988e+00
1.03805231e+00
1.03911405e+00
1.03838154e+00
1.03796344e+00
1.03892951e+00
1.03645453e+00
1.03767430e+00
1.03542777e+00
1.03565818e+00
1.03793172e+00
1.03476457e+00
1.03329310e+00
1.03551944e+00
1.03537661e+00
1.03669666e+00
1.03424078e+00
1.03332916e+00
1.03871315e+00
1.03583247e+00
1.03457344e+00
1.03338436e+00
1.03309608e+00
1.03353294e+00
1.03373600e+00
1.03079188e+00
1.03055273e+00
1.03420319e+00
1.03289431e+00
1.03136212e+00
1.02832054e+00
1.03141475e+00
1.03404584e+00
1.02971010e+00
1.02974763e+00
1.02997560e+00
1.02832150e+00
1.02939095e+00
1.02745782e+00
1.02822582e+00
1.02756106e+00
1.07481918e+00
1.06955909e+00
1.06533042e+00
1.07689861e+00
1.07853083e+00
1.07364447e+00
1.07387206e+00
1.06935676e+00
1.05686481e+00
1.05463287e+00
1.06376510e+00
1.07569079e+00
1.07126057e+00
1.05388920e+00
1.04500840e+00
1.04785022e+00
1.05651441e+00
1.06870991e+00
1.05895298e+00
1.05023277e+00
1.05776472e+00
1.06688062e+00
1.06205431e+00
1.05311994e+00
1.05532760e+00
1.06088593e+00
1.06280586e+00
1.06014706e+00
1.05324594e+00
1.05793976e+00
1.06742702e+00
1.05337210e+00
1.04840247e+00
1.05943696e+00
1.06315563e+00
1.05205861e+00
1.05167752e+00
1.06544476e+00
1.06144233e+00
1.05035341e+00
1.05159224e+00
1.05798901e+00
1.05547411e+00
1.05233033e+00
1.05700459e+00
1.05459643e+00
1.04648185e+00
1.05406564e+00
1.06093956e+00
1.05161586e+00
1.04672497e+00
1.05180382e+00
1.05425062e+00
1.05115074e+00
1.04922280e+00
1.05045209e+00
1.04634598e+00
1.05065098e+00
1.05339791e+00
1.04581619e+00
1.04782980e+00
1.04683011e+00
1.05077900e+00
1.04937480e+00
1.04215799e+00
1.04863360e+00
1.04636606e+00
1.04501718e+00
1.04709138e+00
1.04710300e+00
1.04163143e+00
1.04677395e+00
1.04988684e+00
1.04294601e+00
1.04343306e+00
1.03996768e+00
1.04011636e+00
1.04402808e+00
1.04187840e+00
1.03808971e+00
1.04073139e+00
1.04039739e+00
1.04291563e+00
1.04134050e+00
1.04004833e+00
1.04050844e+00
1.03989894e+00
1.03892398e+00
1.03921662e+00
1.03809234e+00
1.03681444e+00
1.03749542e+00
1.03841652e+00
1.03719154e+00
1.03745395e+00
1.03822216e+00
1.03832235e+00
1.04068615e+00
1.03430154e+00
1.03345437e+00
1.03766805e+00
1.03458062e+00
1.03441107e+00
1.03528763e+00
1.03291122e+00
1.03730872e+00
1.03542318e+00
1.03344678e+00
1.03381930e+00
1.03713606e+00
1.03458173e+00
1.03302335e+00
1.03317134e+00
1.03136821e+00
1.03538620e+00
1.03229254e+00
1.03019075e+00
1.02697783e+00
1.02949142e+00
1.03343485e+00
1.02973469e+00
1.02828107e+00
1.03096300e+00
1.03115757e+00
1.02970125e+00
1.02730477e+00
1.02805746e+00
1.02917967e+00
1.07471058e+00
1.06998952e+00
1.07065350e+00
1.07185850e+00
1.07142789e+00
1.08187202e+00
1.07761572e+00
1.06156083e+00
1.05802425e+00
1.06273908e+00
1.06652522e+00
1.07212832e+00
1.06967078e+00
1.05558230e+00
1.04399804e+00
1.04830603e+00
1.06634643e+00
1.06740136e+00
1.05082611e+00
1.05100750e+00
1.06418100e+00
1.07069436e+00
1.06377194e+00
1.04960940e+00
1.05442962e+00
1.06550994e+00
1.06391411e+00
1.05417840e+00
1.04955391e+00
1.06287091e+00
1.06817731e+00
1.05936106e+00
1.04686123e+00
1.05695957e+00
1.06678191e+00
1.05715861e+00
1.05106573e+00
1.05990265e+00
1.05972186e+00
1.05050411e+00
1.05407325e+00
1.06254339e+00
1.05393363e+00
1.04701046e+00
1.05377328e+00
1.05889059e+00
1.05052631e+00
1.05347821e+00
1.05691449e+00
1.04883418e+00
1.04743891e+00
1.05568819e+00
1.05411563e+00
1.04939579e+00
1.05092109e+00
1.05232312e+00
1.04963794e+00
1.04660783e+00
1.04554143e+00
1.04904875e+00
1.05158819e+00
1.04736311e+00
1.04293667e+00
1.04736255e+00
1.04515229e+00
1.04739439e+00
1.05043469e+00
1.04303845e+00
1.04384669e+00
1.04931227e+00
1.04678712e+00
1.04373742e+00
1.04447436e+00
1.04095094e+00
1.04638035e+00
1.04433561e+00
1.04259946e+00
1.04248742e+00
1.03995876e+00
1.04073463e+00
1.04469725e+00
1.04103317e+00
1.04074857e+00
1.04313930e+00
1.04308475e+00
1.04373315e+00
1.04017180e+00
1.03925284e+00
1.03979721e+00
1.04067948e+00
1.03902146e+00
1.03964480e+00
1.03718719e+00
1.03570123e+00
1.03821255e+00
1.04091924e+00
1.03823876e+00
1.03972945e+00
1.03550648e+00
1.03723567e+00
1.03963359e+00
1.03462109e+00
1.03371738e+00
1.03378573e+00
1.03550246e+00
1.03796230e+00
1.03383824e+00
1.03460352e+00
1.03501317e+00
1.03563953e+00
1.03511651e+00
1.03231451e+00
1.03354862e+00
1.03179082e+00
1.03459856e+00
1.03121437e+00
1.03052510e+00
1.03014808e+00
1.03009017e+00
1.03181012e+00
1.02878258e+00
1.03110430e+00
1.02996525e+00
1.02884036e+00
1.02917108e+00
1.02736230e+00
1.02744441e+00
1.02772198e+00
1.06156121e+00
1.06393624e+00
1.07557991e+00
1.07178603e+00
1.07490189e+00
1.08342227e+00
1.07359172e+00
1.06402931e+00
1.06059760e+00
1.05836775e+00
1.06950161e+00
1.07372468e+00
1.06501760e+00
1.05348226e+00
1.04658998e+00
1.05426251e+00
1.07282659e+00
1.06582796e+00
1.05342401e+00
1.05631077e+00
1.06219135e+00
1.06460175e+00
1.06115657e+00
1.05310183e+00
1.05303117e+00
1.06101032e+00
1.06722729e+00
1.05908203e+00
1.05117846e+00
1.05907223e+00
1.06489832e+00
1.06105070e+00
1.04926834e+00
1.06222335e+00
1.06531453e+00
1.05417812e+00
1.05134585e+00
1.06082087e+00
1.05694104e+00
1.05037730e+00
1.05429396e+00
1.05905432e+00
1.05223518e+00
1.05144015e+00
1.05925231e+00
1.05572949e+00
1.04677235e+00
1.05270844e+00
1.05702353e+00
1.04726831e+00
1.04915577e+00
1.05740844e+00
1.05260702e+00
1.04778596e+00
1.05532799e+00
1.05035239e+00
1.04734214e+00
1.05172645e+00
1.04918571e+00
1.04877916e+00
1.04924837e+00
1.04543089e+00
1.04595620e+00
1.05129849e+00
1.05016882e+00
1.04413729e+00
1.04751072e+00
1.04539011e+00
1.04456899e+00
1.04322820e+00
1.04197787e+00
1.04392148e+00
1.04521661e+00
1.04449404e+00
1.04448229e+00
1.04098569e+00
1.04060707e+00
1.04673909e+00
1.04075114e+00
1.04052716e+00
1.04200118e+00
1.04033547e+00
1.04070374e+00
1.04409820e+00
1.04251397e+00
1.04231408e+00
1.03986555e+00
1.04238699e+00
1.04095956e+00
1.04035535e+00
1.04009197e+00
1.04168336e+00
1.03947223e+00
1.03629199e+00
1.03731144e+00
1.03943122e+00
1.03730956e+00
1.03939485e+00
1.03589429e+00
1.03883781e+00
1.04274748e+00
1.03290985e+00
1.03714958e+00
1.03698694e+00
1.03448841e+00
1.03861980e+00
1.03483443e+00
1.03529958e+00
1.03534642e+00
1.03569764e+00
1.03528547e+00
1.03273981e+00
1.03229278e+00
1.03420640e+00
1.03610986e+00
1.03127274e+00
1.03052965e+00
1.03142779e+00
1.03018499e+00
1.03198127e+00
1.02706781e+00
1.03209634e+00
1.03213984e+00
1.02920505e+00
1.02926035e+00
1.02862213e+00
1.02824778e+00
1.02811557e+00
1.06374134e+00
1.06849097e+00
1.06842026e+00
1.07393611e+00
1.08259034e+00
1.07805176e+00
1.06837315e+00
1.06793586e+00
1.06089357e+00
1.05630408e+00
1.07031530e+00
1.07569284e+00
1.06313054e+00
1.05013148e+00
1.05162682e+00
1.05899640e+00
1.06768814e+00
1.06956456e+00
1.05980334e+00
1.04842502e+00
1.05866211e+00
1.07060638e+00
1.06308127e+00
1.05306750e+00
1.05173773e+00
1.06089280e+00
1.07044508e+00
1.05995881e+00
1.04688332e+00
1.05716958e+00
1.06658065e+00
1.05727722e+00
1.05017234e+00
1.05905310e+00
1.06562225e+00
1.05695594e+00
1.05170460e+00
1.05844403e+00
1.05697046e+00
1.05398849e+00
1.05305695e+00
1.05630909e+00
1.05418536e+00
1.05647477e+00
1.05985319e+00
1.05340053e+00
1.04534922e+00
1.05447082e+00
1.05817217e+00
1.04850704e+00
1.05119864e+00
1.05664594e+00
1.04963211e+00
1.04327223e+00
1.05332992e+00
1.05369414e+00
1.04528014e+00
1.05139291e+00
1.05184092e+00
1.04679979e+00
1.05194370e+00
1.04719815e+00
1.04806251e+00
1.04807136e+00
1.04516049e+00
1.04844117e+00
1.04624643e+00
1.04476585e+00
1.04526545e+00
1.04472701e+00
1.04268375e+00
1.04662241e+00
1.04195484e+00
1.03998129e+00
1.04348485e+00
1.04516392e+00
1.04078844e+00
1.04458186e+00
1.03922151e+00
1.04303074e+00
1.04481101e+00
1.04161713e+00
1.03941009e+00
1.04077726e+00
1.04122451e+00
1.04400797e+00
1.03877560e+00
1.04005074e+00
1.03928601e+00
1.04152226e+00
1.04225369e+00
1.04168526e+00
1.03831083e+00
1.03612780e+00
1.03992230e+00
1.03847026e+00
1.03582884e+00
1.03637756e+00
1.03448769e+00
1.03751606e+00
1.04227512e+00
1.03562207e+00
1.03661040e+00
1.03976584e+00
1.03824777e+00
1.03968867e+00
1.03419364e+00
1.03721479e+00
1.03593429e+00
1.03321522e+00
1.03305353e+00
1.03479134e+00
1.03558637e+00
1.03331998e+00
1.03396427e+00
1.03109508e+00
1.03308924e+00
1.03490990e+00
1.03187902e+00
1.03363024e+00
1.02678387e+00
1.03176793e+00
1.03014006e+00
1.02794377e+00
1.02979509e+00
1.02942876e+00
1.02856139e+00
1.02980990e+00
1.07395033e+00
1.07348977e+00
1.06638174e+00
1.07596639e+00
1.08122151e+00
1.07521402e+00
1.06767957e+00
1.06291602e+00
1.05541998e+00
1.06265712e+00
1.07086609e+00
1.07290128e+00
1.06579385e+00
1.05228693e+00
1.04758648e+00
1.05802115e+00
1.07149225e+00
1.07593725e+00
1.05671124e+00
1.04641948e+00
1.06146901e+00
1.07177103e+00
1.06101910e+00
1.05042832e+00
1.05412373e+00
1.06862691e+00
1.06896231e+00
1.05487873e+00
1.05208505e+00
1.05961080e+00
1.06536631e+00
1.05984209e+00
1.05009845e+00
1.05596109e+00
1.06435588e+00
1.05452677e+00
1.05175984e+00
1.05951714e+00
1.05809938e+00
1.05073788e+00
1.05442028e+00
1.06240841e+00
1.06043134e+00
1.05159739e+00
1.05074132e+00
1.05285430e+00
1.05201992e+00
1.05752357e+00
1.05462055e+00
1.04835116e+00
1.05371385e+00
1.05467926e+00
1.04883334e+00
1.04667211e+00
1.05132588e+00
1.05190009e+00
1.04787775e+00
1.05174528e+00
1.05079731e+00
1.04449844e+00
1.04888599e+00
1.04590861e+00
1.04732252e+00
1.05176441e+00
1.04349846e+00
1.04616364e+00
1.04607779e+00
1.04552704e+00
1.04586193e+00
1.04740862e+00
1.04103009e+00
1.04547619e+00
1.04706980e+00
1.04354890e+00
1.04377178e+00
1.04244411e+00
1.04121472e+00
1.04458697e+00
1.04212422e+00
1.04379040e+00
1.04175031e+00
1.03847922e+00
1.04311819e+00
1.04356617e+00
1.04129220e+00
1.04224045e+00
1.04011122e+00
1.04115942e+00
1.04062993e+00
1.04055883e+00
1.04141761e+00
1.03967577e+00
1.04088900e+00
1.03894177e+00
1.04004319e+00
1.03776647e+00
1.03513845e+00
1.03832863e+00
1.03482959e+00
1.03807741e+00
1.03879101e+00
1.03288761e+00
1.03932363e+00
1.04011272e+00
1.03601640e+00
1.03994682e+00
1.03309386e+00
1.03854599e+00
1.03840777e+00
1.03441098e+00
1.03308024e+00
1.03251825e+00
1.03618154e+00
1.03506099e+00
1.03217717e+00
1.03194546e+00
1.03630473e+00
1.03595774e+00
1.03080946e+00
1.03177608e+00
1.02752256e+00
1.03293698e+00
1.03047730e+00
1.02827987e+00
1.03247629e+00
1.02957991e+00
1.02716600e+00
1.02957811e+00
1.07198934e+00
1.06343139e+00
1.07082298e+00
1.07652021e+00
1.07288629e+00
1.07330250e+00
1.07015036e+00
1.05996526e+00
1.05235030e+00
1.06534459e+00
1.07072074e+00
1.07150992e+00
1.06498605e+00
1.04981782e+00
1.04499941e+00
1.06143767e+00
1.07494690e+00
1.06976016e+00
1.05661994e+00
1.05555497e+00
1.06131389e+00
1.06615438e+00
1.06415549e+00
1.05380121e+00
1.05461103e+00
1.06599018e+00
1.06700262e+00
1.05379747e+00
1.05452576e+00
1.06082699e+00
1.06371501e+00
1.05897788e+00
1.05258765e+00
1.06024064e+00
1.05945839e+00
1.05409230e+00
1.05492123e+00
1.05926948e+00
1.05520617e+00
1.05541506e+00
1.05953846e+00
1.06102835e+00
1.05128206e+00
1.04812314e+00
1.05605745e+00
1.05860552e+00
1.05146867e+00
1.05340750e+00
1.05137515e+00
1.05033682e+00
1.05440176e+00
1.05152681e+00
1.04468212e+00
1.05043698e+00
1.05744560e+00
1.04688239e+00
1.04604386e+00
1.05073404e+00
1.04972382e+00
1.04758597e+00
1.04804167e+00
1.04692627e+00
1.04452929e+00
1.05065714e+00
1.04597688e+00
1.04077321e+00
1.04704463e+00
1.04599097e+00
1.04520287e+00
1.04729393e+00
1.04437405e+00
1.04369750e+00
1.04459011e+00
1.04379438e+00
1.04631461e+00
1.04371124e+00
1.04393504e+00
1.04260716e+00
1.03944512e+00
1.04230975e+00
1.04283453e+00
1.03974733e+00
1.04336527e+00
1.04312710e+00
1.04225672e+00
1.04347704e+00
1.04087336e+00
1.04106750e+00
1.03976429e+00
1.04015063e+00
1.04177621e+00
1.04031204e+00
1.03965404e+00
1.03934670e+00
1.04126751e+00
1.03965559e+00
1.03636730e+00
1.03892159e+00
1.03640727e+00
1.03773451e+00
1.03983643e+00
1.03296288e+00
1.03993534e+00
1.04203111e+00
1.03533942e+00
1.03862791e+00
1.03623458e+00
1.03747534e+00
1.03715291e+00
1.03386600e+00
1.03699513e+00
1.03581284e+00
1.03466210e+00
1.03518251e+00
1.03568181e+00
1.03107533e+00
1.03489006e+00
1.03587226e+00
1.03344601e+00
1.03337486e+00
1.02925041e+00
1.03503973e+00
1.03110156e+00
1.02701594e+00
1.03315331e+00
1.03089775e+00
1.02911926e+00
1.02830150e+00
1.06482516e+00
1.05730287e+00
1.06987425e+00
1.07397232e+00
1.07404750e+00
1.07400008e+00
1.06719502e+00
1.06107289e+00
1.05748081e+00
1.06214523e+00
1.07012961e+00
1.07774409e+00
1.06321675e+00
1.04570436e+00
1.04683529e+00
1.06177395e+00
1.07602836e+00
1.07242033e+00
1.05595708e+00
1.05046825e+00
1.05795633e+00
1.06869751e+00
1.06815993e+00
1.05973577e+00
1.05529800e+00
1.06358454e+00
1.06896245e+00
1.05443677e+00
1.04825223e+00
1.05952817e+00
1.06918386e+00
1.05660405e+00
1.05193785e+00
1.06012850e+00
1.06050256e+00
1.05404722e+00
1.05289884e+00
1.06036734e+00
1.05787835e+00
1.05698513e+00
1.05778698e+00
1.05576593e+00
1.04817210e+00
1.05314039e+00
1.06083330e+00
1.05581962e+00
1.04596573e+00
1.05718367e+00
1.05424069e+00
1.04681807e+00
1.05018186e+00
1.05502855e+00
1.04654272e+00
1.05004633e+00
1.05596771e+00
1.04610364e+00
1.04509893e+00
1.05530162e+00
1.04627496e+00
1.04218061e+00
1.04593708e+00
1.05110809e+00
1.04974763e+00
1.04685442e+00
1.04588363e+00
1.04546687e+00
1.04802023e+00
1.04595448e+00
1.04424081e+00
1.04409025e+00
1.04471854e+00
1.04760431e+00
1.04447315e+00
1.04495640e+00
1.04625428e+00
1.04327461e+00
1.04286563e+00
1.04348114e+00
1.04098777e+00
1.04228761e+00
1.04073723e+00
1.03977550e+00
1.04401343e+00
1.04353132e+00
1.04215618e+00
1.04312792e+00
1.04111936e+00
1.04220321e+00
1.04174650e+00
1.03967307e+00
1.03983900e+00
1.03648630e+00
1.04088472e+00
1.03904991e+00
1.04209373e+00
1.03788246e+00
1.03835355e+00
1.04237743e+00
1.03887098e+00
1.03938856e+00
1.03993502e+00
1.03351989e+00
1.04005266e+00
1.03846591e+00
1.03585339e+00
1.03826359e+00
1.03479816e+00
1.03739322e+00
1.03804118e+00
1.03365563e+00
1.03557184e+00
1.03587406e+00
1.03633979e+00
1.03372893e+00
1.03428910e+00
1.03108317e+00
1.03306431e+00
1.03330399e+00
1.03233546e+00
1.03628534e+00
1.02976487e+00
1.03344812e+00
1.03112627e+00
1.02778706e+00
1.03274266e+00
1.02823569e+00
1.02865225e+00
1.03051013e+00
1.05633388e+00
1.06448376e+00
1.06656052e+00
1.06790439e+00
1.07905979e+00
1.07768329e+00
1.06440922e+00
1.05994065e+00
1.05968817e+00
1.06235134e+00
1.06982716e+00
1.07685802e+00
1.06248897e+00
1.04752277e+00
1.05013306e+00
1.06102523e+00
1.07308136e+00
1.07414685e+00
1.05796191e+00
1.05188942e+00
1.06191379e+00
1.07052805e+00
1.06508214e+00
1.05869240e+00
1.06022968e+00
1.06532190e+00
1.06076408e+00
1.05800069e+00
1.05468110e+00
1.06165617e+00
1.06664182e+00
1.05144538e+00
1.05422515e+00
1.06581076e+00
1.06381109e+00
1.05099417e+00
1.05234466e+00
1.05939754e+00
1.05772361e+00
1.05589992e+00
1.05276842e+00
1.05281337e+00
1.05344800e+00
1.05552160e+00
1.05891743e+00
1.05294072e+00
1.04445373e+00
1.05672369e+00
1.05634194e+00
1.04644518e+00
1.05061239e+00
1.05301967e+00
1.04985502e+00
1.05153930e+00
1.05273453e+00
1.04722236e+00
1.04321722e+00
1.05216255e+00
1.04885487e+00
1.04549313e+00
1.05053117e+00
1.04418940e+00
1.04782223e+00
1.04497192e+00
1.04439624e+00