# vtk DataFile Version 2.0
LBM Flow Field - Timestep 70
ASCII
DATASET STRUCTURED_POINTS
DIMENSIONS 128 128 1
ORIGIN 0.0 0.0 0.0
SPACING 1.0 1.0 1.0
POINT_DATA 16384
SCALARS density double 1
LOOKUP_TABLE default
1.29752744e+00
1.25971976e+00
1.21376011e+00
1.17541625e+00
1.13607716e+00
1.10740523e+00
1.07798075e+00
1.05884750e+00
1.03987599e+00
1.02836059e+00
1.01805035e+00
1.01174878e+00
1.00716591e+00
1.00406487e+00
1.00244777e+00
1.00114109e+00
1.00068637e+00
1.00025724e+00
1.00014254e+00
1.00004802e+00
1.00001756e+00
1.00000731e+00
1.00000056e+00
1.00000059e+00
9.99999958e-01
9.99999970e-01
1.00000001e+00
9.99999999e-01
1.00000000e+00
1.00000000e+00
1.00000000e+00
1.00000000e+00
1.00000000e+00
1.00000000e+00
1.00000000e+00
1.00000000e+00
1.00000000e+00
1.00000000e+00
1.00000000e+00
1.00000000e+00
1.00000000e+00
1.00000000e+00
1.00000000e+00
1.00000000e+00
1.00000000e+00
1.00000000e+00
1.00000000e+00
1.00000000e+00
1.00000000e+00
1.00000000e+00
1.00000000e+00
1.00000000e+00
1.00000000e+00
1.00000000e+00
1.00000000e+00
1.00000000e+00
1.00000000e+00
1.00000000e+00
1.00000000e+00
1.00000000e+00
1.00000000e+00
1.00000000e+00
1.00000000e+00
1.00000000e+00
1.00000000e+00
1.00000000e+00
1.00000000e+00
1.00000000e+00
1.00000000e+00
1.00000000e+00
1.00000000e+00
1.00000000e+00
1.00000000e+00
1.00000000e+00
1.00000000e+00
1.00000000e+00
1.00000000e+00
1.00000000e+00
1.00000000e+00
1.00000000e+00
1.00000000e+00
1.00000000e+00
1.00000000e+00
1.00000000e+00
1.00000000e+00
1.00000000e+00
1.00000000e+00
1.00000000e+00
1.00000000e+00
1.00000000e+00
1.00000000e+00
1.00000000e+00
1.00000000e+00
1.00000000e+00
1.00000000e+00
1.00000000e+00
1.00000000e+00
1.00000000e+00
1.00000000e+00
1.00000000e+00
1.00000000e+00
1.00000000e+00
1.00000000e+00
1.00000000e+00
1.00000000e+00
1.00000000e+00
1.00000000e+00
1.00000000e+00
1.00000000e+00
1.00000000e+00
1.00000000e+00
1.00000000e+00
1.00000000e+00
1.00000000e+00
1.00000000e+00
1.00000000e+00
1.00000000e+00
1.00000000e+00
1.00000000e+00
1.00000000e+00
1.00000000e+00
1.00000000e+00
1.00000000e+00
1.00000000e+00
1.00000000e+00
1.00000000e+00
1.00000000e+00
1.00000000e+00
1.12622225e+00
1.10698054e+00
1.09240647e+00
1.09919239e+00
1.09718445e+00
1.09873365e+00
1.09454362e+00
1.09733699e+00
1.09741604e+00
1.09600409e+00
1.09983175e+00
1.09723071e+00
1.09501580e+00
1.09557167e+00
1.09412355e+00
1.09637865e+00
1.09294596e+00
1.09214568e+00
1.09344709e+00
1.09034581e+00
1.09068587e+00
1.09123387e+00
1.08774234e+00
1.08809946e+00
1.08739258e+00
1.08362104e+00
1.08507406e+00
1.08573652e+00
1.08056960e+00
1.07929611e+00
1.08025944e+00
1.07689644e+00
1.07140554e+00
1.07253834e+00
1.07428688e+00
1.06752539e+00
1.06045288e+00
1.05933426e+00
1.05871899e+00
1.04791985e+00
1.02842056e+00
1.01271640e+00
1.00482449e+00
1.00164060e+00
1.00056443e+00
1.00022339e+00
1.00012990e+00
1.00006371e+00
1.00004036e+00
1.00005068e+00
1.00004081e+00
1.00003873e+00
1.00003421e+00
1.00002318e+00
1.00001361e+00
1.00001303e+00
1.00001359e+00
9.99993210e-01
1.00000630e+00
1.00000417e+00
9.99994896e-01
1.00000041e+00
1.00000190e+00
1.00000483e+00
9.99990058e-01
1.00000878e+00
1.00000162e+00
9.99996273e-01
1.00000240e+00
1.00000013e+00
1.00000000e+00
1.00000000e+00
1.00000000e+00
1.00000000e+00
1.00000000e+00
1.00000000e+00
1.00000000e+00
1.00000000e+00
1.00000000e+00
1.00000000e+00
1.00000000e+00
1.00000000e+00
1.00000000e+00
1.00000000e+00
1.00000000e+00
1.00000000e+00
1.00000000e+00
1.00000000e+00
1.00000000e+00
1.00000000e+00
1.00000000e+00
1.00000000e+00
1.00000000e+00
1.00000000e+00
1.00000000e+00
1.00000000e+00
1.00000000e+00
1.00000000e+00
1.00000000e+00
1.00000000e+00
1.00000000e+00
1.00000000e+00
1.00000000e+00
1.00000000e+00
1.00000000e+00
1.00000000e+00
1.00000000e+00
1.00000000e+00
1.00000000e+00
1.00000000e+00
1.00000000e+00
1.00000000e+00
1.00000000e+00
1.00000000e+00
1.00000000e+00
1.00000000e+00
1.00000000e+00
1.00000000e+00
1.00000000e+00
1.00000000e+00
1.00000000e+00
1.00000000e+00
1.00000000e+00
1.00000000e+00
1.00000000e+00
1.00000000e+00
1.00000000e+00
1.00000000e+00
1.10983616e+00
1.10781147e+00
1.10677709e+00
1.10315916e+00
1.09541486e+00
1.10031899e+00
1.09865357e+00
1.09746096e+00
1.09807856e+00
1.09618087e+00
1.09872953e+00
1.09644368e+00
1.09751865e+00
1.09770133e+00
1.09233267e+00
1.09534280e+00
1.09426743e+00
1.09339536e+00
1.09402241e+00
1.09011655e+00
1.09121793e+00
1.09247466e+00
1.08735725e+00
1.08786936e+00
1.08828709e+00
1.08371893e+00
1.08652567e+00
1.08784172e+00
1.07935984e+00
1.07827849e+00
1.08319077e+00
1.07780467e+00
1.06869886e+00
1.07399760e+00
1.08243175e+00
1.07091118e+00
1.05359032e+00
1.05212831e+00
1.06241296e+00
1.06165749e+00
1.04210579e+00
1.02056735e+00
1.00765522e+00
1.00238550e+00
1.00074832e+00
1.00023238e+00
1.00009981e+00
1.00005009e+00
1.00006938e+00
1.00007193e+00
1.00003976e+00
1.00002446e+00
1.00002333e+00
1.00001694e+00
9.99999566e-01
1.00000036e+00
1.00000818e+00
9.99988000e-01
1.00000338e+00
1.00000091e+00
9.99999070e-01
9.99997880e-01
1.00000026e+00
1.00000594e+00
9.99990717e-01
1.00000645e+00
9.99996904e-01
1.00000129e+00
9.99999328e-01
1.00000017e+00
1.00000000e+00
1.00000000e+00
1.00000000e+00
1.00000000e+00
1.00000000e+00
1.00000000e+00
1.00000000e+00
1.00000000e+00
1.00000000e+00
1.00000000e+00
1.00000000e+00
1.00000000e+00
1.00000000e+00
1.00000000e+00
1.00000000e+00
1.00000000e+00
1.00000000e+00
1.00000000e+00
1.00000000e+00
1.00000000e+00
1.00000000e+00
1.00000000e+00
1.00000000e+00
1.00000000e+00
1.00000000e+00
1.00000000e+00
1.00000000e+00
1.00000000e+00
1.00000000e+00
1.00000000e+00
1.00000000e+00
1.00000000e+00
1.00000000e+00
1.00000000e+00
1.00000000e+00
1.00000000e+00
1.00000000e+00
1.00000000e+00
1.00000000e+00
1.00000000e+00
1.00000000e+00
1.00000000e+00
1.00000000e+00
1.00000000e+00
1.00000000e+00
1.00000000e+00
1.00000000e+00
1.00000000e+00
1.00000000e+00
1.00000000e+00
1.00000000e+00
1.00000000e+00
1.00000000e+00
1.00000000e+00
1.00000000e+00
1.00000000e+00
1.00000000e+00
1.00000000e+00
1.10159885e+00
1.10872732e+00
1.10605854e+00
1.10194933e+00
1.10032989e+00
1.10523082e+00
1.09909541e+00
1.09751577e+00
1.09764507e+00
1.09808241e+00
1.09983133e+00
1.09635557e+00
1.09648803e+00
1.09729358e+00
1.09359738e+00
1.09642413e+00
1.09310101e+00
1.09372880e+00
1.09554767e+00
1.08870529e+00
1.09121427e+00
1.09330575e+00
1.08719241e+00
1.08935420e+00
1.08885557e+00
1.08255252e+00
1.08782739e+00
1.08874755e+00
1.07710605e+00
1.07895457e+00
1.08930124e+00
1.07822520e+00
1.06281156e+00
1.07411940e+00
1.09023467e+00
1.07513555e+00
1.04952255e+00
1.04770859e+00
1.06548410e+00
1.07300053e+00
1.05394395e+00
1.02671786e+00
1.00970471e+00
1.00319944e+00
1.00098592e+00
1.00027814e+00
1.00014181e+00
1.00007704e+00
1.00004322e+00
1.00003696e+00
1.00002769e+00
1.00001659e+00
1.00001617e+00
1.00001384e+00
1.00000309e+00
1.00000241e+00
1.00000861e+00
1.00000169e+00
9.99997747e-01
1.00000087e+00
1.00000373e+00
9.99997981e-01
9.99997965e-01
1.00000203e+00
1.00000033e+00
9.99999535e-01
9.99998920e-01
1.00000161e+00
9.99999143e-01
1.00000020e+00
1.00000000e+00
1.00000000e+00
1.00000000e+00
1.00000000e+00
1.00000000e+00
1.00000000e+00
1.00000000e+00
1.00000000e+00
1.00000000e+00
1.00000000e+00
1.00000000e+00
1.00000000e+00
1.00000000e+00
1.00000000e+00
1.00000000e+00
1.00000000e+00
1.00000000e+00
1.00000000e+00
1.00000000e+00
1.00000000e+00
1.00000000e+00
1.00000000e+00
1.00000000e+00
1.00000000e+00
1.00000000e+00
1.00000000e+00
1.00000000e+00
1.00000000e+00
1.00000000e+00
1.00000000e+00
1.00000000e+00
1.00000000e+00
1.00000000e+00
1.00000000e+00
1.00000000e+00
1.00000000e+00
1.00000000e+00
1.00000000e+00
1.00000000e+00
1.00000000e+00
1.00000000e+00
1.00000000e+00
1.00000000e+00
1.00000000e+00
1.00000000e+00
1.00000000e+00
1.00000000e+00
1.00000000e+00
1.00000000e+00
1.00000000e+00
1.00000000e+00
1.00000000e+00
1.00000000e+00
1.00000000e+00
1.00000000e+00
1.00000000e+00
1.00000000e+00
1.00000000e+00
1.10662211e+00
1.10439278e+00
1.09924392e+00
1.10548250e+00
1.10405211e+00
1.10046784e+00
1.09841678e+00
1.10227428e+00
1.10015568e+00
1.09588129e+00
1.09738763e+00
1.09749659e+00
1.09854676e+00
1.09736437e+00
1.09277007e+00
1.09724019e+00
1.09303362e+00
1.09384416e+00
1.09629851e+00
1.08885278e+00
1.09113993e+00
1.09404091e+00
1.08747918e+00
1.08989978e+00
1.08949347e+00
1.08250758e+00
1.08969244e+00
1.08930160e+00
1.07374576e+00
1.07912137e+00
1.09648167e+00
1.08157152e+00
1.05722339e+00
1.06978108e+00
1.09588830e+00
1.08331681e+00
1.04945127e+00
1.04244007e+00
1.06556790e+00
1.08250331e+00
1.06576333e+00
1.03357335e+00
1.01284669e+00
1.00426005e+00
1.00104762e+00
1.00030702e+00
1.00015359e+00
1.00007812e+00
1.00005774e+00
1.00004746e+00
1.00003255e+00
1.00001426e+00
1.00001261e+00
1.00000151e+00
1.00000413e+00
9.99999083e-01
9.99991073e-01
1.00000385e+00
9.99998832e-01
9.99998183e-01
9.99998451e-01
1.00000240e+00
1.00000120e+00
9.99994845e-01
1.00000502e+00
9.99998388e-01
9.99998590e-01
1.00000197e+00
9.99998980e-01
1.00000024e+00
1.00000000e+00
1.00000000e+00
1.00000000e+00
1.00000000e+00
1.00000000e+00
1.00000000e+00
1.00000000e+00
1.00000000e+00
1.00000000e+00
1.00000000e+00
1.00000000e+00
1.00000000e+00
1.00000000e+00
1.00000000e+00
1.00000000e+00
1.00000000e+00
1.00000000e+00
1.00000000e+00
1.00000000e+00
1.00000000e+00
1.00000000e+00
1.00000000e+00
1.00000000e+00
1.00000000e+00
1.00000000e+00
1.00000000e+00
1.00000000e+00
1.00000000e+00
1.00000000e+00
1.00000000e+00
1.00000000e+00
1.00000000e+00
1.00000000e+00
1.00000000e+00
1.00000000e+00
1.00000000e+00
1.00000000e+00
1.00000000e+00
1.00000000e+00
1.00000000e+00
1.00000000e+00
1.00000000e+00
1.00000000e+00
1.00000000e+00
1.00000000e+00
1.00000000e+00
1.00000000e+00
1.00000000e+00
1.00000000e+00
1.00000000e+00
1.00000000e+00
1.00000000e+00
1.00000000e+00
1.00000000e+00
1.00000000e+00
1.00000000e+00
1.00000000e+00
1.00000000e+00
1.10714707e+00
1.10256595e+00
1.10172632e+00
1.10331746e+00
1.09914617e+00
1.10147307e+00
1.10237574e+00
1.10122905e+00
1.09747343e+00
1.09733051e+00
1.10121277e+00
1.09553180e+00
1.09862891e+00
1.09736949e+00
1.09362260e+00
1.09839930e+00
1.09192655e+00
1.09355831e+00
1.09722191e+00
1.08982454e+00
1.09279213e+00
1.09352431e+00
1.08622320e+00
1.09085776e+00
1.08910894e+00
1.08209491e+00
1.09357341e+00
1.09318312e+00
1.07066917e+00
1.07453932e+00
1.09880110e+00
1.08694598e+00
1.05839894e+00
1.06875709e+00
1.09772039e+00
1.08606979e+00
1.04834420e+00
1.03979293e+00
1.06805079e+00
1.09181667e+00
1.07610446e+00
1.03999776e+00
1.01552627e+00
1.00446942e+00
1.00116709e+00
1.00053274e+00
1.00014303e+00
1.00003823e+00
1.00003611e+00
1.00001661e+00
1.00001080e+00
1.00001248e+00
1.00001099e+00
9.99990779e-01
1.00000749e+00
1.00000877e+00
9.99992975e-01
1.00000585e+00
1.00000248e+00
9.99998969e-01
9.99997126e-01
1.00000376e+00
1.00000093e+00
9.99994174e-01
1.00000585e+00
9.99998107e-01
9.99998368e-01
1.00000225e+00
9.99998844e-01
1.00000026e+00
1.00000000e+00
1.00000000e+00
1.00000000e+00
1.00000000e+00
1.00000000e+00
1.00000000e+00
1.00000000e+00
1.00000000e+00
1.00000000e+00
1.00000000e+00
1.00000000e+00
1.00000000e+00
1.00000000e+00
1.00000000e+00
1.00000000e+00
1.00000000e+00
1.00000000e+00
1.00000000e+00
1.00000000e+00
1.00000000e+00
1.00000000e+00
1.00000000e+00
1.00000000e+00
1.00000000e+00
1.00000000e+00
1.00000000e+00
1.00000000e+00
1.00000000e+00
1.00000000e+00
1.00000000e+00
1.00000000e+00
1.00000000e+00
1.00000000e+00
1.00000000e+00
1.00000000e+00
1.00000000e+00
1.00000000e+00
1.00000000e+00
1.00000000e+00
1.00000000e+00
1.00000000e+00
1.00000000e+00
1.00000000e+00
1.00000000e+00
1.00000000e+00
1.00000000e+00
1.00000000e+00
1.00000000e+00
1.00000000e+00
1.00000000e+00
1.00000000e+00
1.00000000e+00
1.00000000e+00
1.00000000e+00
1.00000000e+00
1.00000000e+00
1.00000000e+00
1.00000000e+00
1.10076133e+00
1.10469198e+00
1.10614981e+00
1.10044718e+00
1.09862050e+00
1.10305535e+00
1.10029372e+00
1.09949718e+00
1.09961915e+00
1.10217503e+00
1.09973259e+00
1.09228095e+00
1.09853795e+00
1.09904898e+00
1.09478043e+00
1.09836343e+00
1.09209235e+00
1.09362617e+00
1.09731977e+00
1.08902099e+00
1.09300516e+00
1.09465059e+00
1.08735713e+00
1.09305806e+00
1.08908852e+00
1.07827544e+00
1.09279268e+00
1.09815033e+00
1.07277108e+00
1.07251494e+00
1.09894814e+00
1.08970403e+00
1.05832264e+00
1.06722605e+00
1.10024458e+00
1.09086520e+00
1.04943775e+00
1.03802142e+00
1.06830497e+00
1.09859930e+00
1.08619792e+00
1.04724985e+00
1.01791292e+00
1.00514885e+00
1.00178943e+00
1.00046713e+00
1.00000363e+00
1.00006586e+00
1.00008041e+00
1.00003130e+00
9.99998446e-01
1.00001158e+00
1.00001427e+00
9.99985656e-01
1.00000307e+00
1.00000670e+00
9.99989061e-01
9.99998329e-01
1.00000418e+00
9.99999401e-01
9.99993879e-01
1.00000606e+00
1.00000026e+00
9.99993740e-01
1.00000651e+00
9.99997810e-01
9.99998261e-01
1.00000246e+00
9.99998737e-01
1.00000029e+00
1.00000000e+00
1.00000000e+00
1.00000000e+00
1.00000000e+00
1.00000000e+00
1.00000000e+00
1.00000000e+00
1.00000000e+00
1.00000000e+00
1.00000000e+00
1.00000000e+00
1.00000000e+00
1.00000000e+00
1.00000000e+00
1.00000000e+00
1.00000000e+00
1.00000000e+00
1.00000000e+00
1.00000000e+00
1.00000000e+00
1.00000000e+00
1.00000000e+00
1.00000000e+00
1.00000000e+00
1.00000000e+00
1.00000000e+00
1.00000000e+00
1.00000000e+00
1.00000000e+00
1.00000000e+00
1.00000000e+00
1.00000000e+00
1.00000000e+00
1.00000000e+00
1.00000000e+00
1.00000000e+00
1.00000000e+00
1.00000000e+00
1.00000000e+00
1.00000000e+00
1.00000000e+00
1.00000000e+00
1.00000000e+00
1.00000000e+00
1.00000000e+00
1.00000000e+00
1.00000000e+00
1.00000000e+00
1.00000000e+00
1.00000000e+00
1.00000000e+00
1.00000000e+00
1.00000000e+00
1.00000000e+00
1.00000000e+00
1.00000000e+00
1.00000000e+00
1.00000000e+00
1.10184571e+00
1.10470500e+00
1.10172397e+00
1.10407982e+00
1.10491481e+00
1.09977315e+00
1.09711795e+00
1.10194158e+00
1.10065320e+00
1.10000237e+00
1.09923667e+00
1.09594423e+00
1.09998884e+00
1.09636902e+00
1.09329094e+00
1.10125260e+00
1.09209084e+00
1.09332848e+00
1.09847314e+00
1.09018054e+00
1.09338704e+00
1.09196195e+00
1.08588421e+00
1.09787210e+00
1.09289382e+00
1.07502215e+00
1.08954845e+00
1.10170028e+00
1.07673474e+00
1.07127496e+00
1.09769010e+00
1.09114271e+00
1.06001290e+00
1.06886651e+00
1.10230350e+00
1.09248361e+00
1.04966953e+00
1.03758270e+00
1.06912799e+00
1.10552162e+00
1.09600316e+00
1.05328095e+00
1.01969870e+00
1.00627001e+00
1.00178926e+00
1.00016711e+00
1.00019883e+00
1.00011056e+00
1.00000222e+00
9.99996739e-01
9.99988771e-01
1.00001005e+00
1.00001199e+00
9.99985388e-01
1.00000480e+00
1.00000920e+00
9.99994435e-01
1.00000116e+00
1.00000513e+00
9.99999429e-01
9.99994111e-01
1.00000680e+00
9.99999519e-01
9.99993825e-01
1.00000690e+00
9.99997502e-01
9.99998273e-01
1.00000258e+00
9.99998662e-01
1.00000030e+00
1.00000000e+00
1.00000000e+00
1.00000000e+00
1.00000000e+00
1.00000000e+00
1.00000000e+00
1.00000000e+00
1.00000000e+00
1.00000000e+00
1.00000000e+00
1.00000000e+00
1.00000000e+00
1.00000000e+00
1.00000000e+00
1.00000000e+00
1.00000000e+00
1.00000000e+00
1.00000000e+00
1.00000000e+00
1.00000000e+00
1.00000000e+00
1.00000000e+00
1.00000000e+00
1.00000000e+00
1.00000000e+00
1.00000000e+00
1.00000000e+00
1.00000000e+00
1.00000000e+00
1.00000000e+00
1.00000000e+00
1.00000000e+00
1.00000000e+00
1.00000000e+00
1.00000000e+00
1.00000000e+00
1.00000000e+00
1.00000000e+00
1.00000000e+00
1.00000000e+00
1.00000000e+00
1.00000000e+00
1.00000000e+00
1.00000000e+00
1.00000000e+00
1.00000000e+00
1.00000000e+00
1.00000000e+00
1.00000000e+00
1.00000000e+00
1.00000000e+00
1.00000000e+00
1.00000000e+00
1.00000000e+00
1.00000000e+00
1.00000000e+00
1.00000000e+00
1.00000000e+00
1.10606139e+00
1.10395205e+00
1.09960693e+00
1.10603657e+00
1.10262466e+00
1.09999040e+00
1.10172530e+00
1.10188476e+00
1.09634549e+00
1.09953043e+00
1.10258934e+00
1.09573538e+00
1.09870431e+00
1.09549211e+00
1.09621807e+00
1.10163724e+00
1.09037998e+00
1.09265781e+00
1.09966444e+00
1.09276422e+00
1.09442332e+00
1.09030777e+00
1.08276968e+00
1.09926494e+00
1.09814267e+00
1.07578934e+00
1.08676409e+00
1.10119825e+00
1.07886797e+00
1.07217802e+00
1.09819071e+00
1.09274965e+00
1.06189152e+00
1.06839561e+00
1.10226406e+00
1.09558219e+00
1.05217440e+00
1.03730210e+00
1.06967253e+00
1.11150748e+00
1.10485884e+00
1.05896647e+00
1.02237610e+00
1.00709893e+00
1.00131129e+00
1.00050872e+00
1.00035258e+00
9.99911968e-01
9.99999272e-01
1.00004349e+00
9.99998869e-01
1.00000655e+00
1.00000895e+00
9.99987586e-01
1.00000241e+00
1.00000652e+00
9.99990000e-01
9.99998855e-01
1.00000577e+00
9.99997124e-01
9.99994932e-01
1.00000729e+00
9.99998432e-01
9.99994413e-01
1.00000700e+00
9.99997196e-01
9.99998402e-01
1.00000260e+00
9.99998618e-01
1.00000032e+00
1.00000000e+00
1.00000000e+00
1.00000000e+00
1.00000000e+00
1.00000000e+00
1.00000000e+00
1.00000000e+00
1.00000000e+00
1.00000000e+00
1.00000000e+00
1.00000000e+00
1.00000000e+00
1.00000000e+00
1.00000000e+00
1.00000000e+00
1.00000000e+00
1.00000000e+00
1.00000000e+00
1.00000000e+00
1.00000000e+00
1.00000000e+00
1.00000000e+00
1.00000000e+00
1.00000000e+00
1.00000000e+00
1.00000000e+00
1.00000000e+00
1.00000000e+00
1.00000000e+00
1.00000000e+00
1.00000000e+00
1.00000000e+00
1.00000000e+00
1.00000000e+00
1.00000000e+00
1.00000000e+00
1.00000000e+00
1.00000000e+00
1.00000000e+00
1.00000000e+00
1.00000000e+00
1.00000000e+00
1.00000000e+00
1.00000000e+00
1.00000000e+00
1.00000000e+00
1.00000000e+00
1.00000000e+00
1.00000000e+00
1.00000000e+00
1.00000000e+00
1.00000000e+00
1.00000000e+00
1.00000000e+00
1.00000000e+00
1.00000000e+00
1.00000000e+00
1.00000000e+00
1.10244187e+00
1.10130211e+00
1.10273331e+00
1.10403999e+00
1.09831878e+00
1.10406819e+00
1.10290719e+00
1.10010950e+00
1.09686678e+00
1.10201569e+00
1.10057953e+00
1.09338318e+00
1.10101426e+00
1.09789822e+00
1.09539549e+00
1.10103539e+00
1.09245345e+00
1.09291001e+00
1.09689244e+00
1.09103587e+00
1.10006608e+00
1.09388630e+00
1.07948466e+00
1.09706279e+00
1.10052634e+00
1.07707920e+00
1.08522985e+00
1.10200056e+00
1.08226104e+00
1.07278875e+00
1.09669043e+00
1.09310648e+00
1.06425691e+00
1.07003470e+00
1.10335441e+00
1.09749392e+00
1.05371573e+00
1.03737082e+00
1.07125488e+00
1.11702563e+00
1.11266131e+00
1.06437342e+00
1.02471503e+00
1.00692656e+00
1.00164611e+00
1.00097767e+00
9.99885287e-01
9.99887368e-01
1.00014012e+00
1.00000794e+00
9.99973309e-01
1.00000620e+00
1.00000138e+00
9.99990199e-01
1.00000453e+00
1.00000815e+00
9.99992411e-01
1.00000123e+00
1.00000744e+00
9.99995091e-01
9.99996604e-01
1.00000751e+00
9.99997112e-01
9.99995465e-01
1.00000681e+00
9.99996909e-01
9.99998637e-01
1.00000255e+00
9.99998607e-01
1.00000032e+00
1.00000000e+00
1.00000000e+00
1.00000000e+00
1.00000000e+00
1.00000000e+00
1.00000000e+00
1.00000000e+00
1.00000000e+00
1.00000000e+00
1.00000000e+00
1.00000000e+00
1.00000000e+00
1.00000000e+00
1.00000000e+00
1.00000000e+00
1.00000000e+00
1.00000000e+00
1.00000000e+00
1.00000000e+00
1.00000000e+00
1.00000000e+00
1.00000000e+00
1.00000000e+00
1.00000000e+00
1.00000000e+00
1.00000000e+00
1.00000000e+00
1.00000000e+00
1.00000000e+00
1.00000000e+00
1.00000000e+00
1.00000000e+00
1.00000000e+00
1.00000000e+00
1.00000000e+00
1.00000000e+00
1.00000000e+00
1.00000000e+00
1.00000000e+00
1.00000000e+00
1.00000000e+00
1.00000000e+00
1.00000000e+00
1.00000000e+00
1.00000000e+00
1.00000000e+00
1.00000000e+00
1.00000000e+00
1.00000000e+00
1.00000000e+00
1.00000000e+00
1.00000000e+00
1.00000000e+00
1.00000000e+00
1.00000000e+00
1.00000000e+00
1.00000000e+00
1.00000000e+00
1.10083014e+00
1.10325403e+00
1.10160246e+00
1.10105895e+00
1.10082904e+00
1.10449590e+00
1.09977446e+00
1.10111561e+00
1.09813879e+00
1.09982342e+00
1.10003699e+00
1.09886079e+00
1.10275583e+00
1.09349839e+00
1.09142524e+00
1.10410037e+00
1.09632137e+00
1.09481522e+00
1.09404207e+00
1.08858425e+00
1.10148887e+00
1.09656223e+00
1.07903290e+00
1.09565980e+00
1.10270843e+00
1.07868076e+00
1.08498644e+00
1.10284276e+00
1.08279465e+00
1.07262029e+00
1.09690926e+00
1.09588913e+00
1.06646911e+00
1.07005929e+00
1.10320582e+00
1.09926439e+00
1.05623719e+00
1.03905760e+00
1.07283812e+00
1.12125525e+00
1.12015932e+00
1.06967716e+00
1.02623444e+00
1.00720614e+00
1.00242983e+00
1.00035280e+00
9.99721179e-01
1.00034696e+00
1.00006502e+00
9.99897220e-01
9.99994434e-01
1.00002495e+00
1.00000001e+00
9.99993222e-01
1.00000460e+00
1.00000472e+00
9.99989465e-01
1.00000137e+00
1.00000750e+00
9.99992490e-01
9.99998772e-01
1.00000731e+00
9.99995681e-01
9.99996907e-01
1.00000633e+00
9.99996662e-01
9.99998965e-01
1.00000241e+00
9.99998628e-01
1.00000033e+00
1.00000000e+00
1.00000000e+00
1.00000000e+00
1.00000000e+00
1.00000000e+00
1.00000000e+00
1.00000000e+00
1.00000000e+00
1.00000000e+00
1.00000000e+00
1.00000000e+00
1.00000000e+00
1.00000000e+00
1.00000000e+00
1.00000000e+00
1.00000000e+00
1.00000000e+00
1.00000000e+00
1.00000000e+00
1.00000000e+00
1.00000000e+00
1.00000000e+00
1.00000000e+00
1.00000000e+00
1.00000000e+00
1.00000000e+00
1.00000000e+00
1.00000000e+00
1.00000000e+00
1.00000000e+00
1.00000000e+00
1.00000000e+00
1.00000000e+00
1.00000000e+00
1.00000000e+00
1.00000000e+00
1.00000000e+00
1.00000000e+00
1.00000000e+00
1.00000000e+00
1.00000000e+00
1.00000000e+00
1.00000000e+00
1.00000000e+00
1.00000000e+00
1.00000000e+00
1.00000000e+00
1.00000000e+00
1.00000000e+00
1.00000000e+00
1.00000000e+00
1.00000000e+00
1.00000000e+00
1.00000000e+00
1.00000000e+00
1.00000000e+00
1.00000000e+00
1.00000000e+00
1.10369833e+00
1.10292934e+00
1.09906578e+00
1.10310569e+00
1.10212692e+00
1.10050728e+00
1.10039485e+00
1.10444470e+00
1.09798016e+00
1.09762279e+00
1.10085805e+00
1.09898172e+00
1.10245224e+00
1.09472277e+00
1.09320225e+00
1.10211545e+00
1.09445641e+00
1.09856907e+00
1.09697003e+00
1.08548614e+00
1.09883114e+00
1.09978860e+00
1.08176519e+00
1.09532238e+00
1.10150231e+00
1.07927534e+00
1.08539810e+00
1.10386068e+00
1.08448257e+00
1.07376938e+00
1.09637075e+00
1.09666699e+00
1.06805872e+00
1.07177394e+00
1.10405551e+00
1.10047391e+00
1.05880690e+00
1.04056427e+00
1.07377504e+00
1.12602391e+00
1.12744599e+00
1.07390569e+00
1.02753210e+00
1.00805813e+00
1.00225322e+00
9.99888725e-01
1.00049331e+00
1.00016369e+00
9.99712759e-01
1.00002202e+00
1.00006561e+00
1.00000924e+00
9.99983462e-01
9.99993605e-01
1.00000631e+00
1.00000469e+00
9.99990406e-01
1.00000383e+00
1.00000760e+00
9.99990219e-01
1.00000143e+00
1.00000664e+00
9.99994294e-01
9.99998643e-01
1.00000558e+00
9.99996479e-01
9.99999364e-01
1.00000219e+00
9.99998678e-01
1.00000032e+00
1.00000000e+00
1.00000000e+00
1.00000000e+00
1.00000000e+00
1.00000000e+00
1.00000000e+00
1.00000000e+00
1.00000000e+00
1.00000000e+00
1.00000000e+00
1.00000000e+00
1.00000000e+00
1.00000000e+00
1.00000000e+00
1.00000000e+00
1.00000000e+00
1.00000000e+00
1.00000000e+00
1.00000000e+00
1.00000000e+00
1.00000000e+00
1.00000000e+00
1.00000000e+00
1.00000000e+00
1.00000000e+00
1.00000000e+00
1.00000000e+00
1.00000000e+00
1.00000000e+00
1.00000000e+00
1.00000000e+00
1.00000000e+00
1.00000000e+00
1.00000000e+00
1.00000000e+00
1.00000000e+00
1.00000000e+00
1.00000000e+00
1.00000000e+00
1.00000000e+00
1.00000000e+00
1.00000000e+00
1.00000000e+00
1.00000000e+00
1.00000000e+00
1.00000000e+00
1.00000000e+00
1.00000000e+00
1.00000000e+00
1.00000000e+00
1.00000000e+00
1.00000000e+00
1.00000000e+00
1.00000000e+00
1.00000000e+00
1.00000000e+00
1.00000000e+00
1.00000000e+00
1.10475722e+00
1.10375165e+00
1.10330389e+00
1.10432693e+00
1.09782835e+00
1.10080872e+00
1.10203058e+00
1.10395134e+00
1.09937112e+00
1.10065204e+00
1.09891654e+00
1.09469439e+00
1.10415894e+00
1.10056897e+00
1.09369281e+00
1.09686074e+00
1.09353165e+00
1.10220198e+00
1.09933517e+00
1.08300256e+00
1.09930014e+00
1.10287369e+00
1.08234837e+00
1.09246387e+00
1.10185419e+00
1.08246823e+00
1.08645173e+00
1.10356780e+00
1.08473287e+00
1.07406539e+00
1.09624529e+00
1.09895550e+00
1.07183886e+00
1.07192323e+00
1.10231780e+00
1.10214085e+00
1.06215886e+00
1.04275437e+00
1.07620404e+00
1.13084843e+00
1.13278392e+00
1.07721481e+00
1.02901225e+00
1.00846809e+00
1.00169318e+00
1.00055138e+00
1.00050619e+00
9.99489977e-01
1.00010807e+00
1.00019759e+00
9.99935843e-01
9.99978260e-01
9.99993699e-01
1.00000310e+00
1.00000752e+00
1.00000115e+00
9.99989750e-01
1.00000571e+00
1.00000661e+00
9.99988401e-01
1.00000437e+00
1.00000547e+00
9.99993113e-01
1.00000055e+00
1.00000459e+00
9.99996381e-01
9.99999811e-01
1.00000192e+00
9.99998755e-01
1.00000031e+00
1.00000000e+00
1.00000000e+00
1.00000000e+00
1.00000000e+00
1.00000000e+00
1.00000000e+00
1.00000000e+00
1.00000000e+00
1.00000000e+00
1.00000000e+00
1.00000000e+00
1.00000000e+00
1.00000000e+00
1.00000000e+00
1.00000000e+00
1.00000000e+00
1.00000000e+00
1.00000000e+00
1.00000000e+00
1.00000000e+00
1.00000000e+00
1.00000000e+00
1.00000000e+00
1.00000000e+00
1.00000000e+00
1.00000000e+00
1.00000000e+00
1.00000000e+00
1.00000000e+00
1.00000000e+00
1.00000000e+00
1.00000000e+00
1.00000000e+00
1.00000000e+00
1.00000000e+00
1.00000000e+00
1.00000000e+00
1.00000000e+00
1.00000000e+00
1.00000000e+00
1.00000000e+00
1.00000000e+00
1.00000000e+00
1.00000000e+00
1.00000000e+00
1.00000000e+00
1.00000000e+00
1.00000000e+00
1.00000000e+00
1.00000000e+00
1.00000000e+00
1.00000000e+00
1.00000000e+00
1.00000000e+00
1.00000000e+00
1.00000000e+00
1.00000000e+00
1.00000000e+00
1.10081100e+00
1.10261766e+00
1.10603843e+00
1.10414814e+00
1.10041278e+00
1.10253534e+00
1.09718425e+00
1.10155049e+00
1.10347709e+00
1.10340427e+00
1.09786482e+00
1.09311601e+00
1.10276842e+00
1.10086535e+00
1.09541073e+00
1.09986918e+00
1.09239436e+00
1.10022714e+00
1.10004719e+00
1.08469831e+00
1.09927563e+00
1.10171013e+00
1.08330416e+00
1.09439381e+00
1.10321275e+00
1.08162841e+00
1.08609634e+00
1.10442750e+00
1.08670161e+00
1.07462036e+00
1.09715758e+00
1.10057617e+00
1.07296022e+00
1.07168951e+00
1.10298877e+00
1.10461037e+00
1.06509854e+00
1.04506139e+00
1.07823016e+00
1.13460652e+00
1.13760338e+00
1.08127211e+00
1.03030815e+00
1.00827954e+00
1.00189067e+00
1.00095712e+00
9.99598748e-01
9.99946455e-01
1.00050922e+00
9.99763981e-01
9.99899304e-01
1.00007332e+00
9.99998380e-01
9.99997983e-01
1.00000631e+00
9.99998267e-01
9.99990673e-01
1.00000772e+00
1.00000446e+00
9.99987197e-01
1.00000726e+00
1.00000376e+00
9.99992278e-01
1.00000251e+00
1.00000339e+00
9.99996388e-01
1.00000028e+00
1.00000160e+00
9.99998856e-01
1.00000030e+00
1.00000000e+00
1.00000000e+00
1.00000000e+00
1.00000000e+00
1.00000000e+00
1.00000000e+00
1.00000000e+00
1.00000000e+00
1.00000000e+00
1.00000000e+00
1.00000000e+00
1.00000000e+00
1.00000000e+00
1.00000000e+00
1.00000000e+00
1.00000000e+00
1.00000000e+00
1.00000000e+00
1.00000000e+00
1.00000000e+00
1.00000000e+00
1.00000000e+00
1.00000000e+00
1.00000000e+00
1.00000000e+00
1.00000000e+00
1.00000000e+00
1.00000000e+00
1.00000000e+00
1.00000000e+00
1.00000000e+00
1.00000000e+00
1.00000000e+00
1.00000000e+00
1.00000000e+00
1.00000000e+00
1.00000000e+00
1.00000000e+00
1.00000000e+00
1.00000000e+00
1.00000000e+00
1.00000000e+00
1.00000000e+00
1.00000000e+00
1.00000000e+00
1.00000000e+00
1.00000000e+00
1.00000000e+00
1.00000000e+00
1.00000000e+00
1.00000000e+00
1.00000000e+00
1.00000000e+00
1.00000000e+00
1.00000000e+00
1.00000000e+00
1.00000000e+00
1.00000000e+00
1.10210357e+00
1.10277289e+00
1.10108469e+00
1.10161013e+00
1.10570636e+00
1.10404630e+00
1.09705044e+00
1.10196946e+00
1.10067889e+00
1.10071867e+00
1.10225130e+00
1.09573911e+00
1.09985204e+00
1.09875881e+00
1.09985760e+00
1.10182112e+00
1.08885951e+00
1.09890787e+00
1.10375598e+00
1.08696109e+00
1.09659600e+00
1.10256089e+00
1.08516717e+00
1.09392971e+00
1.10154792e+00
1.08324960e+00
1.08922176e+00
1.10524921e+00
1.08594766e+00
1.07418246e+00
1.09861032e+00
1.10247337e+00
1.07530333e+00
1.07255213e+00
1.10263742e+00
1.10575467e+00
1.06836866e+00
1.04838036e+00
1.08070326e+00
1.13800605e+00
1.14246380e+00
1.08390467e+00
1.03028723e+00
1.00856343e+00
1.00241465e+00
1.00040585e+00
9.99689968e-01
1.00073901e+00
9.99732812e-01
9.99653190e-01
1.00025588e+00
1.00004625e+00
9.99941437e-01
1.00000083e+00
1.00001010e+00
9.99995618e-01
9.99993129e-01
1.00001039e+00
1.00000203e+00
9.99987338e-01
1.00001002e+00
1.00000163e+00
9.99991928e-01
1.00000437e+00
1.00000203e+00
9.99996516e-01
1.00000074e+00
1.00000124e+00
9.99998977e-01
1.00000029e+00
1.00000000e+00
1.00000000e+00
1.00000000e+00
1.00000000e+00
1.00000000e+00
1.00000000e+00
1.00000000e+00
1.00000000e+00
1.00000000e+00
1.00000000e+00
1.00000000e+00
1.00000000e+00
1.00000000e+00
1.00000000e+00
1.00000000e+00
1.00000000e+00
1.00000000e+00
1.00000000e+00
1.00000000e+00
1.00000000e+00
1.00000000e+00
1.00000000e+00
1.00000000e+00
1.00000000e+00
1.00000000e+00
1.00000000e+00
1.00000000e+00
1.00000000e+00
1.00000000e+00
1.00000000e+00
1.00000000e+00
1.00000000e+00
1.00000000e+00
1.00000000e+00
1.00000000e+00
1.00000000e+00
1.00000000e+00
1.00000000e+00
1.00000000e+00
1.00000000e+00
1.00000000e+00
1.00000000e+00
1.00000000e+00
1.00000000e+00
1.00000000e+00
1.00000000e+00
1.00000000e+00
1.00000000e+00
1.00000000e+00
1.00000000e+00
1.00000000e+00
1.00000000e+00
1.00000000e+00
1.00000000e+00
1.00000000e+00
1.00000000e+00
1.00000000e+00
1.00000000e+00
1.10410504e+00
1.10194554e+00
1.09951907e+00
1.10203512e+00
1.10427572e+00
1.10345441e+00
1.10109664e+00
1.10189424e+00
1.09615710e+00
1.10115093e+00
1.10646280e+00
1.09670396e+00
1.09839611e+00
1.09842124e+00
1.10016783e+00
1.10177654e+00
1.08985709e+00
1.09964830e+00
1.10470039e+00
1.08626804e+00
1.09699465e+00
1.10407460e+00
1.08525936e+00
1.09405462e+00
1.10312548e+00
1.08543433e+00
1.08812175e+00
1.10386619e+00
1.08769038e+00
1.07655164e+00
1.09950639e+00
1.10384994e+00
1.07652155e+00
1.07238863e+00
1.10218701e+00
1.10775794e+00
1.07284448e+00
1.05140834e+00
1.08274172e+00
1.14184451e+00
1.14659706e+00
1.08524296e+00
1.03137010e+00
1.00915203e+00
1.00208619e+00
1.00002994e+00
1.00045908e+00
1.00006254e+00
9.99367502e-01
1.00048515e+00
1.00014374e+00
9.99808482e-01
9.99981606e-01
1.00003152e+00
1.00000924e+00
9.99989996e-01
9.99994631e-01
1.00001091e+00
9.99997883e-01
9.99988206e-01
1.00001212e+00
9.99999096e-01
9.99992132e-01
1.00000601e+00
1.00000059e+00