# vtk DataFile Version 2.0
LBM Flow Field - Timestep 100
ASCII
DATASET STRUCTURED_POINTS
DIMENSIONS 128 128 1
ORIGIN 0.0 0.0 0.0
SPACING 1.0 1.0 1.0
POINT_DATA 16384
SCALARS density double 1
LOOKUP_TABLE default
1.30322410e+00
1.27039300e+00
1.23315910e+00
1.19687925e+00
1.16456596e+00
1.13416534e+00
1.10818089e+00
1.08517921e+00
1.06578980e+00
1.05014997e+00
1.03675182e+00
1.02723603e+00
1.01872500e+00
1.01354765e+00
1.00864795e+00
1.00610691e+00
1.00360702e+00
1.00245509e+00
1.00135822e+00
1.00086079e+00
1.00046162e+00
1.00025623e+00
1.00014001e+00
1.00006328e+00
1.00003638e+00
1.00001300e+00
1.00000743e+00
1.00000235e+00
1.00000102e+00
1.00000039e+00
1.00000006e+00
1.00000005e+00
9.99999999e-01
1.00000000e+00
1.00000000e+00
1.00000000e+00
1.00000000e+00
1.00000000e+00
1.00000000e+00
1.00000000e+00
1.00000000e+00
1.00000000e+00
1.00000000e+00
1.00000000e+00
1.00000000e+00
1.00000000e+00
1.00000000e+00
1.00000000e+00
1.00000000e+00
1.00000000e+00
1.00000000e+00
1.00000000e+00
1.00000000e+00
1.00000000e+00
1.00000000e+00
1.00000000e+00
1.00000000e+00
1.00000000e+00
1.00000000e+00
1.00000000e+00
1.00000000e+00
1.00000000e+00
1.00000000e+00
1.00000000e+00
1.00000000e+00
1.00000000e+00
1.00000000e+00
1.00000000e+00
1.00000000e+00
1.00000000e+00
1.00000000e+00
1.00000000e+00
1.00000000e+00
1.00000000e+00
1.00000000e+00
1.00000000e+00
1.00000000e+00
1.00000000e+00
1.00000000e+00
1.00000000e+00
1.00000000e+00
1.00000000e+00
1.00000000e+00
1.00000000e+00
1.00000000e+00
1.00000000e+00
1.00000000e+00
1.00000000e+00
1.00000000e+00
1.00000000e+00
1.00000000e+00
1.00000000e+00
1.00000000e+00
1.00000000e+00
1.00000000e+00
1.00000000e+00
1.00000000e+00
1.00000000e+00
1.00000000e+00
1.00000000e+00
1.00000000e+00
1.00000000e+00
1.00000000e+00
1.00000000e+00
1.00000000e+00
1.00000000e+00
1.00000000e+00
1.00000000e+00
1.00000000e+00
1.00000000e+00
1.00000000e+00
1.00000000e+00
1.00000000e+00
1.00000000e+00
1.00000000e+00
1.00000000e+00
1.00000000e+00
1.00000000e+00
1.00000000e+00
1.00000000e+00
1.00000000e+00
1.00000000e+00
1.00000000e+00
1.00000000e+00
1.00000000e+00
1.00000000e+00
1.00000000e+00
1.00000000e+00
1.12810273e+00
1.10689056e+00
1.09293823e+00
1.09604823e+00
1.09603885e+00
1.09490816e+00
1.09200418e+00
1.09556908e+00
1.09405370e+00
1.09537932e+00
1.09710634e+00
1.09619483e+00
1.09603428e+00
1.09327484e+00
1.09576277e+00
1.09691521e+00
1.09385490e+00
1.09462906e+00
1.09256315e+00
1.09377579e+00
1.09362125e+00
1.09183478e+00
1.09267980e+00
1.09147668e+00
1.09061950e+00
1.09168204e+00
1.08957758e+00
1.08959475e+00
1.08971570e+00
1.08718463e+00
1.08844935e+00
1.08873654e+00
1.08540282e+00
1.08635303e+00
1.08623191e+00
1.08307135e+00
1.08434849e+00
1.08440478e+00
1.08099203e+00
1.08132241e+00
1.08241808e+00
1.07869744e+00
1.07603818e+00
1.07854785e+00
1.07788102e+00
1.07260310e+00
1.07297985e+00
1.07479170e+00
1.06934615e+00
1.06461235e+00
1.06499942e+00
1.06758720e+00
1.06306655e+00
1.05499360e+00
1.05269684e+00
1.05459450e+00
1.05286561e+00
1.04062871e+00
1.02310167e+00
1.01036578e+00
1.00403529e+00
1.00142754e+00
1.00052364e+00
1.00022788e+00
1.00012913e+00
1.00007705e+00
1.00005779e+00
1.00005166e+00
1.00003538e+00
1.00002823e+00
1.00002361e+00
1.00001108e+00
1.00000761e+00
1.00001500e+00
1.00001775e+00
1.00001220e+00
1.00002113e+00
1.00000930e+00
1.00000885e+00
1.00001108e+00
1.00000223e+00
1.00000278e+00
1.00000235e+00
1.00000054e+00
9.99998536e-01
1.00000039e+00
1.00000337e+00
9.99994580e-01
1.00000263e+00
1.00000215e+00
9.99997263e-01
1.00000034e+00
1.00000114e+00
1.00000285e+00
9.99994374e-01
1.00000514e+00
1.00000094e+00
9.99997775e-01
1.00000149e+00
1.00000005e+00
1.00000000e+00
1.00000000e+00
1.00000000e+00
1.00000000e+00
1.00000000e+00
1.00000000e+00
1.00000000e+00
1.00000000e+00
1.00000000e+00
1.00000000e+00
1.00000000e+00
1.00000000e+00
1.00000000e+00
1.00000000e+00
1.00000000e+00
1.00000000e+00
1.00000000e+00
1.00000000e+00
1.00000000e+00
1.00000000e+00
1.00000000e+00
1.00000000e+00
1.00000000e+00
1.00000000e+00
1.00000000e+00
1.00000000e+00
1.00000000e+00
1.00000000e+00
1.10971613e+00
1.10696974e+00
1.10522342e+00
1.09890876e+00
1.09202910e+00
1.09656246e+00
1.09564973e+00
1.09750138e+00
1.09556916e+00
1.09733022e+00
1.09561945e+00
1.09510588e+00
1.09744518e+00
1.09550108e+00
1.09462974e+00
1.09576475e+00
1.09460517e+00
1.09664446e+00
1.09257567e+00
1.09277472e+00
1.09396849e+00
1.09291685e+00
1.09326021e+00
1.09160247e+00
1.09059291e+00
1.09232723e+00
1.08948577e+00
1.08985375e+00
1.09074178e+00
1.08715998e+00
1.08868168e+00
1.08988195e+00
1.08526424e+00
1.08603173e+00
1.08689069e+00
1.08332945e+00
1.08501623e+00
1.08539592e+00
1.08065462e+00
1.08182288e+00
1.08345204e+00
1.07783604e+00
1.07533356e+00
1.08132813e+00
1.08027283e+00
1.07064666e+00
1.07197047e+00
1.07885763e+00
1.07106960e+00
1.06026462e+00
1.06319090e+00
1.07490086e+00
1.07202668e+00
1.05374566e+00
1.04371846e+00
1.04940067e+00
1.05865932e+00
1.05379187e+00
1.03472291e+00
1.01656005e+00
1.00629089e+00
1.00212746e+00
1.00074008e+00
1.00027697e+00
1.00013630e+00
1.00006975e+00
1.00005472e+00
1.00003463e+00
1.00000909e+00
1.00000200e+00
1.00000470e+00
1.00001344e+00
1.00002468e+00
1.00002866e+00
1.00002198e+00
1.00001073e+00
1.00002092e+00
1.00000329e+00
1.00000428e+00
1.00000530e+00
9.99997993e-01
9.99997942e-01
1.00000053e+00
1.00000218e+00
9.99996343e-01
9.99999357e-01
1.00000538e+00
9.99994302e-01
1.00000211e+00
1.00000077e+00
9.99999638e-01
9.99998686e-01
1.00000009e+00
1.00000365e+00
9.99994346e-01
1.00000384e+00
9.99998349e-01
1.00000053e+00
9.99999726e-01
1.00000007e+00
1.00000000e+00
1.00000000e+00
1.00000000e+00
1.00000000e+00
1.00000000e+00
1.00000000e+00
1.00000000e+00
1.00000000e+00
1.00000000e+00
1.00000000e+00
1.00000000e+00
1.00000000e+00
1.00000000e+00
1.00000000e+00
1.00000000e+00
1.00000000e+00
1.00000000e+00
1.00000000e+00
1.00000000e+00
1.00000000e+00
1.00000000e+00
1.00000000e+00
1.00000000e+00
1.00000000e+00
1.00000000e+00
1.00000000e+00
1.00000000e+00
1.00000000e+00
1.10012694e+00
1.10806277e+00
1.10363153e+00
1.09735911e+00
1.09756434e+00
1.10199295e+00
1.09617704e+00
1.09579634e+00
1.09518458e+00
1.10017749e+00
1.09836138e+00
1.09492222e+00
1.09594296e+00
1.09529109e+00
1.09571392e+00
1.09681382e+00
1.09422993e+00
1.09543955e+00
1.09235471e+00
1.09506158e+00
1.09371433e+00
1.09164386e+00
1.09423567e+00
1.09158176e+00
1.09021926e+00
1.09301110e+00
1.08954695e+00
1.09028663e+00
1.09084426e+00
1.08643905e+00
1.08937911e+00
1.08985077e+00
1.08485210e+00
1.08706652e+00
1.08727759e+00
1.08308738e+00
1.08574069e+00
1.08534061e+00
1.07945232e+00
1.08321698e+00
1.08560887e+00
1.07663056e+00
1.07484438e+00
1.08453552e+00
1.08073897e+00
1.06663430e+00
1.07211528e+00
1.08542988e+00
1.07461473e+00
1.05481418e+00
1.05916061e+00
1.08036898e+00
1.08034750e+00
1.05415291e+00
1.03775019e+00
1.04601044e+00
1.06343205e+00
1.06490201e+00
1.04489010e+00
1.02171464e+00
1.00821666e+00
1.00288588e+00
1.00093475e+00
1.00028739e+00
1.00012775e+00
1.00005737e+00
1.00003896e+00
1.00002859e+00
1.00002217e+00
1.00003193e+00
1.00003414e+00
1.00002162e+00
1.00001378e+00
1.00001661e+00
1.00001140e+00
1.00000617e+00
1.00001232e+00
1.00000441e+00
1.00000079e+00
1.00000552e+00
1.00000422e+00
9.99998495e-01
1.00000039e+00
1.00000408e+00
9.99998112e-01
9.99997918e-01
1.00000336e+00
9.99999626e-01
9.99997872e-01
1.00000043e+00
1.00000240e+00
9.99998314e-01
9.99998892e-01
1.00000175e+00
9.99999517e-01
9.99999967e-01
9.99999577e-01
1.00000065e+00
9.99999645e-01
1.00000009e+00
1.00000000e+00
1.00000000e+00
1.00000000e+00
1.00000000e+00
1.00000000e+00
1.00000000e+00
1.00000000e+00
1.00000000e+00
1.00000000e+00
1.00000000e+00
1.00000000e+00
1.00000000e+00
1.00000000e+00
1.00000000e+00
1.00000000e+00
1.00000000e+00
1.00000000e+00
1.00000000e+00
1.00000000e+00
1.00000000e+00
1.00000000e+00
1.00000000e+00
1.00000000e+00
1.00000000e+00
1.00000000e+00
1.00000000e+00
1.00000000e+00
1.00000000e+00
1.10541258e+00
1.10222495e+00
1.09779866e+00
1.10564918e+00
1.10181422e+00
1.09655830e+00
1.09482144e+00
1.10184706e+00
1.09779087e+00
1.09599647e+00
1.09689390e+00
1.09763374e+00
1.09825502e+00
1.09421840e+00
1.09543854e+00
1.09597051e+00
1.09443284e+00
1.09654349e+00
1.09300782e+00
1.09508235e+00
1.09306777e+00
1.09168073e+00
1.09543503e+00
1.09176069e+00
1.08999205e+00
1.09350860e+00
1.08974306e+00
1.09046961e+00
1.09160240e+00
1.08650038e+00
1.08972949e+00
1.09039153e+00
1.08462284e+00
1.08774467e+00
1.08832381e+00
1.08289429e+00
1.08626095e+00
1.08598951e+00
1.07905437e+00
1.08412859e+00
1.08709816e+00
1.07528998e+00
1.07448761e+00
1.08871741e+00
1.08277247e+00
1.06148375e+00
1.06925785e+00
1.09233934e+00
1.08178411e+00
1.05167170e+00
1.05223927e+00
1.08126130e+00
1.08897887e+00
1.05911835e+00
1.03453740e+00
1.04100256e+00
1.06519742e+00
1.07470686e+00
1.05533116e+00
1.02770542e+00
1.01091214e+00
1.00370314e+00
1.00105073e+00
1.00038436e+00
1.00017301e+00
1.00006078e+00
1.00003695e+00
1.00002339e+00
1.00000823e+00
1.00000740e+00
1.00001687e+00
1.00001607e+00
1.00002489e+00
1.00002752e+00
1.00001427e+00
1.00001061e+00
1.00000780e+00
1.00000690e+00
9.99998634e-01
9.99998336e-01
1.00000211e+00
9.99996994e-01
9.99999011e-01
9.99999573e-01
1.00000129e+00
9.99999473e-01
9.99997655e-01
1.00000296e+00
9.99999233e-01
9.99999321e-01
9.99999882e-01
1.00000060e+00
1.00000065e+00
9.99997881e-01
1.00000203e+00
9.99999344e-01
9.99999430e-01
1.00000081e+00
9.99999572e-01
1.00000010e+00
1.00000000e+00
1.00000000e+00
1.00000000e+00
1.00000000e+00
1.00000000e+00
1.00000000e+00
1.00000000e+00
1.00000000e+00
1.00000000e+00
1.00000000e+00
1.00000000e+00
1.00000000e+00
1.00000000e+00
1.00000000e+00
1.00000000e+00
1.00000000e+00
1.00000000e+00
1.00000000e+00
1.00000000e+00
1.00000000e+00
1.00000000e+00
1.00000000e+00
1.00000000e+00
1.00000000e+00
1.00000000e+00
1.00000000e+00
1.00000000e+00
1.00000000e+00
1.10636621e+00
1.10185536e+00
1.10105140e+00
1.10350818e+00
1.09868384e+00
1.10172471e+00
1.09941854e+00
1.09951693e+00
1.09436813e+00
1.09817952e+00
1.09843769e+00
1.09753883e+00
1.09701335e+00
1.09517613e+00
1.09697238e+00
1.09553235e+00
1.09501508e+00
1.09695964e+00
1.09195326e+00
1.09550490e+00
1.09419735e+00
1.09138231e+00
1.09557334e+00
1.09127934e+00
1.09146528e+00
1.09407715e+00
1.08767880e+00
1.09082932e+00
1.09294330e+00
1.08641030e+00
1.09029037e+00
1.09078335e+00
1.08426244e+00
1.08817316e+00
1.08812520e+00
1.08252105e+00
1.08771969e+00
1.08687262e+00
1.07818223e+00
1.08516372e+00
1.08918423e+00
1.07256948e+00
1.07159052e+00
1.09340735e+00
1.08867324e+00
1.06013956e+00
1.06400241e+00
1.09227689e+00
1.08635206e+00
1.05377791e+00
1.05190633e+00
1.08274518e+00
1.09258744e+00
1.06016038e+00
1.03178974e+00
1.03855037e+00
1.06807961e+00
1.08388592e+00
1.06502208e+00
1.03365680e+00
1.01323974e+00
1.00411337e+00
1.00126983e+00
1.00049455e+00
1.00009906e+00
1.00002268e+00
1.00003841e+00
1.00002933e+00
1.00002894e+00
1.00003667e+00
1.00003912e+00
1.00001953e+00
1.00001313e+00
1.00000881e+00
1.00000456e+00
1.00000715e+00
9.99998658e-01
1.00000337e+00
1.00000218e+00
9.99999677e-01
1.00000218e+00
1.00000149e+00
1.00000224e+00
9.99996569e-01
1.00000244e+00
1.00000172e+00
9.99996225e-01
1.00000227e+00
1.00000007e+00
9.99999598e-01
9.99999074e-01
1.00000117e+00
1.00000059e+00
9.99997543e-01
1.00000241e+00
9.99999229e-01
9.99999316e-01
1.00000095e+00
9.99999507e-01
1.00000011e+00
1.00000000e+00
1.00000000e+00
1.00000000e+00
1.00000000e+00
1.00000000e+00
1.00000000e+00
1.00000000e+00
1.00000000e+00
1.00000000e+00
1.00000000e+00
1.00000000e+00
1.00000000e+00
1.00000000e+00
1.00000000e+00
1.00000000e+00
1.00000000e+00
1.00000000e+00
1.00000000e+00
1.00000000e+00
1.00000000e+00
1.00000000e+00
1.00000000e+00
1.00000000e+00
1.00000000e+00
1.00000000e+00
1.00000000e+00
1.00000000e+00
1.00000000e+00
1.09906834e+00
1.10362455e+00
1.10516209e+00
1.09871420e+00
1.09865512e+00
1.10404646e+00
1.09933620e+00
1.09806317e+00
1.09759514e+00
1.10001811e+00
1.09615228e+00
1.09534374e+00
1.09774904e+00
1.09861577e+00
1.09678627e+00
1.09356989e+00
1.09449391e+00
1.09737875e+00
1.09299092e+00
1.09700557e+00
1.09363622e+00
1.09011671e+00
1.09593093e+00
1.09192950e+00
1.09170564e+00
1.09459804e+00
1.08821406e+00
1.09135867e+00
1.09323428e+00
1.08603583e+00
1.08994444e+00
1.09097135e+00
1.08484034e+00
1.08997712e+00
1.08863148e+00
1.08148114e+00
1.08822887e+00
1.08697804e+00
1.07654205e+00
1.08687343e+00
1.09413571e+00
1.07277726e+00
1.06693815e+00
1.09249704e+00
1.09261217e+00
1.06256380e+00
1.06264246e+00
1.09266914e+00
1.08916136e+00
1.05449282e+00
1.04968034e+00
1.08264198e+00
1.09731921e+00
1.06419216e+00
1.03112446e+00
1.03590593e+00
1.06843276e+00
1.09101856e+00
1.07482425e+00
1.04019108e+00
1.01553189e+00
1.00496379e+00
1.00170310e+00
1.00043178e+00
1.00007257e+00
1.00009033e+00
1.00005710e+00
1.00001830e+00
1.00001584e+00
1.00001974e+00
1.00001360e+00
1.00001368e+00
1.00002617e+00
1.00001230e+00
1.00000724e+00
1.00001215e+00
9.99999267e-01
9.99999785e-01
1.00000317e+00
1.00000002e+00
9.99994204e-01
1.00000032e+00
1.00000405e+00
9.99993555e-01
1.00000139e+00
1.00000323e+00
9.99996773e-01
9.99999812e-01
1.00000156e+00
1.00000040e+00
9.99997245e-01
1.00000237e+00
1.00000039e+00
9.99997216e-01
1.00000276e+00
9.99999110e-01
9.99999236e-01
1.00000106e+00
9.99999451e-01
1.00000013e+00
1.00000000e+00
1.00000000e+00
1.00000000e+00
1.00000000e+00
1.00000000e+00
1.00000000e+00
1.00000000e+00
1.00000000e+00
1.00000000e+00
1.00000000e+00
1.00000000e+00
1.00000000e+00
1.00000000e+00
1.00000000e+00
1.00000000e+00
1.00000000e+00
1.00000000e+00
1.00000000e+00
1.00000000e+00
1.00000000e+00
1.00000000e+00
1.00000000e+00
1.00000000e+00
1.00000000e+00
1.00000000e+00
1.00000000e+00
1.00000000e+00
1.00000000e+00
1.10082304e+00
1.10127799e+00
1.09962862e+00
1.10083918e+00
1.10210242e+00
1.09901133e+00
1.09721190e+00
1.10190863e+00
1.10091357e+00
1.09668327e+00
1.09595838e+00
1.09766025e+00
1.09851947e+00
1.09578406e+00
1.09759981e+00
1.09559134e+00
1.09602965e+00
1.09603020e+00
1.09162400e+00
1.09795932e+00
1.09397025e+00
1.09082278e+00
1.09688826e+00
1.09143727e+00
1.09150707e+00
1.09505959e+00
1.08757054e+00
1.09173106e+00
1.09403900e+00
1.08671657e+00
1.09095967e+00
1.09023850e+00
1.08407689e+00
1.09098805e+00
1.08847840e+00
1.08126554e+00
1.09128191e+00
1.08899684e+00
1.07277124e+00
1.08396337e+00
1.09856584e+00
1.07716270e+00
1.06516069e+00
1.08936599e+00
1.09386440e+00
1.06622184e+00
1.06351734e+00
1.09159513e+00
1.08971337e+00
1.05589688e+00
1.05053353e+00
1.08410107e+00
1.10018161e+00
1.06613020e+00
1.03057128e+00
1.03431550e+00
1.06912522e+00
1.09780864e+00
1.08434659e+00
1.04615427e+00
1.01776859e+00
1.00597693e+00
1.00169141e+00
1.00031731e+00
1.00021187e+00
1.00009060e+00
1.00000974e+00
1.00001916e+00
1.00003599e+00
1.00004746e+00
1.00002261e+00
1.00000734e+00
1.00001863e+00
9.99997386e-01
9.99994551e-01
1.00000939e+00
9.99998959e-01
9.99994967e-01
1.00000263e+00
1.00000575e+00
9.99995563e-01
1.00000105e+00
1.00000631e+00
9.99994589e-01
1.00000120e+00
1.00000258e+00
9.99997707e-01
9.99999759e-01
1.00000123e+00
1.00000063e+00
9.99996989e-01
1.00000271e+00
1.00000024e+00
9.99997052e-01
1.00000302e+00
9.99998985e-01
9.99999193e-01
1.00000115e+00
9.99999405e-01
1.00000014e+00
1.00000000e+00
1.00000000e+00
1.00000000e+00
1.00000000e+00
1.00000000e+00
1.00000000e+00
1.00000000e+00
1.00000000e+00
1.00000000e+00
1.00000000e+00
1.00000000e+00
1.00000000e+00
1.00000000e+00
1.00000000e+00
1.00000000e+00
1.00000000e+00
1.00000000e+00
1.00000000e+00
1.00000000e+00
1.00000000e+00
1.00000000e+00
1.00000000e+00
1.00000000e+00
1.00000000e+00
1.00000000e+00
1.00000000e+00
1.00000000e+00
1.00000000e+00
1.10476643e+00
1.10130826e+00
1.09825706e+00
1.10173228e+00
1.09899846e+00
1.09873124e+00
1.09944134e+00
1.10138839e+00
1.09777599e+00
1.09730134e+00
1.10019751e+00
1.09829478e+00
1.09531947e+00
1.09530972e+00
1.10006512e+00
1.09569311e+00
1.09523865e+00
1.09568805e+00
1.09240649e+00
1.09855418e+00
1.09410657e+00
1.09075167e+00
1.09656039e+00
1.09139569e+00
1.09275451e+00
1.09549227e+00
1.08695871e+00
1.09162490e+00
1.09456840e+00
1.08672012e+00
1.09137509e+00
1.09087914e+00
1.08458204e+00
1.09194509e+00
1.08763003e+00
1.07886508e+00
1.09373735e+00
1.09411979e+00
1.07183913e+00
1.07878827e+00
1.09861340e+00
1.08188588e+00
1.06724153e+00
1.08791898e+00
1.09374775e+00
1.06684973e+00
1.06330806e+00
1.09220986e+00
1.09249704e+00
1.05785009e+00
1.04995988e+00
1.08305096e+00
1.10224768e+00
1.07007702e+00
1.03210424e+00
1.03275472e+00
1.06884398e+00
1.10333349e+00
1.09323431e+00
1.05220463e+00
1.02061027e+00
1.00667259e+00
1.00160507e+00
1.00065265e+00
1.00025635e+00
9.99965113e-01
1.00005115e+00
1.00005280e+00
1.00001681e+00
1.00002289e+00
1.00000439e+00
1.00000135e+00
1.00002554e+00
1.00000728e+00
9.99995357e-01
1.00001012e+00
1.00000225e+00
9.99994644e-01
1.00000150e+00
1.00000362e+00
9.99993634e-01
9.99998897e-01
1.00000520e+00
9.99994426e-01
1.00000036e+00
1.00000345e+00
9.99997305e-01
9.99999384e-01
1.00000201e+00
1.00000008e+00
9.99997020e-01
1.00000303e+00
9.99999953e-01
9.99997054e-01
1.00000320e+00
9.99998859e-01
9.99999189e-01
1.00000121e+00
9.99999369e-01
1.00000014e+00
1.00000000e+00
1.00000000e+00
1.00000000e+00
1.00000000e+00
1.00000000e+00
1.00000000e+00
1.00000000e+00
1.00000000e+00
1.00000000e+00
1.00000000e+00
1.00000000e+00
1.00000000e+00
1.00000000e+00
1.00000000e+00
1.00000000e+00
1.00000000e+00
1.00000000e+00
1.00000000e+00
1.00000000e+00
1.00000000e+00
1.00000000e+00
1.00000000e+00
1.00000000e+00
1.00000000e+00
1.00000000e+00
1.00000000e+00
1.00000000e+00
1.00000000e+00
1.10015807e+00
1.09931744e+00
1.10334070e+00
1.10112011e+00
1.09795264e+00
1.10208347e+00
1.09791215e+00
1.09751926e+00
1.09869727e+00
1.10086989e+00
1.09974270e+00
1.09560632e+00
1.09718444e+00
1.09842724e+00
1.09733575e+00
1.09328727e+00
1.09675923e+00
1.09920624e+00
1.09152743e+00
1.09711067e+00
1.09442336e+00
1.09200465e+00
1.09704671e+00
1.09012468e+00
1.09286629e+00
1.09693907e+00
1.08787973e+00
1.09230853e+00
1.09411791e+00
1.08560406e+00
1.09159514e+00
1.09101879e+00
1.08606832e+00
1.09518049e+00
1.08752804e+00
1.07444320e+00
1.09234126e+00
1.09889920e+00
1.07495403e+00
1.07664511e+00
1.09738279e+00
1.08364472e+00
1.06811510e+00
1.08687161e+00
1.09431239e+00
1.06949965e+00
1.06479168e+00
1.09155102e+00
1.09260406e+00
1.05915220e+00
1.05109544e+00
1.08395404e+00
1.10430594e+00
1.07289400e+00
1.03326870e+00
1.03164013e+00
1.06886216e+00
1.10816736e+00
1.10150567e+00
1.05834425e+00
1.02323126e+00
1.00701761e+00
1.00206253e+00
1.00082837e+00
9.99946969e-01
1.00002931e+00
1.00015324e+00
1.00000179e+00
9.99998097e-01
1.00004204e+00
1.00001620e+00
9.99998090e-01
1.00000959e+00
9.99998706e-01
9.99990747e-01
1.00000615e+00
1.00000062e+00
9.99993770e-01
1.00000341e+00
1.00000334e+00
9.99996646e-01
1.00000141e+00
1.00000423e+00
9.99995970e-01
1.00000044e+00
1.00000342e+00
9.99997214e-01
9.99999356e-01
1.00000261e+00
9.99999388e-01
9.99997289e-01
1.00000330e+00
9.99999553e-01
9.99997222e-01
1.00000328e+00
9.99998734e-01
9.99999224e-01
1.00000123e+00
9.99999345e-01
1.00000015e+00
1.00000000e+00
1.00000000e+00
1.00000000e+00
1.00000000e+00
1.00000000e+00
1.00000000e+00
1.00000000e+00
1.00000000e+00
1.00000000e+00
1.00000000e+00
1.00000000e+00
1.00000000e+00
1.00000000e+00
1.00000000e+00
1.00000000e+00
1.00000000e+00
1.00000000e+00
1.00000000e+00
1.00000000e+00
1.00000000e+00
1.00000000e+00
1.00000000e+00
1.00000000e+00
1.00000000e+00
1.00000000e+00
1.00000000e+00
1.00000000e+00
1.00000000e+00
1.09963304e+00
1.10227833e+00
1.10327571e+00
1.09776634e+00
1.10099159e+00
1.10285213e+00
1.09733851e+00
1.09952986e+00
1.09925685e+00
1.09758086e+00
1.09862204e+00
1.09882315e+00
1.09846205e+00
1.09489730e+00
1.09683482e+00
1.09698200e+00
1.09884624e+00
1.09629524e+00
1.08922471e+00
1.09834111e+00
1.09590342e+00
1.09286060e+00
1.09724148e+00
1.09010285e+00
1.09216536e+00
1.09642352e+00
1.08800561e+00
1.09279892e+00
1.09517378e+00
1.08765649e+00
1.09224007e+00
1.08826668e+00
1.08331614e+00
1.09814751e+00
1.09210096e+00
1.07321562e+00
1.08894964e+00
1.10024774e+00
1.07764305e+00
1.07635071e+00
1.09625887e+00
1.08507013e+00
1.06966029e+00
1.08699003e+00
1.09492838e+00
1.07075203e+00
1.06436822e+00
1.09099227e+00
1.09457943e+00
1.06252684e+00
1.05171175e+00
1.08239563e+00
1.10522361e+00
1.07637417e+00
1.03563469e+00
1.03158822e+00
1.06848629e+00
1.11200349e+00
1.10948363e+00
1.06445988e+00
1.02544098e+00
1.00771151e+00
1.00251682e+00
1.00043478e+00
1.00002289e+00
1.00029573e+00
1.00002437e+00
9.99946497e-01
1.00004038e+00
1.00003275e+00
9.99994306e-01
1.00000064e+00
1.00001466e+00
1.00000301e+00
9.99995605e-01
1.00000755e+00
1.00000037e+00
9.99994256e-01
1.00000478e+00
9.99999873e-01
9.99994495e-01
1.00000137e+00
1.00000250e+00
9.99995552e-01
1.00000033e+00
1.00000367e+00
9.99996616e-01
9.99999499e-01
1.00000321e+00
9.99998505e-01
9.99997791e-01
1.00000348e+00
9.99999061e-01
9.99997550e-01
1.00000328e+00
9.99998614e-01
9.99999296e-01
1.00000123e+00
9.99999332e-01
1.00000016e+00
1.00000000e+00
1.00000000e+00
1.00000000e+00
1.00000000e+00
1.00000000e+00
1.00000000e+00
1.00000000e+00
1.00000000e+00
1.00000000e+00
1.00000000e+00
1.00000000e+00
1.00000000e+00
1.00000000e+00
1.00000000e+00
1.00000000e+00
1.00000000e+00
1.00000000e+00
1.00000000e+00
1.00000000e+00
1.00000000e+00
1.00000000e+00
1.00000000e+00
1.00000000e+00
1.00000000e+00
1.00000000e+00
1.00000000e+00
1.00000000e+00
1.00000000e+00
1.10122321e+00
1.10064717e+00
1.09893333e+00
1.10170884e+00
1.10390710e+00
1.09888024e+00
1.09702716e+00
1.10221786e+00
1.09798067e+00
1.09673972e+00
1.09978144e+00
1.09945821e+00
1.09676904e+00
1.09516309e+00
1.09927914e+00
1.09583883e+00
1.09637253e+00
1.09753343e+00
1.09323892e+00
1.09811757e+00
1.09358794e+00
1.09159484e+00
1.09919153e+00
1.09112507e+00
1.09225881e+00
1.09726168e+00
1.08816192e+00
1.09217965e+00
1.09343763e+00
1.08848228e+00
1.09637960e+00
1.08889897e+00
1.07937719e+00
1.09746325e+00
1.09626708e+00
1.07532306e+00
1.08681856e+00
1.09965031e+00
1.07895295e+00
1.07671573e+00
1.09701572e+00
1.08685413e+00
1.06959347e+00
1.08539237e+00
1.09517640e+00
1.07363954e+00
1.06593090e+00
1.09045342e+00
1.09476979e+00
1.06409112e+00
1.05243352e+00
1.08266403e+00
1.10707890e+00
1.07971499e+00
1.03784506e+00
1.03139623e+00
1.06777218e+00
1.11565993e+00
1.11704896e+00
1.07013761e+00
1.02766913e+00
1.00873923e+00
1.00246135e+00
1.00035590e+00
1.00047727e+00
1.00006671e+00
9.99849192e-01
1.00008220e+00
1.00006007e+00
9.99995407e-01
9.99990719e-01
1.00000472e+00
1.00000536e+00
9.99993925e-01
9.99995814e-01
1.00000800e+00
9.99997150e-01
9.99994812e-01
1.00000744e+00
9.99999179e-01
9.99997102e-01
1.00000350e+00
1.00000173e+00
9.99996277e-01
1.00000045e+00
1.00000376e+00
9.99995964e-01
9.99999778e-01
1.00000371e+00
9.99997486e-01
9.99998504e-01
1.00000354e+00
9.99998505e-01
9.99998019e-01
1.00000317e+00
9.99998506e-01
9.99999401e-01
1.00000120e+00
9.99999330e-01
1.00000016e+00
1.00000000e+00
1.00000000e+00
1.00000000e+00
1.00000000e+00
1.00000000e+00
1.00000000e+00
1.00000000e+00
1.00000000e+00
1.00000000e+00
1.00000000e+00
1.00000000e+00
1.00000000e+00
1.00000000e+00
1.00000000e+00
1.00000000e+00
1.00000000e+00
1.00000000e+00
1.00000000e+00
1.00000000e+00
1.00000000e+00
1.00000000e+00
1.00000000e+00
1.00000000e+00
1.00000000e+00
1.00000000e+00
1.00000000e+00
1.00000000e+00
1.00000000e+00
1.10233792e+00
1.10096543e+00
1.09954579e+00
1.10035836e+00
1.09810428e+00
1.10042308e+00
1.10144233e+00
1.10155402e+00
1.09597105e+00
1.09844822e+00
1.09915549e+00
1.09735111e+00
1.09852712e+00
1.09896750e+00
1.09816146e+00
1.09262804e+00
1.09693430e+00
1.10074226e+00
1.09226308e+00
1.09633590e+00
1.09494070e+00
1.09392050e+00
1.09815201e+00
1.08877078e+00
1.09304346e+00
1.09955923e+00
1.08996335e+00
1.09123933e+00
1.09090767e+00
1.08763628e+00
1.09968615e+00
1.09218518e+00
1.07710526e+00
1.09421008e+00
1.09825943e+00
1.07766830e+00
1.08638963e+00
1.09946064e+00
1.08002600e+00
1.07707411e+00
1.09667397e+00
1.08741640e+00
1.07043879e+00
1.08609581e+00
1.09701048e+00
1.07467641e+00
1.06513128e+00
1.08966075e+00
1.09652231e+00
1.06744132e+00
1.05421285e+00
1.08176779e+00
1.10694523e+00
1.08276034e+00
1.04071187e+00
1.03203122e+00
1.06767641e+00
1.11906473e+00
1.12363273e+00
1.07536870e+00
1.03001490e+00
1.00938131e+00
1.00226690e+00
1.00079453e+00
1.00032334e+00
9.99737612e-01
1.00016866e+00
1.00012660e+00
9.99931189e-01
9.99992228e-01
1.00001103e+00
1.00001266e+00
1.00000752e+00
9.99994566e-01
9.99997869e-01
1.00000880e+00
9.99995743e-01
9.99995489e-01
1.00000875e+00
9.99995940e-01
9.99996530e-01
1.00000402e+00
1.00000009e+00
9.99996604e-01
1.00000073e+00
1.00000368e+00
9.99995315e-01
1.00000023e+00
1.00000403e+00
9.99996407e-01
9.99999399e-01
1.00000347e+00
9.99997920e-01
9.99998605e-01
1.00000297e+00
9.99998414e-01
9.99999535e-01
1.00000114e+00
9.99999338e-01
1.00000016e+00
1.00000000e+00
1.00000000e+00
1.00000000e+00
1.00000000e+00
1.00000000e+00
1.00000000e+00
1.00000000e+00
1.00000000e+00
1.00000000e+00
1.00000000e+00
1.00000000e+00
1.00000000e+00
1.00000000e+00
1.00000000e+00
1.00000000e+00
1.00000000e+00
1.00000000e+00
1.00000000e+00
1.00000000e+00
1.00000000e+00
1.00000000e+00
1.00000000e+00
1.00000000e+00
1.00000000e+00
1.00000000e+00
1.00000000e+00
1.00000000e+00
1.00000000e+00
1.09912306e+00
1.09957581e+00
1.10159934e+00
1.09911676e+00
1.09794324e+00
1.10177939e+00
1.09882509e+00
1.10028230e+00
1.09969834e+00
1.09985929e+00
1.09652331e+00
1.09652173e+00
1.10035104e+00
1.09829260e+00
1.09814925e+00
1.09456326e+00
1.09756055e+00
1.09811040e+00
1.09125747e+00
1.09906139e+00
1.09636705e+00
1.09281537e+00
1.09809966e+00
1.09034490e+00
1.09166856e+00
1.09789745e+00
1.09134263e+00
1.09575087e+00
1.09125985e+00
1.08319278e+00
1.09931306e+00
1.09592426e+00
1.07837193e+00
1.09223482e+00
1.09859098e+00
1.07983879e+00
1.08628753e+00
1.09845436e+00
1.08055214e+00
1.07790702e+00
1.09774404e+00
1.08889182e+00
1.07099776e+00
1.08489100e+00
1.09691869e+00
1.07666817e+00
1.06701128e+00
1.08930570e+00
1.09725092e+00
1.06930183e+00
1.05482060e+00
1.08132394e+00
1.10792865e+00
1.08639760e+00
1.04364755e+00
1.03250870e+00
1.06738639e+00
1.12179188e+00
1.12987606e+00
1.08096717e+00
1.03229423e+00
1.00972751e+00
1.00256030e+00
1.00094876e+00
9.99845901e-01
1.00013488e+00
1.00028601e+00
9.99785324e-01
9.99979919e-01
1.00008756e+00
9.99985761e-01
9.99991465e-01
9.99999427e-01
9.99991641e-01
1.00000170e+00
1.00000802e+00
9.99993221e-01
9.99996814e-01
1.00000958e+00
9.99994970e-01
9.99998612e-01
1.00000573e+00
9.99999222e-01
9.99997466e-01
1.00000147e+00
1.00000348e+00
9.99994823e-01
1.00000093e+00
1.00000412e+00
9.99995371e-01
1.00000044e+00
1.00000324e+00
9.99997350e-01
9.99999279e-01
1.00000268e+00
9.99998345e-01
9.99999693e-01
1.00000106e+00
9.99999357e-01
1.00000016e+00
1.00000000e+00
1.00000000e+00
1.00000000e+00
1.00000000e+00
1.00000000e+00
1.00000000e+00
1.00000000e+00
1.00000000e+00
1.00000000e+00
1.00000000e+00
1.00000000e+00
1.00000000e+00
1.00000000e+00
1.00000000e+00
1.00000000e+00
1.00000000e+00
1.00000000e+00
1.00000000e+00
1.00000000e+00
1.00000000e+00
1.00000000e+00
1.00000000e+00
1.00000000e+00
1.00000000e+00
1.00000000e+00
1.00000000e+00
1.00000000e+00
1.00000000e+00
1.10018241e+00
1.10263321e+00
1.10002455e+00
1.09946096e+00
1.10124529e+00
1.09955970e+00
1.09649608e+00
1.10193834e+00
1.09957084e+00
1.09916135e+00
1.09844694e+00
1.09954558e+00
1.09799567e+00
1.09504222e+00
1.09996345e+00
1.09610170e+00
1.09644075e+00
1.09858085e+00
1.09472345e+00
1.09843626e+00
1.09184165e+00
1.09174860e+00
1.10294879e+00
1.09366725e+00
1.08966672e+00
1.09417656e+00
1.09145445e+00
1.09896812e+00
1.09238133e+00
1.08152342e+00
1.09857584e+00
1.09835276e+00
1.07926389e+00
1.09125857e+00
1.09904208e+00
1.08051613e+00
1.08600548e+00
1.09908872e+00
1.08213997e+00
1.07891260e+00
1.09723788e+00
1.08866532e+00
1.07123189e+00
1.08544221e+00
1.09913980e+00
1.07858219e+00
1.06640374e+00
1.08760125e+00
1.09863443e+00
1.07293852e+00
1.05658708e+00
1.08048868e+00
1.10823552e+00
1.08925228e+00
1.04648617e+00
1.03383347e+00
1.06778365e+00
1.12438891e+00
1.13589733e+00
1.08556071e+00
1.03377998e+00
1.01020267e+00
1.00293457e+00
1.00061321e+00
1.00000847e+00
1.00046922e+00
9.99760760e-01
9.99871131e-01
1.00023887e+00
9.99979852e-01
9.99929507e-01
1.00002653e+00
1.00001424e+00
9.99989137e-01
1.00000241e+00
1.00000509e+00
9.99990629e-01
9.99998827e-01
1.00000852e+00
9.99991906e-01
9.99998688e-01
1.00000583e+00
9.99997585e-01
9.99998038e-01
1.00000235e+00
1.00000302e+00
9.99994522e-01
1.00000184e+00
1.00000394e+00
9.99994487e-01
1.00000160e+00
1.00000285e+00
9.99996842e-01
1.00000001e+00
1.00000231e+00
9.99998303e-01
9.99999866e-01
1.00000096e+00
9.99999385e-01
1.00000016e+00
1.00000000e+00
1.00000000e+00
1.00000000e+00
1.00000000e+00
1.00000000e+00
1.00000000e+00
1.00000000e+00
1.00000000e+00
1.00000000e+00
1.00000000e+00
1.00000000e+00
1.00000000e+00
1.00000000e+00
1.00000000e+00
1.00000000e+00
1.00000000e+00
1.00000000e+00
1.00000000e+00
1.00000000e+00
1.00000000e+00
1.00000000e+00
1.00000000e+00
1.00000000e+00
1.00000000e+00
1.00000000e+00
1.00000000e+00
1.00000000e+00
1.00000000e+00
1.10156392e+00
1.10050559e+00
1.09847400e+00
1.10362228e+00
1.10161641e+00
1.09818992e+00
1.09876180e+00
1.10147325e+00
1.09686440e+00
1.10070566e+00
1.09943484e+00
1.09831684e+00
1.09697046e+00
1.09795768e+00
1.10111022e+00
1.09396956e+00
1.09506632e+00
1.10078716e+00
1.09500618e+00
1.09827635e+00
1.09303191e+00
1.09199879e+00
1.10100291e+00
1.09373523e+00
1.09342598e+00
1.09462593e+00
1.08788374e+00
1.09887803e+00
1.09677559e+00
1.08204023e+00
1.09588712e+00
1.09787888e+00
1.08060892e+00
1.09174581e+00
1.09924283e+00
1.08184947e+00
1.08663201e+00
1.09881228e+00
1.08195884e+00
1.07889394e+00
1.09816336e+00
1.09040383e+00
1.07196626e+00
1.08551662e+00
1.09936704e+00
1.07943852e+00
1.06700931e+00
1.08806919e+00
1.10021442e+00
1.07512080e+00
1.05726343e+00
1.07995194e+00
1.10873152e+00
1.09210619e+00
1.05005859e+00
1.03514228e+00
1.06795365e+00
1.12682831e+00
1.14141204e+00
1.08964216e+00
1.03584483e+00
1.01096485e+00
1.00289737e+00
1.00043438e+00
1.00043673e+00