# vtk DataFile Version 2.0
LBM Flow Field - Timestep 670
ASCII
DATASET STRUCTURED_POINTS
DIMENSIONS 128 128 1
ORIGIN 0.0 0.0 0.0
SPACING 1.0 1.0 1.0
POINT_DATA 16384
SCALARS density double 1
LOOKUP_TABLE default
1.31978142e+00
1.30706464e+00
1.29190992e+00
1.27687865e+00
1.26202825e+00
1.24739756e+00
1.23303296e+00
1.21898798e+00
1.20527124e+00
1.19197493e+00
1.17904375e+00
1.16663110e+00
1.15459528e+00
1.14316918e+00
1.13210877e+00
1.12173792e+00
1.11170277e+00
1.10242160e+00
1.09343243e+00
1.08524285e+00
1.07729350e+00
1.07016825e+00
1.06322893e+00
1.05711612e+00
1.05113727e+00
1.04596570e+00
1.04088229e+00
1.03656705e+00
1.03230291e+00
1.02875091e+00
1.02522292e+00
1.02233798e+00
1.01945990e+00
1.01714714e+00
1.01483298e+00
1.01300227e+00
1.01116900e+00
1.00973753e+00
1.00830730e+00
1.00720116e+00
1.00610281e+00
1.00525778e+00
1.00442785e+00
1.00378941e+00
1.00317260e+00
1.00269547e+00
1.00224473e+00
1.00189202e+00
1.00156819e+00
1.00131033e+00
1.00108160e+00
1.00089528e+00
1.00073639e+00
1.00060342e+00
1.00049480e+00
1.00040120e+00
1.00032806e+00
1.00026313e+00
1.00021456e+00
1.00017025e+00
1.00013838e+00
1.00010868e+00
1.00008798e+00
1.00006845e+00
1.00005513e+00
1.00004254e+00
1.00003403e+00
1.00002609e+00
1.00002069e+00
1.00001579e+00
1.00001239e+00
1.00000943e+00
1.00000730e+00
1.00000555e+00
1.00000424e+00
1.00000323e+00
1.00000242e+00
1.00000185e+00
1.00000137e+00
1.00000104e+00
1.00000076e+00
1.00000058e+00
1.00000042e+00
1.00000031e+00
1.00000022e+00
1.00000017e+00
1.00000012e+00
1.00000009e+00
1.00000006e+00
1.00000005e+00
1.00000003e+00
1.00000002e+00
1.00000002e+00
1.00000001e+00
1.00000001e+00
1.00000001e+00
1.00000000e+00
1.00000000e+00
1.00000000e+00
1.00000000e+00
1.00000000e+00
1.00000000e+00
1.00000000e+00
1.00000000e+00
1.00000000e+00
1.00000000e+00
1.00000000e+00
1.00000000e+00
1.00000000e+00
1.00000000e+00
1.00000000e+00
1.00000000e+00
1.00000000e+00
1.00000000e+00
1.00000000e+00
1.00000000e+00
1.00000000e+00
1.00000000e+00
1.00000000e+00
1.00000000e+00
1.00000000e+00
1.00000000e+00
1.00000000e+00
1.00000000e+00
1.00000000e+00
1.00000000e+00
1.00000000e+00
1.00000000e+00
1.11567252e+00
1.09248028e+00
1.07597223e+00
1.06508250e+00
1.06138826e+00
1.05408681e+00
1.04663816e+00
1.03825136e+00
1.04673879e+00
1.04119501e+00
1.03185511e+00
1.04000785e+00
1.03430058e+00
1.03150115e+00
1.03033850e+00
1.03270997e+00
1.02813742e+00
1.02651077e+00
1.03210840e+00
1.01515299e+00
1.03442459e+00
1.03418587e+00
1.03091583e+00
1.02096689e+00
1.03151408e+00
1.03139575e+00
1.02482913e+00
1.02958482e+00
1.03307406e+00
1.02979315e+00
1.03049969e+00
1.02837220e+00
1.02947442e+00
1.03713266e+00
1.04105404e+00
1.03158377e+00
1.02301003e+00
1.02601766e+00
1.03616615e+00
1.03820776e+00
1.03342502e+00
1.03345588e+00
1.04240554e+00
1.04770454e+00
1.03807175e+00
1.03047324e+00
1.03110032e+00
1.03997792e+00
1.03672203e+00
1.02896508e+00
1.03116277e+00
1.03518983e+00
1.03566009e+00
1.03303976e+00
1.02930636e+00
1.03180689e+00
1.03238129e+00
1.02998082e+00
1.03270029e+00
1.03022621e+00
1.02968375e+00
1.02964903e+00
1.03079564e+00
1.03112055e+00
1.02556607e+00
1.03208708e+00
1.02978544e+00
1.02654303e+00
1.03304204e+00
1.03048708e+00
1.02643596e+00
1.03120083e+00
1.02794310e+00
1.02782198e+00
1.02957817e+00
1.02860750e+00
1.02684250e+00
1.02801257e+00
1.02901452e+00
1.02686531e+00
1.02802397e+00
1.02912513e+00
1.02786694e+00
1.02673912e+00
1.02604669e+00
1.02754705e+00
1.02949920e+00
1.02630711e+00
1.02682832e+00
1.02722416e+00
1.02629504e+00
1.02660906e+00
1.02691829e+00
1.02584150e+00
1.02494521e+00
1.02495916e+00
1.02672381e+00
1.02557086e+00
1.02405703e+00
1.02576000e+00
1.02542166e+00
1.02674594e+00
1.02512021e+00
1.02436672e+00
1.02471362e+00
1.02346267e+00
1.02408870e+00
1.02403623e+00
1.02381244e+00
1.02390236e+00
1.02323412e+00
1.02293829e+00
1.02332847e+00
1.02122175e+00
1.02198686e+00
1.02178325e+00
1.02296501e+00
1.02318531e+00
1.02138369e+00
1.02157164e+00
1.02103583e+00
1.02086505e+00
1.02222709e+00
1.01999055e+00
1.02117632e+00
1.02064966e+00
1.02161190e+00
1.02122152e+00
1.09239472e+00
1.08432607e+00
1.07915854e+00
1.06149255e+00
1.05406618e+00
1.05006932e+00
1.05298509e+00
1.04763313e+00
1.04182035e+00
1.03026691e+00
1.04455979e+00
1.03979811e+00
1.03027626e+00
1.03552023e+00
1.03053993e+00
1.02616052e+00
1.03021534e+00
1.02800796e+00
1.02437659e+00
1.03493154e+00
1.02848348e+00
1.02247183e+00
1.03573508e+00
1.03548337e+00
1.02161219e+00
1.02829451e+00
1.03382311e+00
1.02615653e+00
1.02907299e+00
1.02965697e+00
1.02979896e+00
1.03068413e+00
1.03173950e+00
1.03463520e+00
1.03678223e+00
1.03161689e+00
1.02656256e+00
1.02805136e+00
1.03508664e+00
1.02972809e+00
1.02742480e+00
1.03879276e+00
1.04275881e+00
1.03750308e+00
1.03232205e+00
1.03720494e+00
1.03813371e+00
1.03261225e+00
1.03070865e+00
1.03307127e+00
1.03714952e+00
1.03296336e+00
1.02794166e+00
1.03139488e+00
1.03507401e+00
1.03261729e+00
1.03140781e+00
1.03047669e+00
1.03089153e+00
1.03380063e+00
1.02966015e+00
1.03152444e+00
1.02863160e+00
1.03194237e+00
1.03305355e+00
1.02656682e+00
1.03522325e+00
1.02767380e+00
1.02835096e+00
1.03417644e+00
1.02674325e+00
1.02847434e+00
1.03032664e+00
1.02993403e+00
1.02853209e+00
1.02905368e+00
1.02931404e+00
1.02779445e+00
1.02840909e+00
1.02837753e+00
1.02631097e+00
1.02878943e+00
1.02779585e+00
1.02821100e+00
1.02838444e+00
1.02560145e+00
1.02664721e+00
1.02710733e+00
1.02806784e+00
1.02784508e+00
1.02649095e+00
1.02718424e+00
1.02582624e+00
1.02491578e+00
1.02599697e+00
1.02576292e+00
1.02730272e+00
1.02592506e+00
1.02434693e+00
1.02635291e+00
1.02480642e+00
1.02514555e+00
1.02490942e+00
1.02527829e+00
1.02568635e+00
1.02276218e+00
1.02252400e+00
1.02354531e+00
1.02461475e+00
1.02451384e+00
1.02196015e+00
1.02201155e+00
1.02392313e+00
1.02263373e+00
1.02212146e+00
1.02119125e+00
1.02240419e+00
1.02284548e+00
1.02133477e+00
1.02164999e+00
1.02170888e+00
1.02039605e+00
1.02250729e+00
1.02102781e+00
1.02268735e+00
1.02076586e+00
1.02020574e+00
1.02029278e+00
1.07589039e+00
1.07574866e+00
1.07396379e+00
1.06429685e+00
1.06001044e+00
1.05668441e+00
1.04620880e+00
1.03993204e+00
1.04611557e+00
1.04432678e+00
1.03582866e+00
1.03143474e+00
1.03818417e+00
1.03253116e+00
1.03330470e+00
1.03168187e+00
1.02798708e+00
1.03348605e+00
1.02514906e+00
1.02945193e+00
1.02999115e+00
1.03263003e+00
1.02798668e+00
1.02998227e+00
1.03302644e+00
1.02818178e+00
1.02912974e+00
1.03038884e+00
1.02848278e+00
1.02701865e+00
1.03041034e+00
1.03350091e+00
1.03226770e+00
1.03230015e+00
1.03093179e+00
1.03213383e+00
1.03600448e+00
1.03364777e+00
1.02539816e+00
1.02421609e+00
1.03465403e+00
1.03930504e+00
1.03371831e+00
1.03591584e+00
1.03779984e+00
1.03752341e+00
1.03348042e+00
1.03008019e+00
1.03446832e+00
1.03623006e+00
1.03022477e+00
1.02715107e+00
1.03333288e+00
1.03444632e+00
1.03142125e+00
1.02851786e+00
1.03080379e+00
1.03365404e+00
1.03025465e+00
1.02957394e+00
1.03143688e+00
1.03218923e+00
1.02989362e+00
1.02713975e+00
1.03253539e+00
1.02827163e+00
1.02977739e+00
1.03232911e+00
1.02547198e+00
1.02797720e+00
1.03063586e+00
1.02954904e+00
1.02722403e+00
1.02990920e+00
1.02836255e+00
1.02812137e+00
1.02994414e+00
1.02784525e+00
1.02660895e+00
1.02822351e+00
1.02854831e+00
1.02711605e+00
1.02811107e+00
1.02712289e+00
1.02757005e+00
1.02722930e+00
1.02689551e+00
1.02543597e+00
1.02716792e+00
1.02745768e+00
1.02720010e+00
1.02812765e+00
1.02460159e+00
1.02294089e+00
1.02577077e+00
1.02847714e+00
1.02769082e+00
1.02416067e+00
1.02478957e+00
1.02516896e+00
1.02442028e+00
1.02511895e+00
1.02457449e+00
1.02484983e+00
1.02537187e+00
1.02412673e+00
1.02512581e+00
1.02361754e+00
1.02296431e+00
1.02485202e+00
1.02286875e+00
1.02318226e+00
1.02338333e+00
1.02234912e+00
1.02218222e+00
1.02149113e+00
1.02381231e+00
1.02221313e+00
1.02038846e+00
1.02017211e+00
1.02135235e+00
1.02153315e+00
1.02160898e+00
1.01848055e+00
1.02015408e+00
1.02156326e+00
1.02093221e+00
1.02052027e+00
1.06964636e+00
1.06766626e+00
1.06156473e+00
1.06173344e+00
1.06574550e+00
1.05265276e+00
1.04455024e+00
1.05125425e+00
1.04259517e+00
1.03983264e+00
1.03961928e+00
1.03648714e+00
1.03856587e+00
1.03629671e+00
1.03018738e+00
1.02644918e+00
1.03731690e+00
1.03339067e+00
1.02576020e+00
1.03220527e+00
1.02708926e+00
1.02757174e+00
1.03116872e+00
1.02929820e+00
1.02517385e+00
1.03448615e+00
1.02793080e+00
1.02530705e+00
1.02848618e+00
1.03155120e+00
1.02855858e+00
1.02927109e+00
1.03499879e+00
1.03781369e+00
1.03371808e+00
1.03320769e+00
1.03306385e+00
1.03019060e+00
1.03031105e+00
1.03076848e+00
1.03028101e+00
1.03213423e+00
1.03511779e+00
1.04024889e+00
1.03856677e+00
1.03380998e+00
1.02939002e+00
1.03576216e+00
1.03659635e+00
1.03089894e+00
1.02832910e+00
1.03432935e+00
1.03633397e+00
1.02990243e+00
1.02952296e+00
1.03421300e+00
1.03024990e+00
1.02943823e+00
1.03383433e+00
1.03077551e+00
1.03129866e+00
1.02849874e+00
1.03150783e+00
1.02951428e+00
1.02935930e+00
1.03424458e+00
1.02376581e+00
1.02871010e+00
1.02993901e+00
1.02733619e+00
1.02771723e+00
1.02912138e+00
1.02631963e+00
1.02921405e+00
1.02893303e+00
1.02677003e+00
1.02644524e+00
1.02996265e+00
1.02826539e+00
1.02459673e+00
1.02734038e+00
1.02671172e+00
1.02911866e+00
1.02945100e+00
1.02674033e+00
1.02722171e+00
1.02698958e+00
1.02509549e+00
1.02724853e+00
1.02846482e+00
1.02607243e+00
1.02550796e+00
1.02484172e+00
1.02612994e+00
1.02585272e+00
1.02612147e+00
1.02702129e+00
1.02496190e+00
1.02612183e+00
1.02582819e+00
1.02330044e+00
1.02490236e+00
1.02488615e+00
1.02605267e+00
1.02529498e+00
1.02275516e+00
1.02324369e+00
1.02478752e+00
1.02540576e+00
1.02551354e+00
1.02283569e+00
1.02294987e+00
1.02356901e+00
1.02257014e+00
1.02182627e+00
1.02077330e+00
1.02197516e+00
1.02257465e+00
1.02293231e+00
1.02293835e+00
1.02056723e+00
1.01914480e+00
1.02175584e+00
1.02163150e+00
1.02173341e+00
1.02009956e+00
1.01964962e+00
1.02127529e+00
1.07059375e+00
1.05665088e+00
1.06159397e+00
1.06318510e+00
1.04998585e+00
1.05911487e+00
1.06036968e+00
1.04124892e+00
1.04359770e+00
1.04502290e+00
1.03330530e+00
1.04338007e+00
1.03674722e+00
1.02669289e+00
1.04032909e+00
1.03719384e+00
1.02030610e+00
1.02917552e+00
1.04047075e+00
1.02530255e+00
1.03152966e+00
1.03229785e+00
1.03014466e+00
1.03147656e+00
1.02747762e+00
1.02756742e+00
1.02925772e+00
1.03091684e+00
1.02784772e+00
1.02342685e+00
1.02865473e+00
1.03453963e+00
1.03180514e+00
1.03555728e+00
1.03876526e+00
1.03281496e+00
1.02906972e+00
1.03068510e+00
1.03527963e+00
1.03197114e+00
1.03062341e+00
1.03331837e+00
1.03557547e+00
1.03728038e+00
1.03144208e+00
1.03276929e+00
1.03585966e+00
1.03538001e+00
1.02911425e+00
1.03070569e+00
1.03693444e+00
1.03550326e+00
1.03061228e+00
1.03059880e+00
1.03251302e+00
1.03381821e+00
1.03343073e+00
1.03003875e+00
1.03203805e+00
1.03325872e+00
1.03167232e+00
1.03039432e+00
1.03016899e+00
1.03173517e+00
1.02596330e+00
1.03151965e+00
1.03325005e+00
1.02734857e+00
1.02851847e+00
1.03148960e+00
1.02741377e+00
1.02899290e+00
1.02861675e+00
1.02623689e+00
1.02589370e+00
1.02947802e+00
1.02921825e+00
1.02781786e+00
1.02679968e+00
1.02552644e+00
1.02884195e+00
1.02832167e+00
1.02603604e+00
1.02771186e+00
1.02660306e+00
1.02744073e+00
1.02705789e+00
1.02566285e+00
1.02571195e+00
1.02805289e+00
1.02827860e+00
1.02695730e+00
1.02409622e+00
1.02489410e+00
1.02627730e+00
1.02680838e+00
1.02665965e+00
1.02527392e+00
1.02383681e+00
1.02492521e+00
1.02438998e+00
1.02599825e+00
1.02333941e+00
1.02424130e+00
1.02402570e+00
1.02368498e+00
1.02499595e+00
1.02374987e+00
1.02278539e+00
1.02264417e+00
1.02299498e+00
1.02522880e+00
1.02323410e+00
1.01971418e+00
1.02057629e+00
1.02287770e+00
1.02385059e+00
1.02130190e+00
1.01961168e+00
1.02266054e+00
1.02368640e+00
1.02147449e+00
1.02015270e+00
1.01814082e+00
1.02222706e+00
1.02259384e+00
1.02122278e+00
1.01960443e+00
1.06001078e+00
1.07048281e+00
1.06148152e+00
1.05559636e+00
1.05386848e+00
1.05398971e+00
1.05175518e+00
1.04786419e+00
1.04531416e+00
1.04831691e+00
1.04025146e+00
1.03721448e+00
1.04075362e+00
1.03742611e+00
1.02914252e+00
1.03478011e+00
1.03317356e+00
1.03326407e+00
1.03759775e+00
1.02360538e+00
1.03326940e+00
1.03091438e+00
1.02936550e+00
1.03228753e+00
1.03068076e+00
1.02938458e+00
1.02740957e+00
1.02910475e+00
1.02891977e+00
1.02705663e+00
1.02864043e+00
1.03632504e+00
1.03248474e+00
1.03117358e+00
1.03329501e+00
1.03485518e+00
1.03558327e+00
1.03195710e+00
1.03295292e+00
1.03206186e+00
1.03340323e+00
1.04025974e+00
1.03407418e+00
1.03099194e+00
1.03359106e+00
1.03744340e+00
1.03469395e+00
1.03024136e+00
1.03456842e+00
1.03727437e+00
1.03434795e+00
1.03022038e+00
1.03139497e+00
1.03677189e+00
1.03604005e+00
1.02841294e+00
1.03088451e+00
1.03492203e+00
1.03215148e+00
1.03223760e+00
1.02911813e+00
1.03086438e+00
1.02895571e+00
1.03089591e+00
1.03216166e+00
1.02645981e+00
1.03321706e+00
1.03030501e+00
1.02755018e+00
1.03091915e+00
1.02943057e+00
1.02747298e+00
1.02926281e+00
1.02976156e+00
1.02791478e+00
1.02574410e+00
1.02932772e+00
1.02846591e+00
1.02793321e+00
1.02781101e+00
1.02693677e+00
1.02687285e+00
1.02668512e+00
1.02951196e+00
1.02809405e+00
1.02507029e+00
1.02406479e+00
1.02785914e+00
1.02819765e+00
1.02712062e+00
1.02452264e+00
1.02560553e+00
1.02612653e+00
1.02689192e+00
1.02697572e+00
1.02664296e+00
1.02414309e+00
1.02692492e+00
1.02753438e+00
1.02455556e+00
1.02158668e+00
1.02375368e+00
1.02603569e+00
1.02752255e+00
1.02510556e+00
1.02231033e+00
1.02340944e+00
1.02398631e+00
1.02508125e+00
1.02496268e+00
1.02339415e+00
1.02289915e+00
1.02346469e+00
1.02295751e+00
1.02342254e+00
1.02127308e+00
1.02042619e+00
1.02301311e+00
1.02379247e+00
1.02394875e+00
1.02107178e+00
1.02015283e+00
1.02185199e+00
1.02165422e+00
1.02110850e+00
1.01918667e+00
1.02005710e+00
1.02132516e+00
1.04839697e+00
1.06490007e+00
1.05326787e+00
1.05865465e+00
1.05767289e+00
1.04957489e+00
1.04807623e+00
1.05855206e+00
1.04582300e+00
1.04070169e+00
1.04564206e+00
1.04078603e+00
1.03276979e+00
1.04118588e+00
1.03649957e+00
1.02997655e+00
1.03986410e+00
1.03692092e+00
1.02304669e+00
1.03457564e+00
1.03954829e+00
1.02464660e+00
1.03359982e+00
1.02954649e+00
1.02906548e+00
1.03159024e+00
1.03130773e+00
1.02736232e+00
1.02885509e+00
1.03227398e+00
1.03068017e+00
1.03046652e+00
1.03366983e+00
1.03558957e+00
1.03048312e+00
1.03350798e+00
1.03940548e+00
1.03114584e+00
1.02545692e+00
1.03222225e+00
1.03737306e+00
1.04031680e+00
1.03289583e+00
1.03141029e+00
1.03361261e+00
1.03526001e+00
1.03250885e+00
1.03330518e+00
1.03510969e+00
1.03389242e+00
1.03240068e+00
1.03524922e+00
1.03332550e+00
1.02997092e+00
1.03070979e+00
1.03394079e+00
1.03196717e+00
1.03184039e+00
1.02736377e+00
1.02881326e+00
1.03466675e+00
1.03119965e+00
1.02838675e+00
1.02492561e+00
1.03248308e+00
1.03334047e+00
1.02786913e+00
1.03034940e+00
1.02716783e+00
1.02702677e+00
1.03222665e+00
1.03219802e+00
1.02788248e+00
1.02671242e+00
1.02839569e+00
1.02789678e+00
1.03022453e+00
1.02824720e+00
1.02627577e+00
1.02872453e+00
1.02826893e+00
1.02780628e+00
1.02718728e+00
1.02600423e+00
1.02535587e+00
1.02751409e+00
1.02784947e+00
1.02652494e+00
1.02442397e+00
1.02819504e+00
1.02785954e+00
1.02710728e+00
1.02446110e+00
1.02358988e+00
1.02535075e+00
1.02808094e+00
1.02759950e+00
1.02689623e+00
1.02307923e+00
1.02280731e+00
1.02472768e+00
1.02677178e+00
1.02624435e+00
1.02416007e+00
1.02248720e+00
1.02439236e+00
1.02654195e+00
1.02194819e+00
1.02058203e+00
1.02427621e+00
1.02710341e+00
1.02616843e+00
1.02109099e+00
1.01905983e+00
1.02222743e+00
1.02387176e+00
1.02195782e+00
1.02070606e+00
1.01967010e+00
1.02259736e+00
1.02263271e+00
1.02141083e+00
1.02028241e+00
1.01839270e+00
1.02170034e+00
1.02045985e+00
1.02045554e+00
1.01994177e+00
1.06707482e+00
1.04792477e+00
1.04561435e+00
1.06480737e+00
1.05491283e+00
1.05146573e+00
1.04988066e+00
1.04639543e+00
1.04539854e+00
1.05327122e+00
1.04049983e+00
1.04707440e+00
1.04254988e+00
1.03466338e+00
1.04374253e+00
1.03469335e+00
1.03467247e+00
1.03464633e+00
1.03282257e+00
1.04164220e+00
1.02568699e+00
1.02957510e+00
1.03953164e+00
1.02799036e+00
1.03378508e+00
1.03144574e+00
1.02897269e+00
1.03373657e+00
1.03660961e+00
1.03205279e+00
1.02962893e+00
1.03279923e+00
1.02966342e+00
1.03895822e+00
1.03853537e+00
1.02886549e+00
1.02853939e+00
1.03282362e+00
1.03774605e+00
1.03792067e+00
1.02943972e+00
1.02813686e+00
1.03433793e+00
1.04105585e+00
1.03547824e+00
1.03193666e+00
1.03180885e+00
1.03677529e+00
1.03614911e+00
1.03234200e+00
1.03006924e+00
1.03385994e+00
1.03389463e+00
1.03141531e+00
1.03036071e+00
1.03677168e+00
1.02882057e+00
1.02721800e+00
1.03468957e+00
1.03158543e+00
1.03020987e+00
1.02677232e+00
1.03351067e+00
1.03285570e+00
1.02730902e+00
1.03269255e+00
1.02509837e+00
1.02764807e+00
1.03140407e+00
1.02875282e+00
1.02723205e+00
1.03016880e+00
1.02887702e+00
1.02737768e+00
1.02745780e+00
1.02790078e+00
1.02703920e+00
1.02827843e+00
1.02910056e+00
1.02793585e+00
1.02464869e+00
1.02494214e+00
1.02814940e+00
1.03043288e+00
1.02729302e+00
1.02466562e+00
1.02535169e+00
1.02740779e+00
1.02706778e+00
1.03002248e+00
1.02590118e+00
1.02533421e+00
1.02549715e+00
1.02688051e+00
1.02599088e+00
1.02505137e+00
1.02610982e+00
1.02937372e+00
1.02487816e+00
1.02278778e+00
1.02233980e+00
1.02429610e+00
1.02575794e+00
1.02675023e+00
1.02636684e+00
1.02274624e+00
1.02149286e+00
1.02332247e+00
1.02552640e+00
1.02637190e+00
1.02168682e+00
1.02248493e+00
1.02344773e+00
1.02259649e+00
1.02343432e+00
1.02062883e+00
1.02188062e+00
1.02374827e+00
1.02446160e+00
1.02263036e+00
1.01955361e+00
1.01795108e+00
1.02130155e+00
1.02102899e+00
1.02084536e+00
1.01988279e+00
1.02035327e+00
1.02216054e+00
1.05404112e+00
1.05773318e+00
1.05881557e+00
1.05023972e+00
1.05007220e+00
1.05466702e+00
1.04973725e+00
1.04781044e+00
1.04990847e+00
1.04953671e+00
1.03961078e+00
1.04721658e+00
1.04020657e+00
1.04302831e+00
1.04329694e+00
1.03279486e+00
1.04370670e+00
1.03832752e+00
1.03253953e+00
1.04082073e+00
1.02906623e+00
1.04042128e+00
1.03540213e+00
1.02794138e+00
1.03661710e+00
1.03801732e+00
1.03455965e+00
1.02945050e+00
1.03230040e+00
1.03307546e+00
1.03907574e+00
1.04068535e+00
1.03370156e+00
1.03076520e+00
1.03107069e+00
1.03383075e+00
1.03560955e+00
1.03389948e+00
1.03659307e+00
1.03141060e+00
1.03184847e+00
1.03884750e+00
1.03634853e+00
1.03188838e+00
1.03007870e+00
1.03773888e+00
1.03915581e+00
1.03163206e+00
1.02943980e+00
1.03287905e+00
1.03895288e+00
1.03291554e+00
1.02549019e+00
1.03143800e+00
1.03275716e+00
1.03277097e+00
1.03286007e+00
1.02929762e+00
1.02770944e+00
1.03013771e+00
1.03275583e+00
1.03285810e+00
1.02656278e+00
1.02956777e+00
1.02672425e+00
1.03061881e+00
1.03473612e+00
1.02577782e+00
1.02463895e+00
1.02986214e+00
1.02994949e+00
1.03031964e+00
1.02764625e+00
1.02660592e+00
1.02610398e+00
1.02993168e+00
1.03144072e+00
1.02700108e+00
1.02527450e+00
1.02572833e+00
1.02679897e+00
1.02874364e+00
1.02553050e+00
1.02701490e+00
1.02738363e+00
1.02659424e+00
1.02558911e+00
1.02484663e+00
1.02373334e+00
1.02781671e+00
1.02702686e+00
1.02778154e+00
1.02255451e+00
1.02175661e+00
1.02558776e+00
1.02893604e+00
1.02810202e+00
1.02498755e+00
1.02083515e+00
1.02325624e+00
1.02612817e+00
1.02708555e+00
1.02476031e+00
1.02221939e+00
1.02326571e+00
1.02482167e+00
1.02434732e+00
1.02171320e+00
1.02115079e+00
1.02500015e+00
1.02586020e+00
1.02466509e+00
1.02254946e+00
1.02031320e+00
1.02282861e+00
1.02137481e+00
1.02297581e+00
1.02203329e+00
1.02123578e+00
1.02164047e+00
1.02149457e+00
1.02196580e+00
1.02145351e+00
1.01819913e+00
1.01938417e+00
1.02052303e+00
1.02278248e+00
1.02164621e+00
1.04490912e+00
1.04697541e+00
1.06161758e+00
1.05021963e+00
1.04391914e+00
1.05573653e+00
1.05288520e+00
1.04688063e+00
1.05293500e+00
1.04824836e+00
1.04441669e+00
1.04445499e+00
1.04097702e+00
1.04513386e+00
1.04047473e+00
1.04371263e+00
1.04452227e+00
1.03791013e+00
1.04029617e+00
1.03812105e+00
1.03462037e+00
1.04095366e+00
1.03373062e+00
1.04073495e+00
1.03758198e+00
1.03191612e+00
1.03634518e+00
1.03532734e+00
1.03671234e+00
1.03711474e+00
1.03306432e+00
1.03190776e+00
1.03584950e+00
1.03706727e+00
1.03143737e+00
1.03468035e+00
1.03903199e+00
1.03227627e+00
1.03374474e+00
1.03385116e+00
1.03515950e+00
1.03745885e+00
1.03052815e+00
1.03275796e+00
1.03810588e+00
1.03791270e+00
1.03219117e+00
1.02980305e+00
1.03756999e+00
1.03359460e+00
1.03055546e+00
1.02904887e+00
1.03088073e+00
1.03737509e+00
1.03418612e+00
1.02740824e+00
1.03036184e+00
1.03315177e+00
1.02750919e+00
1.03271192e+00
1.03006394e+00
1.03029129e+00
1.02574889e+00
1.03037250e+00
1.03527733e+00
1.02583182e+00
1.02941346e+00
1.02976605e+00
1.02801133e+00
1.02980059e+00
1.02781878e+00
1.02710880e+00
1.02763385e+00
1.03132143e+00
1.02821978e+00
1.02669086e+00
1.02837174e+00
1.02737647e+00
1.02950821e+00
1.02889714e+00
1.02402445e+00
1.02764788e+00
1.02703807e+00
1.02999732e+00
1.02703767e+00
1.02410694e+00
1.02412245e+00
1.02500396e+00
1.02727419e+00
1.02912933e+00
1.02431683e+00
1.02548189e+00
1.02357959e+00
1.02416677e+00
1.02679492e+00
1.02578653e+00
1.02620280e+00
1.02496234e+00
1.02503895e+00
1.02592186e+00
1.02316704e+00
1.02342089e+00
1.02537839e+00
1.02731480e+00
1.02591535e+00
1.02128484e+00
1.02115528e+00
1.02171549e+00
1.02496165e+00
1.02586856e+00
1.02305734e+00
1.02196249e+00
1.02296748e+00
1.02316599e+00
1.02273682e+00
1.01958572e+00
1.02005245e+00
1.02347641e+00
1.02419885e+00
1.02290782e+00
1.01861392e+00
1.01893960e+00
1.02207459e+00
1.02058410e+00
1.02130818e+00
1.01783218e+00
1.01826163e+00
1.02096549e+00
1.05280069e+00
1.05263563e+00
1.04774399e+00
1.05493246e+00
1.05859990e+00
1.04828192e+00
1.04722746e+00
1.05520354e+00
1.04973324e+00
1.04354089e+00
1.04916226e+00
1.04591302e+00
1.04677268e+00
1.03961280e+00
1.04160731e+00
1.04882527e+00
1.03455326e+00
1.04424605e+00
1.04471016e+00
1.03262033e+00
1.04253829e+00
1.04196891e+00
1.03150750e+00
1.04206950e+00
1.03457446e+00
1.03403384e+00
1.04291294e+00
1.03816268e+00
1.03361108e+00
1.03529524e+00
1.03854746e+00
1.03389154e+00
1.03159155e+00
1.03795948e+00
1.03570325e+00
1.03327774e+00
1.03786268e+00
1.03176212e+00
1.03200333e+00
1.03842621e+00
1.03597978e+00
1.03329763e+00
1.02940668e+00
1.03640218e+00
1.03506169e+00
1.03345535e+00
1.03334625e+00
1.03287294e+00
1.03514562e+00
1.03063869e+00
1.02931385e+00
1.03776087e+00
1.03609455e+00
1.02765936e+00
1.02723682e+00
1.03684586e+00
1.03144433e+00
1.03188399e+00
1.02979359e+00
1.03122461e+00
1.03183071e+00
1.03153933e+00
1.03191295e+00
1.02325098e+00
1.02960626e+00
1.03292674e+00
1.02789767e+00
1.03159305e+00
1.02618624e+00
1.02515878e+00
1.02965186e+00
1.03189194e+00
1.02520091e+00
1.02559189e+00
1.02557443e+00
1.02821748e+00
1.02861368e+00
1.02794599e+00
1.02613266e+00
1.02671762e+00
1.02630329e+00
1.02859826e+00
1.02645508e+00
1.02691919e+00
1.02630168e+00
1.02759295e+00
1.02929475e+00
1.02358849e+00
1.02413955e+00
1.02745359e+00
1.02822610e+00
1.02853141e+00
1.02232334e+00
1.02251346e+00
1.02523795e+00
1.02695443e+00
1.03019093e+00
1.02498363e+00
1.02128268e+00
1.02417862e+00
1.02546368e+00
1.02703111e+00
1.02398903e+00
1.02338388e+00
1.02439880e+00
1.02307399e+00
1.02414685e+00
1.02284285e+00
1.02285021e+00
1.02419937e+00
1.02409498e+00
1.02548887e+00
1.02433336e+00
1.02031084e+00
1.01892485e+00
1.02102335e+00
1.02438734e+00
1.02343773e+00
1.02029657e+00
1.02133380e+00
1.02291006e+00
1.02435801e+00
1.02128123e+00
1.01608338e+00
1.01925778e+00
1.02160685e+00
1.02295871e+00
1.02032690e+00
1.05958429e+00
1.05943966e+00
1.04258077e+00
1.04914407e+00
1.05786290e+00
1.04971420e+00
1.04872622e+00
1.05431210e+00
1.04395401e+00
1.04635820e+00
1.05065470e+00
1.03966009e+00
1.04819405e+00
1.04505293e+00
1.04370975e+00
1.04092020e+00
1.04231771e+00
1.04844183e+00
1.03683069e+00
1.04008551e+00
1.04553770e+00
1.03737625e+00
1.03788137e+00
1.03995627e+00
1.03361923e+00
1.04389627e+00
1.03845511e+00
1.03242044e+00
1.04119303e+00
1.03672219e+00
1.03250844e+00
1.03843895e+00
1.03369378e+00
1.03671023e+00
1.03968288e+00
1.03341022e+00
1.03081571e+00
1.03554590e+00
1.04012918e+00
1.03302243e+00
1.02842856e+00
1.03598505e+00
1.03656232e+00
1.03808592e+00
1.03129719e+00
1.03178188e+00
1.03554257e+00
1.03348854e+00
1.03066982e+00
1.03408431e+00
1.03557963e+00
1.03261566e+00
1.03041919e+00
1.03336626e+00
1.03074017e+00
1.03704379e+00
1.02907609e+00
1.02954718e+00
1.03206688e+00
1.03305376e+00
1.03311203e+00
1.02673676e+00
1.03171313e+00
1.03102020e+00
1.02665500e+00
1.03222883e+00
1.02741805e+00
1.02786903e+00
1.02983866e+00
1.03122534e+00
1.02791236e+00
1.02785861e+00
1.02764089e+00
1.02924555e+00
1.02541734e+00
1.02659261e+00
1.02449229e+00
1.02814737e+00
1.02875550e+00
1.02588093e+00
1.02548696e+00
1.02431443e+00
1.02676965e+00
1.02997378e+00
1.02810433e+00
1.02406363e+00
1.02437221e+00
1.02444869e+00
1.02996413e+00
1.02805134e+00
1.02522466e+00
1.02612494e+00
1.02312339e+00
1.02708946e+00
1.02589230e+00
1.02439899e+00
1.02565475e+00
1.02541455e+00
1.02575901e+00
1.02481553e+00
1.02145813e+00
1.02423995e+00
1.02616166e+00
1.02867385e+00
1.02578514e+00
1.02021319e+00
1.01919097e+00
1.02200372e+00
1.02696452e+00
1.02711616e+00
1.02232285e+00
1.02238693e+00
1.02372426e+00
1.02369174e+00
1.02068924e+00
1.01849259e+00
1.02021747e+00
1.02416497e+00
1.02439857e+00
1.02459942e+00
1.01917884e+00
1.01772292e+00
1.02066098e+00
1.02088315e+00
1.02112856e+00
1.01787864e+00
1.01847556e+00
1.02174033e+00
1.05145857e+00
1.05108135e+00
1.05628191e+00
1.04969933e+00
1.04573077e+00
1.05628311e+00
1.05302090e+00
1.04302344e+00
1.04463704e+00
1.05182427e+00
1.04618083e+00
1.04265884e+00
1.04560540e+00
1.04731911e+00
1.04378734e+00
1.03994873e+00
1.04787078e+00
1.03664358e+00
1.04043123e+00
1.05024490e+00
1.03590250e+00
1.03705464e+00
1.04420310e+00
1.03580869e+00
1.03529541e+00
1.04660869e+00
1.03593724e+00
1.03539984e+00
1.04090584e+00
1.03137158e+00
1.03494371e+00
1.04439384e+00
1.03417346e+00
1.03327154e+00
1.03490295e+00
1.03912685e+00
1.04072147e+00
1.03298763e+00
1.02901413e+00
1.03277486e+00
1.03791702e+00
1.04119197e+00
1.03181487e+00
1.03026028e+00
1.03275214e+00
1.03823810e+00
1.03576687e+00
1.02993084e+00
1.03184136e+00
1.03566264e+00
1.03823960e+00
1.02920558e+00
1.02795269e+00
1.03617119e+00
1.03084933e+00
1.03002868e+00
1.03218549e+00
1.03303623e+00
1.02801037e+00
1.03010503e+00
1.03042059e+00
1.03059417e+00
1.02726159e+00
1.03040986e+00
1.02730164e+00
1.02666342e+00
1.03387542e+00
1.02767536e+00
1.02463524e+00
1.02879470e+00
1.02997963e+00
1.03057261e+00
1.02750600e+00
1.02654468e+00
1.02355900e+00
1.02958561e+00
1.02926480e+00
1.02862621e+00
1.02644868e+00
1.02355288e+00
1.02769417e+00
1.02830527e+00
1.02670687e+00
1.02567908e+00
1.02618545e+00
1.02668448e+00
1.02505510e+00
1.02388168e+00
1.02763780e+00
1.02634327e+00
1.02710438e+00
1.02751716e+00
1.02194149e+00
1.02455034e+00
1.02408848e+00
1.02963509e+00
1.02917333e+00
1.02566099e+00
1.02334589e+00
1.02335863e+00
1.02341148e+00
1.02733214e+00
1.02690992e+00
1.02656066e+00
1.02336941e+00
1.02290306e+00
1.02615106e+00
1.02504291e+00
1.02201168e+00
1.02403915e+00
1.02685257e+00
1.02732979e+00
1.02263527e+00
1.01900313e+00
1.02091912e+00
1.02330839e+00
1.02576480e+00
1.02351395e+00
1.01965678e+00
1.02151385e+00
1.02350868e+00
1.02248781e+00
1.01889585e+00
1.01715003e+00
1.02034754e+00
1.02260609e+00
1.02254665e+00
1.02115832e+00
1.04107735e+00
1.04171720e+00
1.05740498e+00
1.05432168e+00
1.04737719e+00
1.04948921e+00
1.04700782e+00
1.05016146e+00
1.05278356e+00
1.04331629e+00
1.04285614e+00
1.05317286e+00
1.04264470e+00
1.04418609e+00
1.04364213e+00
1.04455558e+00
1.04602283e+00
1.03852705e+00
1.04655896e+00
1.04063573e+00
1.03640450e+00
1.04386473e+00
1.03889711e+00
1.03981027e+00
1.04289738e+00
1.03601020e+00
1.03517767e+00
1.04144710e+00
1.03295604e+00
1.03521825e+00
1.04114160e+00
1.03514845e+00
1.03277917e+00
1.04033813e+00
1.03459012e+00
1.03435191e+00
1.03875977e+00
1.02941657e+00
1.03361486e+00
1.04147957e+00
1.03535736e+00
1.03265728e+00
1.02747650e+00
1.03756254e+00
1.03829144e+00
1.03490378e+00
1.02884863e+00
1.03072301e+00
1.04032031e+00
1.03323046e+00
1.02898848e+00
1.03332402e+00
1.03307998e+00
1.03187998e+00
1.03139676e+00
1.03349674e+00
1.02993992e+00
1.03146088e+00
1.02771972e+00
1.02902003e+00
1.02938292e+00
1.03399443e+00
1.02905654e+00
1.02516613e+00
1.03507913e+00
1.02822218e+00
1.02965138e+00
1.02968019e+00
1.02546204e+00
1.02736549e+00
1.02929263e+00
1.03042253e+00
1.02646805e+00
1.02970741e+00
1.02722188e+00
1.02731657e+00
1.02836931e+00
1.02710101e+00
1.02740156e+00
1.02771648e+00
1.02645421e+00
1.02584468e+00
1.02813645e+00
1.02901833e+00
1.02735995e+00
1.02512216e+00
1.02248433e+00
1.02510922e+00
1.02883151e+00
1.02755124e+00
1.02539348e+00
1.02283949e+00
1.02286172e+00
1.02846859e+00
1.02489280e+00
1.02679233e+00
1.02502382e+00
1.02464171e+00
1.02462324e+00
1.02370524e+00
1.02140391e+00
1.02468098e+00
1.02723429e+00
1.02867969e+00
1.02496044e+00
1.02103425e+00
1.02054635e+00
1.02254613e+00
1.02445095e+00
1.02539775e+00
1.02430455e+00
1.02354761e+00
1.02386810e+00
1.02220602e+00
1.02282208e+00
1.02044050e+00
1.02143632e+00
1.02241719e+00
1.02270215e+00
1.02338396e+00
1.02004465e+00
1.01891923e+00
1.01963993e+00
1.01970174e+00
1.02107561e+00
1.01890180e+00
1.01936014e+00
1.02062935e+00
1.04486354e+00
1.05273078e+00
1.04467775e+00
1.04621711e+00
1.05529856e+00
1.05055843e+00
1.04362968e+00
1.04935579e+00
1.05083469e+00
1.04658150e+00
1.04533294e+00
1.05132823e+00
1.04391646e+00
1.04374117e+00
1.04480679e+00
1.04638969e+00
1.04292361e+00
1.04497409e+00
1.04372013e+00
1.03754522e+00
1.04538280e+00
1.04484234e+00
1.03306292e+00
1.04118754e+00
1.04434283e+00
1.03774111e+00
1.03890776e+00
1.03956939e+00
1.03241381e+00
1.04173264e+00
1.03958160e+00
1.03605573e+00
1.03749166e+00
1.03587850e+00
1.03665786e+00
1.03531775e+00
1.03592462e+00
1.03640522e+00
1.03800900e+00
1.03268517e+00
1.03016911e+00
1.03877328e+00
1.03317648e+00
1.03829212e+00
1.03299613e+00
1.03111810e+00
1.03666668e+00
1.03578190e+00
1.03312500e+00
1.02889493e+00
1.03376020e+00
1.03631301e+00
1.03024916e+00
1.02939404e+00
1.02960470e+00
1.03875323e+00
1.02897145e+00
1.02555717e+00
1.02887993e+00
1.03244245e+00
1.03370067e+00
1.02561691e+00
1.03116035e+00
1.02241130e+00
1.03036851e+00