# vtk DataFile Version 2.0
LBM Flow Field - Timestep 460
ASCII
DATASET STRUCTURED_POINTS
DIMENSIONS 128 128 1
ORIGIN 0.0 0.0 0.0
SPACING 1.0 1.0 1.0
POINT_DATA 16384
SCALARS density double 1
LOOKUP_TABLE default
1.31763952e+00
1.30235288e+00
1.28400994e+00
1.26615868e+00
1.24824231e+00
1.23117974e+00
1.21401767e+00
1.19802432e+00
1.18190212e+00
1.16720055e+00
1.15234863e+00
1.13909449e+00
1.12567968e+00
1.11395882e+00
1.10208093e+00
1.09191211e+00
1.08160523e+00
1.07294771e+00
1.06418578e+00
1.05695041e+00
1.04965619e+00
1.04371837e+00
1.03777458e+00
1.03298762e+00
1.02824920e+00
1.02445672e+00
1.02076300e+00
1.01780936e+00
1.01499528e+00
1.01273352e+00
1.01063908e+00
1.00893621e+00
1.00741378e+00
1.00615361e+00
1.00507283e+00
1.00415683e+00
1.00340727e+00
1.00275397e+00
1.00224570e+00
1.00178921e+00
1.00145178e+00
1.00113983e+00
1.00092008e+00
1.00071205e+00
1.00057132e+00
1.00043621e+00
1.00034737e+00
1.00026208e+00
1.00020667e+00
1.00015444e+00
1.00012025e+00
1.00008926e+00
1.00006839e+00
1.00005058e+00
1.00003802e+00
1.00002809e+00
1.00002065e+00
1.00001527e+00
1.00001097e+00
1.00000812e+00
1.00000570e+00
1.00000421e+00
1.00000290e+00
1.00000213e+00
1.00000145e+00
1.00000105e+00
1.00000071e+00
1.00000050e+00
1.00000034e+00
1.00000024e+00
1.00000016e+00
1.00000011e+00
1.00000007e+00
1.00000005e+00
1.00000003e+00
1.00000002e+00
1.00000001e+00
1.00000001e+00
1.00000001e+00
1.00000000e+00
1.00000000e+00
1.00000000e+00
1.00000000e+00
1.00000000e+00
1.00000000e+00
1.00000000e+00
1.00000000e+00
1.00000000e+00
1.00000000e+00
1.00000000e+00
1.00000000e+00
1.00000000e+00
1.00000000e+00
1.00000000e+00
1.00000000e+00
1.00000000e+00
1.00000000e+00
1.00000000e+00
1.00000000e+00
1.00000000e+00
1.00000000e+00
1.00000000e+00
1.00000000e+00
1.00000000e+00
1.00000000e+00
1.00000000e+00
1.00000000e+00
1.00000000e+00
1.00000000e+00
1.00000000e+00
1.00000000e+00
1.00000000e+00
1.00000000e+00
1.00000000e+00
1.00000000e+00
1.00000000e+00
1.00000000e+00
1.00000000e+00
1.00000000e+00
1.00000000e+00
1.00000000e+00
1.00000000e+00
1.00000000e+00
1.00000000e+00
1.00000000e+00
1.00000000e+00
1.00000000e+00
1.00000000e+00
1.12409011e+00
1.10423513e+00
1.08580107e+00
1.08235222e+00
1.07691786e+00
1.06900003e+00
1.06391742e+00
1.05946265e+00
1.05755554e+00
1.05752647e+00
1.05750506e+00
1.05902899e+00
1.05706671e+00
1.05356265e+00
1.05771811e+00
1.05576123e+00
1.05414150e+00
1.05650219e+00
1.05649589e+00
1.04881030e+00
1.04649210e+00
1.05027621e+00
1.05260346e+00
1.05144150e+00
1.05383427e+00
1.05675532e+00
1.05976159e+00
1.06347116e+00
1.05981877e+00
1.05591677e+00
1.05846215e+00
1.06153967e+00
1.05789985e+00
1.05493266e+00
1.06098426e+00
1.05732534e+00
1.05280621e+00
1.05677259e+00
1.06409673e+00
1.05940805e+00
1.05040126e+00
1.05067080e+00
1.05629137e+00
1.06117291e+00
1.05676878e+00
1.05317618e+00
1.05144206e+00
1.05487325e+00
1.05770916e+00
1.05636448e+00
1.05311993e+00
1.05306643e+00
1.05320662e+00
1.05352481e+00
1.05219450e+00
1.05286608e+00
1.05270410e+00
1.05144394e+00
1.05244697e+00
1.04953423e+00
1.04894235e+00
1.05211929e+00
1.04910601e+00
1.05077543e+00
1.04670823e+00
1.04903766e+00
1.04908137e+00
1.04460426e+00
1.04660619e+00
1.04734796e+00
1.04499215e+00
1.04581904e+00
1.04517887e+00
1.04441508e+00
1.04469733e+00
1.04751391e+00
1.04504340e+00
1.04506183e+00
1.04374108e+00
1.04484945e+00
1.04395577e+00
1.04536748e+00
1.04387572e+00
1.04308897e+00
1.04232491e+00
1.04363655e+00
1.04249176e+00
1.04193896e+00
1.04068767e+00
1.04194147e+00
1.04078469e+00
1.04103927e+00
1.04069568e+00
1.03993807e+00
1.03883011e+00
1.03808469e+00
1.03777311e+00
1.03781101e+00
1.03769626e+00
1.03681513e+00
1.03749931e+00
1.03806665e+00
1.03756419e+00
1.03872833e+00
1.03714250e+00
1.03579331e+00
1.03478559e+00
1.03412102e+00
1.03429580e+00
1.03289844e+00
1.03256582e+00
1.03608068e+00
1.03467686e+00
1.03309139e+00
1.03596345e+00
1.03469917e+00
1.03454027e+00
1.03383515e+00
1.03126687e+00
1.03275670e+00
1.03147056e+00
1.02940353e+00
1.03108634e+00
1.03192026e+00
1.02963982e+00
1.03084631e+00
1.02867642e+00
1.02925704e+00
1.10385167e+00
1.09865851e+00
1.09528825e+00
1.08287352e+00
1.06922402e+00
1.06884459e+00
1.06716206e+00
1.06126280e+00
1.05951783e+00
1.06093229e+00
1.06023888e+00
1.06090269e+00
1.05703580e+00
1.05509375e+00
1.05597320e+00
1.05611975e+00
1.05734690e+00
1.05409840e+00
1.04857715e+00
1.05030382e+00
1.04771400e+00
1.04854138e+00
1.05291964e+00
1.05306943e+00
1.05331430e+00
1.05649473e+00
1.06070051e+00
1.05905638e+00
1.05539409e+00
1.05657273e+00
1.05880475e+00
1.05963025e+00
1.05923471e+00
1.05751059e+00
1.05660504e+00
1.05683487e+00
1.05583509e+00
1.05755097e+00
1.06196280e+00
1.05784445e+00
1.05289935e+00
1.05934114e+00
1.06090561e+00
1.05427994e+00
1.05147384e+00
1.05536802e+00
1.05754391e+00
1.05404371e+00
1.05394124e+00
1.05449943e+00
1.05276006e+00
1.05300477e+00
1.05417910e+00
1.05257106e+00
1.05074170e+00
1.05094933e+00
1.05250352e+00
1.05044538e+00
1.05000934e+00
1.05074046e+00
1.05084611e+00
1.05233566e+00
1.04834083e+00
1.04681818e+00
1.05150334e+00
1.04602951e+00
1.05025219e+00
1.04995633e+00
1.04562841e+00
1.04785703e+00
1.04773753e+00
1.04664047e+00
1.04705427e+00
1.05031809e+00
1.04407064e+00
1.04470418e+00
1.04616489e+00
1.04533505e+00
1.04360254e+00
1.04342220e+00
1.04328623e+00
1.04301461e+00
1.04159089e+00
1.04173612e+00
1.04197894e+00
1.04093999e+00
1.04070224e+00
1.04028310e+00
1.04050068e+00
1.04111285e+00
1.04002216e+00
1.03958073e+00
1.04108265e+00
1.04107967e+00
1.03854050e+00
1.03774519e+00
1.03919297e+00
1.03909152e+00
1.03819672e+00
1.03672213e+00
1.03589314e+00
1.03669165e+00
1.03733313e+00
1.03772229e+00
1.03575564e+00
1.03376360e+00
1.03846505e+00
1.03677392e+00
1.03493745e+00
1.03385548e+00
1.03329858e+00
1.03632032e+00
1.03452121e+00
1.03311965e+00
1.03405453e+00
1.03578491e+00
1.03220165e+00
1.03140430e+00
1.03122701e+00
1.03329175e+00
1.03391208e+00
1.03051509e+00
1.02889913e+00
1.03315774e+00
1.03013309e+00
1.02984498e+00
1.02789387e+00
1.03000334e+00
1.09232961e+00
1.09680003e+00
1.08805548e+00
1.07603692e+00
1.07696323e+00
1.07688736e+00
1.06450942e+00
1.05831725e+00
1.06230424e+00
1.06617730e+00
1.06163243e+00
1.05720261e+00
1.05725061e+00
1.05927450e+00
1.05498860e+00
1.05540956e+00
1.05924935e+00
1.05949531e+00
1.04793104e+00
1.04238736e+00
1.04922293e+00
1.05575511e+00
1.05243691e+00
1.04926014e+00
1.05187553e+00
1.05753217e+00
1.06395754e+00
1.05956665e+00
1.05327828e+00
1.05332509e+00
1.06288844e+00
1.06344686e+00
1.05618537e+00
1.05509034e+00
1.05825336e+00
1.05976792e+00
1.05790259e+00
1.05285642e+00
1.05677506e+00
1.06095089e+00
1.05730494e+00
1.05816873e+00
1.05882260e+00
1.05645430e+00
1.05385075e+00
1.05842352e+00
1.05533079e+00
1.04996111e+00
1.05199607e+00
1.05672664e+00
1.05535329e+00
1.05115690e+00
1.05096669e+00
1.05142731e+00
1.05176245e+00
1.05286697e+00
1.05086887e+00
1.04764382e+00
1.05189550e+00
1.05119225e+00
1.04925779e+00
1.04692492e+00
1.04809068e+00
1.04843756e+00
1.05192185e+00
1.04814738e+00
1.04370470e+00
1.04878200e+00
1.04762307e+00
1.04545305e+00
1.05072055e+00
1.04812062e+00
1.04212491e+00
1.04707920e+00
1.04736131e+00
1.04390252e+00
1.04466385e+00
1.04279375e+00
1.04215270e+00
1.04332152e+00
1.04471486e+00
1.04182383e+00
1.03926960e+00
1.04114307e+00
1.04250162e+00
1.03891138e+00
1.03911532e+00
1.04019917e+00
1.04079950e+00
1.03904505e+00
1.03799374e+00
1.03900091e+00
1.04091032e+00
1.04102444e+00
1.03802773e+00
1.03885301e+00
1.03939713e+00
1.03956289e+00
1.03831410e+00
1.03531346e+00
1.03658475e+00
1.03562298e+00
1.03621622e+00
1.03582511e+00
1.03498842e+00
1.03459044e+00
1.03844903e+00
1.03794975e+00
1.03429187e+00
1.03504873e+00
1.03442327e+00
1.03770238e+00
1.03198178e+00
1.03181854e+00
1.03566463e+00
1.03236394e+00
1.03272627e+00
1.03063604e+00
1.03157724e+00
1.03365076e+00
1.03247084e+00
1.02976331e+00
1.02911011e+00
1.03090092e+00
1.03063990e+00
1.02921058e+00
1.02890098e+00
1.02961805e+00
1.09140148e+00
1.08446699e+00
1.07899900e+00
1.08619072e+00
1.08603938e+00
1.06892088e+00
1.06271410e+00
1.06793847e+00
1.06513429e+00
1.06123079e+00
1.06642963e+00
1.06314938e+00
1.05644946e+00
1.05585217e+00
1.05493680e+00
1.05448637e+00
1.05890625e+00
1.05977167e+00
1.04922985e+00
1.04021856e+00
1.04632613e+00
1.05636175e+00
1.05718694e+00
1.05101120e+00
1.05018424e+00
1.05523443e+00
1.06451490e+00
1.06061403e+00
1.05185357e+00
1.05527476e+00
1.06218789e+00
1.06277199e+00
1.05502249e+00
1.05861831e+00
1.06242479e+00
1.05761904e+00
1.05408655e+00
1.05545002e+00
1.06353343e+00
1.06025513e+00
1.05070712e+00
1.05156232e+00
1.06199302e+00
1.06093023e+00
1.05073965e+00
1.05406964e+00
1.05624565e+00
1.05458092e+00
1.05365651e+00
1.05378611e+00
1.05367290e+00
1.05199870e+00
1.05389043e+00
1.05392745e+00
1.04896800e+00
1.05113294e+00
1.05238647e+00
1.05013724e+00
1.05269360e+00
1.04988201e+00
1.05073620e+00
1.05043679e+00
1.04951772e+00
1.04804395e+00
1.04345465e+00
1.04967945e+00
1.04634994e+00
1.04739024e+00
1.04820940e+00
1.04258136e+00
1.04600783e+00
1.04756891e+00
1.04414365e+00
1.04382908e+00
1.04622882e+00
1.04248515e+00
1.04280415e+00
1.04414338e+00
1.04469432e+00
1.04265546e+00
1.04353332e+00
1.04247987e+00
1.04104814e+00
1.04139518e+00
1.04261502e+00
1.03942089e+00
1.03975431e+00
1.04126446e+00
1.04152740e+00
1.03873127e+00
1.03818579e+00
1.03737617e+00
1.03996352e+00
1.03958825e+00
1.03706617e+00
1.03977872e+00
1.03984724e+00
1.03958769e+00
1.03840223e+00
1.03717796e+00
1.03675437e+00
1.03687231e+00
1.03502517e+00
1.03622065e+00
1.03281607e+00
1.03376897e+00
1.04008970e+00
1.03672728e+00
1.03417193e+00
1.03557054e+00
1.03553147e+00
1.03541145e+00
1.03254236e+00
1.02995292e+00
1.03706113e+00
1.03368965e+00
1.03086882e+00
1.03006037e+00
1.03440617e+00
1.03486476e+00
1.03291505e+00
1.02888165e+00
1.02959618e+00
1.03156866e+00
1.02888746e+00
1.02880917e+00
1.02914095e+00
1.03136372e+00
1.09246244e+00
1.08177495e+00
1.08480039e+00
1.08233537e+00
1.07089283e+00
1.07106186e+00
1.06978609e+00
1.06470607e+00
1.06430572e+00
1.06702871e+00
1.06869145e+00
1.06679110e+00
1.05756742e+00
1.04915369e+00
1.05236290e+00
1.06081367e+00
1.06661813e+00
1.05530146e+00
1.04620563e+00
1.04175235e+00
1.04979370e+00
1.06392747e+00
1.06047744e+00
1.04837541e+00
1.04747751e+00
1.05865642e+00
1.06456114e+00
1.05764767e+00
1.05368988e+00
1.05706640e+00
1.06339347e+00
1.06424852e+00
1.05124329e+00
1.05299529e+00
1.06418524e+00
1.06471600e+00
1.05155600e+00
1.05421039e+00
1.06497642e+00
1.05972654e+00
1.04722904e+00
1.05361868e+00
1.06107772e+00
1.05663989e+00
1.04800119e+00
1.05922809e+00
1.06110873e+00
1.05118702e+00
1.04797902e+00
1.05764822e+00
1.05878180e+00
1.04922958e+00
1.04897790e+00
1.05452196e+00
1.05129101e+00
1.05009823e+00
1.05117132e+00
1.04816144e+00
1.04873385e+00
1.05210110e+00
1.05088722e+00
1.04912251e+00
1.04538016e+00
1.04932368e+00
1.04992919e+00
1.04898478e+00
1.04886662e+00
1.04253073e+00
1.04513144e+00
1.04764086e+00
1.04648123e+00
1.04377237e+00
1.04415457e+00
1.04493329e+00
1.04682453e+00
1.04684461e+00
1.04421553e+00
1.04204172e+00
1.04394703e+00
1.04304507e+00
1.04386097e+00
1.04343555e+00
1.04214760e+00
1.04213872e+00
1.04392006e+00
1.04175123e+00
1.04062602e+00
1.04262604e+00
1.04140241e+00
1.04146744e+00
1.03999506e+00
1.03887330e+00
1.03862520e+00
1.03810524e+00
1.03622635e+00
1.04069916e+00
1.03841583e+00
1.03940093e+00
1.03728600e+00
1.03617817e+00
1.04058330e+00
1.04010165e+00
1.03547685e+00
1.03691528e+00
1.03573398e+00
1.03148928e+00
1.03814800e+00
1.03535259e+00
1.03305748e+00
1.03403612e+00
1.03482598e+00
1.03465575e+00
1.03139445e+00
1.03287413e+00
1.03676936e+00
1.03344364e+00
1.03331036e+00
1.02998540e+00
1.03286732e+00
1.03374833e+00
1.03183956e+00
1.03009690e+00
1.02937897e+00
1.03293066e+00
1.02798583e+00
1.02737913e+00
1.02778901e+00
1.03092879e+00
1.08067724e+00
1.08591630e+00
1.08691230e+00
1.07277914e+00
1.06983737e+00
1.07533585e+00
1.06722122e+00
1.06496943e+00
1.06915430e+00
1.07475715e+00
1.06768144e+00
1.06329887e+00
1.06187139e+00
1.05561960e+00
1.04922827e+00
1.05937061e+00
1.07248178e+00
1.06176678e+00
1.04830524e+00
1.04298677e+00
1.05021777e+00
1.06158483e+00
1.05897204e+00
1.05026792e+00
1.04867375e+00
1.06211085e+00
1.06548407e+00
1.05861377e+00
1.05291472e+00
1.05871191e+00
1.06606791e+00
1.06047728e+00
1.05255170e+00
1.05809547e+00
1.06031851e+00
1.05555508e+00
1.05159123e+00
1.05741699e+00
1.06510251e+00
1.05759123e+00
1.04724785e+00
1.05598381e+00
1.06220557e+00
1.05461231e+00
1.04586128e+00
1.05770234e+00
1.06261231e+00
1.05479092e+00
1.05065095e+00
1.05613758e+00
1.05335542e+00
1.04877891e+00
1.05373472e+00
1.05695882e+00
1.04864858e+00
1.04727703e+00
1.05232004e+00
1.05282523e+00
1.04851398e+00
1.05006813e+00
1.04789693e+00
1.05167620e+00
1.04991408e+00
1.04767326e+00
1.04923348e+00
1.04314118e+00
1.05021942e+00
1.05195822e+00
1.04652089e+00
1.04603159e+00
1.04515189e+00
1.04609612e+00
1.04721552e+00
1.04953585e+00
1.04261932e+00
1.04410667e+00
1.04507994e+00
1.04524201e+00
1.04348704e+00
1.04316480e+00
1.04124445e+00
1.04381853e+00
1.04282248e+00
1.04220987e+00
1.04181819e+00
1.03993162e+00
1.03982067e+00
1.04429580e+00
1.03972569e+00
1.04078469e+00
1.04022716e+00
1.04022934e+00
1.03964389e+00
1.03651295e+00
1.03640184e+00
1.03966680e+00
1.03822135e+00
1.03577637e+00
1.03771162e+00
1.03506204e+00
1.04013029e+00
1.03829786e+00
1.03605189e+00
1.03892311e+00
1.03547700e+00
1.03484569e+00
1.03662874e+00
1.03326165e+00
1.03394618e+00
1.03586018e+00
1.03334286e+00
1.03493815e+00
1.03090684e+00
1.03454078e+00
1.03663974e+00
1.03082936e+00
1.03385601e+00
1.03476674e+00
1.03325924e+00
1.03305798e+00
1.03046696e+00
1.03237898e+00
1.02966972e+00
1.03157632e+00
1.02878575e+00
1.02799640e+00
1.02644585e+00
1.02820485e+00
1.07517450e+00
1.08451341e+00
1.07646707e+00
1.07279386e+00
1.07558309e+00
1.06877598e+00
1.06411048e+00
1.07029282e+00
1.06673523e+00
1.06660257e+00
1.07416007e+00
1.07308216e+00
1.05932680e+00
1.05054994e+00
1.05409357e+00
1.06863357e+00
1.07218619e+00
1.05966540e+00
1.04293282e+00
1.04252715e+00
1.05619996e+00
1.06376419e+00
1.05741373e+00
1.04975014e+00
1.05109072e+00
1.06349590e+00
1.06893543e+00
1.05903412e+00
1.04948096e+00
1.05861344e+00
1.06679578e+00
1.06249348e+00
1.05196053e+00
1.05309630e+00
1.06283499e+00
1.06232945e+00
1.05237944e+00
1.05202326e+00
1.06201697e+00
1.06157977e+00
1.05301212e+00
1.05454613e+00
1.06064394e+00
1.05474665e+00
1.05039242e+00
1.05668155e+00
1.05946785e+00
1.04923170e+00
1.04969620e+00
1.05814964e+00
1.05749342e+00
1.04839653e+00
1.05037380e+00
1.05365920e+00
1.05218111e+00
1.05451736e+00
1.05194150e+00
1.04853626e+00
1.04908649e+00
1.04903854e+00
1.04977021e+00
1.04813018e+00
1.04853897e+00
1.04688260e+00
1.05121707e+00
1.05130128e+00
1.04379640e+00
1.04535073e+00
1.04412542e+00
1.04814338e+00
1.04862076e+00
1.04659247e+00
1.04161294e+00
1.04609284e+00
1.04478933e+00
1.04639962e+00
1.04357231e+00
1.04125858e+00
1.04305605e+00
1.04492658e+00
1.04169303e+00
1.04241385e+00
1.03952532e+00
1.03846065e+00
1.04133351e+00
1.03898351e+00
1.03745649e+00
1.03998116e+00
1.03760035e+00
1.03971453e+00
1.04135812e+00
1.03938022e+00
1.03885781e+00
1.03622843e+00
1.03855533e+00
1.04017496e+00
1.03530585e+00
1.03603674e+00
1.03586042e+00
1.03588392e+00
1.03917152e+00
1.03711863e+00
1.03356043e+00
1.03952345e+00
1.03702647e+00
1.03339493e+00
1.03573485e+00
1.03545623e+00
1.03418384e+00
1.03486400e+00
1.03291710e+00
1.03407000e+00
1.03306428e+00
1.03641965e+00
1.03644580e+00
1.02964014e+00
1.03096411e+00
1.03424657e+00
1.03194838e+00
1.03164292e+00
1.02866537e+00
1.03228507e+00
1.03134715e+00
1.02978943e+00
1.02856043e+00
1.02952971e+00
1.02714950e+00
1.02813592e+00
1.08279035e+00
1.07785795e+00
1.07053247e+00
1.07743914e+00
1.07356655e+00
1.06616619e+00
1.06899976e+00
1.06969910e+00
1.06806435e+00
1.07062287e+00
1.07525970e+00
1.07205085e+00
1.05993125e+00
1.04983517e+00
1.05968778e+00
1.06922978e+00
1.06589556e+00
1.06241128e+00
1.05164233e+00
1.04527002e+00
1.05453969e+00
1.06495862e+00
1.06234352e+00
1.05115089e+00
1.05420856e+00
1.06351974e+00
1.06765890e+00
1.06176603e+00
1.05298500e+00
1.05393983e+00
1.06343203e+00
1.06271972e+00
1.05232634e+00
1.05355271e+00
1.06737073e+00
1.06231792e+00
1.04852645e+00
1.05526212e+00
1.06688481e+00
1.05819935e+00
1.04642170e+00
1.05464140e+00
1.06617799e+00
1.05840892e+00
1.04891382e+00
1.05290444e+00
1.05782615e+00
1.05170632e+00
1.05305489e+00
1.05694685e+00
1.05019355e+00
1.04550220e+00
1.05575012e+00
1.05757445e+00
1.04842070e+00
1.05077058e+00
1.05263033e+00
1.05133863e+00
1.05340374e+00
1.04716604e+00
1.04707738e+00
1.04915894e+00
1.05244248e+00
1.04894191e+00
1.04266926e+00
1.04754506e+00
1.04492858e+00
1.04801219e+00
1.04787373e+00
1.04662451e+00
1.04149857e+00
1.04433860e+00
1.04765183e+00
1.04653052e+00
1.03974598e+00
1.04190836e+00
1.04432355e+00
1.04303655e+00
1.04515879e+00
1.04435754e+00
1.03824977e+00
1.04225392e+00
1.04203455e+00
1.03884818e+00
1.03818404e+00
1.03763061e+00
1.03723578e+00
1.04075417e+00
1.03778889e+00
1.03922647e+00
1.03876768e+00
1.03759546e+00
1.03850732e+00
1.03862179e+00
1.03860793e+00
1.04131134e+00
1.03524131e+00
1.03623571e+00
1.03644227e+00
1.03535465e+00
1.03640736e+00
1.03519526e+00
1.03563228e+00
1.03704789e+00
1.03809068e+00
1.03504909e+00
1.03385219e+00
1.03427102e+00
1.03739004e+00
1.03568233e+00
1.03205119e+00
1.03553132e+00
1.03498673e+00
1.03760010e+00
1.03286276e+00
1.02890728e+00
1.03331850e+00
1.03211071e+00
1.03072780e+00
1.03209917e+00
1.03066546e+00
1.03238053e+00
1.03121928e+00
1.03041383e+00
1.02835845e+00
1.03071100e+00
1.02884860e+00
1.02922242e+00
1.08339377e+00
1.07860427e+00
1.07455349e+00
1.07280697e+00
1.06647036e+00
1.07283761e+00
1.07177283e+00
1.06305829e+00
1.07228376e+00
1.08153792e+00
1.07200442e+00
1.06548885e+00
1.05967454e+00
1.05493024e+00
1.05729963e+00
1.06690142e+00
1.07289206e+00
1.06203988e+00
1.04478298e+00
1.04678255e+00
1.05924654e+00
1.06973516e+00
1.06518022e+00
1.04759134e+00
1.05390815e+00
1.06768291e+00
1.06845064e+00
1.05579821e+00
1.05038892e+00
1.05679380e+00
1.06799130e+00
1.06293594e+00
1.05120147e+00
1.05042929e+00
1.06701429e+00
1.07022178e+00
1.05289203e+00
1.05078086e+00
1.06321553e+00
1.05603107e+00
1.05068148e+00
1.05840586e+00
1.06138747e+00
1.05080899e+00
1.04738551e+00
1.05821392e+00
1.06024755e+00
1.05024110e+00
1.04931425e+00
1.05727154e+00
1.05093756e+00
1.04833752e+00
1.05434164e+00
1.05274295e+00
1.04553307e+00
1.05159924e+00
1.05575173e+00
1.04874983e+00
1.04766483e+00
1.05275967e+00
1.04992895e+00
1.04945183e+00
1.04505937e+00
1.04899502e+00
1.04767540e+00
1.04781454e+00
1.04630243e+00
1.04391142e+00
1.04251102e+00
1.05028287e+00
1.04734804e+00
1.04501539e+00
1.04403371e+00
1.04576851e+00
1.04263595e+00
1.04621297e+00
1.04544766e+00
1.04045654e+00
1.04252536e+00
1.04617894e+00
1.04142850e+00
1.04310225e+00
1.04175066e+00
1.04065882e+00
1.04192236e+00
1.04122505e+00
1.03842573e+00
1.03992273e+00
1.03795148e+00
1.04005028e+00
1.04012946e+00
1.03592687e+00
1.03645884e+00
1.03734119e+00
1.04066222e+00
1.04169536e+00
1.03650284e+00
1.03819057e+00
1.03785910e+00
1.03691535e+00
1.03559854e+00
1.03315354e+00
1.03237592e+00
1.03752044e+00
1.03598245e+00
1.03191667e+00
1.03460128e+00
1.03468309e+00
1.03548178e+00
1.03798431e+00
1.03241365e+00
1.03469283e+00
1.03523015e+00
1.03611999e+00
1.03339161e+00
1.02680725e+00
1.03494964e+00
1.03202017e+00
1.02817278e+00
1.03027584e+00
1.03116939e+00
1.03363140e+00
1.03014338e+00
1.02763123e+00
1.03036603e+00
1.03104484e+00
1.02759748e+00
1.02862008e+00
1.07170458e+00
1.07349380e+00
1.08044085e+00
1.07445039e+00
1.06957175e+00
1.07449538e+00
1.06700538e+00
1.06744653e+00
1.07426201e+00
1.07411248e+00
1.07323526e+00
1.07098716e+00
1.05805769e+00
1.05657139e+00
1.05798889e+00
1.07004111e+00
1.07331980e+00
1.05545806e+00
1.04341880e+00
1.05093658e+00
1.06010290e+00
1.06984534e+00
1.06234314e+00
1.05167049e+00
1.05221026e+00
1.06415544e+00
1.06975801e+00
1.05953770e+00
1.05260519e+00
1.05526905e+00
1.06366702e+00
1.06625342e+00
1.05558568e+00
1.05279379e+00
1.06536590e+00
1.06478799e+00
1.05124892e+00
1.05170577e+00
1.06318767e+00
1.05794756e+00
1.05166105e+00
1.05542492e+00
1.05718874e+00
1.05251671e+00
1.04997516e+00
1.05599250e+00
1.05532777e+00
1.04957935e+00
1.05237649e+00
1.05826972e+00
1.04874356e+00
1.04960741e+00
1.05740639e+00
1.05173952e+00
1.04590117e+00
1.04918658e+00
1.05186168e+00
1.04857795e+00
1.04852197e+00
1.05304196e+00
1.04733628e+00
1.04663170e+00
1.04731419e+00
1.04832160e+00
1.05017821e+00
1.04445474e+00
1.04713820e+00
1.05137467e+00
1.04754179e+00
1.04506901e+00
1.04506767e+00
1.04548791e+00
1.04478211e+00
1.04814441e+00
1.04479411e+00
1.04371778e+00
1.04537455e+00
1.04359157e+00
1.04494481e+00
1.04569386e+00
1.03972872e+00
1.04159164e+00
1.04415546e+00
1.04241502e+00
1.04300786e+00
1.03958811e+00
1.03970637e+00
1.04279887e+00
1.04123755e+00
1.04141707e+00
1.03976278e+00
1.03664309e+00
1.03909024e+00
1.03821056e+00
1.03861055e+00
1.04034269e+00
1.03495960e+00
1.03919715e+00
1.04024250e+00
1.03749419e+00
1.03545385e+00
1.03640247e+00
1.03660483e+00
1.03563522e+00
1.03546205e+00
1.03287467e+00
1.03456881e+00
1.03510722e+00
1.03471876e+00
1.03587139e+00
1.03357541e+00
1.03429871e+00
1.03402880e+00
1.03393632e+00
1.03480710e+00
1.02939078e+00
1.03297637e+00
1.03081755e+00
1.02953366e+00
1.03010179e+00
1.02895331e+00
1.03252003e+00
1.03112925e+00
1.02806676e+00
1.02800417e+00
1.03075176e+00
1.02818360e+00
1.02718493e+00
1.07401997e+00
1.07737388e+00
1.07632920e+00
1.07541318e+00
1.07496117e+00
1.06670105e+00
1.06183850e+00
1.07311400e+00
1.07642705e+00
1.07222518e+00
1.07442638e+00
1.07018475e+00
1.05723109e+00
1.05632542e+00
1.06428976e+00
1.07434512e+00
1.06890157e+00
1.05898381e+00
1.04854806e+00
1.04360386e+00
1.05815350e+00
1.07558002e+00
1.06339009e+00
1.05127329e+00
1.05234098e+00
1.06386975e+00
1.07053455e+00
1.05973922e+00
1.04981245e+00
1.05785298e+00
1.06872547e+00
1.06831352e+00
1.05235477e+00
1.05300432e+00
1.06386471e+00
1.06460024e+00
1.05110816e+00
1.04876753e+00
1.06115782e+00
1.05948447e+00
1.05118754e+00
1.05281429e+00
1.05726315e+00
1.05826754e+00
1.05347595e+00
1.05593439e+00
1.05315767e+00
1.04925864e+00
1.05285749e+00
1.05709451e+00
1.04918489e+00
1.05109279e+00
1.05908115e+00
1.04945625e+00
1.04709446e+00
1.05378199e+00
1.05002099e+00
1.04559340e+00
1.04971518e+00
1.04901489e+00
1.04954019e+00
1.04745799e+00
1.05163964e+00
1.04535469e+00
1.04916561e+00
1.05070709e+00
1.04521764e+00
1.04493226e+00
1.04487809e+00
1.04206556e+00
1.04742573e+00
1.04863654e+00
1.04238617e+00
1.04233632e+00
1.04550276e+00
1.04576478e+00
1.04680945e+00
1.04238149e+00
1.04281253e+00
1.04472021e+00
1.04143981e+00
1.04270320e+00
1.04262326e+00
1.03920855e+00
1.04159625e+00
1.04062132e+00
1.03999607e+00
1.04168781e+00
1.03942075e+00
1.04278106e+00
1.04055988e+00
1.03610950e+00
1.03872082e+00
1.03784159e+00
1.03831663e+00
1.03736119e+00
1.03518204e+00
1.03808414e+00
1.03842497e+00
1.03518877e+00
1.03857430e+00
1.03688708e+00
1.03651854e+00
1.03604847e+00
1.03495227e+00
1.03420055e+00
1.03767537e+00
1.03329779e+00
1.03178106e+00
1.03345733e+00
1.03229007e+00
1.03832191e+00
1.03381216e+00
1.03074712e+00
1.03218710e+00
1.03090742e+00
1.03693290e+00
1.03060435e+00
1.03006363e+00
1.03386416e+00
1.02927054e+00
1.03058786e+00
1.03014229e+00
1.02837418e+00
1.02903995e+00
1.02968599e+00
1.02916663e+00
1.02956137e+00
1.08289106e+00
1.08237988e+00
1.07147203e+00
1.07051400e+00
1.06898033e+00
1.06528834e+00
1.06589868e+00
1.07084549e+00
1.07409124e+00
1.07857111e+00
1.07481293e+00
1.06459080e+00
1.06066420e+00
1.05628271e+00
1.06152864e+00
1.07345423e+00
1.07240472e+00
1.06209836e+00
1.04540852e+00
1.04267567e+00
1.06193032e+00
1.07779884e+00
1.06088566e+00
1.04888959e+00
1.05534655e+00
1.06950522e+00
1.06994815e+00
1.05695248e+00
1.05343462e+00
1.05631988e+00
1.06460024e+00
1.06662151e+00
1.05592390e+00
1.05175858e+00
1.06218452e+00
1.06631650e+00
1.04779274e+00
1.05046971e+00
1.06220327e+00
1.05581435e+00
1.05089794e+00
1.05831687e+00
1.06305373e+00
1.05422459e+00
1.04691201e+00
1.05524000e+00
1.05821833e+00
1.05137573e+00
1.05242366e+00
1.05619007e+00
1.04941329e+00
1.04823661e+00
1.05814566e+00
1.04742443e+00
1.04316500e+00
1.05539726e+00
1.05450894e+00
1.04716203e+00
1.05169038e+00
1.04965971e+00
1.04796879e+00
1.04787109e+00
1.05082834e+00
1.04749755e+00
1.04561126e+00
1.04940563e+00
1.04673996e+00
1.04729607e+00
1.04588121e+00
1.04288490e+00
1.04376602e+00
1.04499279e+00
1.04413054e+00
1.04467488e+00
1.04374607e+00
1.04200832e+00
1.04493691e+00
1.04331432e+00
1.04410172e+00
1.04432074e+00
1.03888316e+00
1.04069768e+00
1.04232459e+00
1.03831835e+00
1.03921771e+00
1.03735214e+00
1.03847630e+00
1.04062586e+00
1.04036855e+00
1.04140744e+00
1.03937794e+00
1.03535664e+00
1.04122394e+00
1.03628764e+00
1.03583553e+00
1.03531038e+00
1.03455627e+00
1.03845604e+00
1.03955439e+00
1.03237497e+00
1.03696309e+00
1.03945971e+00
1.03743767e+00
1.03418332e+00
1.03591736e+00
1.03540878e+00
1.03725114e+00
1.03356966e+00
1.03243118e+00
1.03564217e+00
1.03157628e+00
1.03669587e+00
1.03246878e+00
1.03012208e+00
1.03288309e+00
1.03173906e+00
1.03729031e+00
1.03147600e+00
1.03033665e+00
1.03385148e+00
1.02824418e+00
1.02864800e+00
1.02966295e+00
1.02947238e+00
1.02759375e+00
1.02884747e+00
1.02572314e+00
1.02918349e+00
1.08177125e+00
1.07160734e+00
1.07258172e+00
1.07006719e+00
1.06159215e+00
1.06446300e+00
1.06906468e+00
1.06943194e+00
1.07061429e+00
1.07992101e+00
1.07335480e+00
1.06202710e+00
1.06008712e+00
1.05682441e+00
1.06158814e+00
1.07611736e+00
1.07373096e+00
1.05441636e+00
1.04373010e+00
1.05159250e+00
1.06267655e+00
1.06913207e+00
1.06388950e+00
1.05692716e+00
1.05559636e+00
1.06691137e+00
1.06953447e+00
1.05942765e+00
1.05725102e+00
1.05745362e+00
1.06239688e+00
1.06318830e+00
1.05358945e+00
1.05130394e+00
1.06221925e+00
1.06119944e+00
1.05300471e+00
1.05548124e+00
1.06149243e+00
1.05712654e+00
1.05612437e+00
1.05776083e+00
1.05493140e+00
1.05092021e+00
1.05280803e+00
1.05862278e+00
1.05646368e+00
1.04820783e+00
1.05303208e+00
1.05980280e+00
1.05119740e+00
1.04581102e+00
1.05297545e+00
1.04957931e+00
1.05007301e+00
1.05527468e+00
1.05135946e+00
1.04300410e+00
1.04960972e+00
1.05332554e+00
1.04562700e+00
1.05008698e+00
1.04675618e+00
1.04673588e+00
1.04724789e+00
1.04476740e+00
1.04660921e+00
1.04934609e+00
1.04642692e+00
1.04552284e+00
1.04711231e+00
1.04450798e+00
1.04295451e+00
1.04609651e+00
1.04357327e+00
1.04086400e+00
1.04509380e+00
1.04174363e+00
1.04196444e+00
1.04250301e+00
1.03991309e+00
1.04183106e+00
1.04220562e+00
1.03695681e+00
1.04099975e+00
1.03823672e+00
1.03965426e+00
1.03934818e+00
1.03634341e+00
1.03960320e+00
1.03875745e+00
1.03750077e+00
1.04173530e+00
1.03663281e+00
1.03709039e+00
1.03881071e+00
1.03595564e+00
1.03769896e+00
1.03518154e+00
1.03316627e+00
1.03635030e+00
1.03729466e+00
1.03770208e+00
1.03553169e+00
1.03326453e+00
1.03665213e+00
1.03835624e+00
1.03477178e+00
1.03230909e+00
1.03579696e+00
1.03492870e+00
1.03648749e+00
1.03135296e+00
1.03169080e+00
1.03409115e+00
1.03060815e+00
1.03593433e+00
1.03024406e+00
1.03156052e+00
1.03414122e+00
1.02662992e+00
1.02939578e+00
1.03027070e+00
1.03116180e+00
1.02766528e+00
1.02940133e+00
1.02602248e+00
1.02776468e+00
1.07490723e+00
1.06587146e+00
1.07252911e+00
1.06898587e+00
1.06633364e+00
1.06686316e+00
1.06707605e+00
1.06916302e+00
1.07204802e+00
1.07683042e+00
1.07453497e+00
1.06903871e+00
1.05753246e+00
1.05233904e+00
1.06155450e+00
1.07530359e+00
1.07163333e+00
1.05608691e+00
1.04562764e+00
1.04871771e+00
1.06309137e+00
1.07419697e+00
1.07002585e+00
1.05657222e+00
1.05191278e+00
1.06310319e+00
1.07134432e+00
1.06136424e+00
1.05026648e+00
1.05674873e+00
1.06751988e+00
1.06396636e+00
1.05265060e+00
1.05281071e+00
1.06122081e+00
1.06409153e+00
1.05549612e+00
1.05411864e+00
1.06360622e+00
1.05798694e+00
1.05312269e+00
1.05222596e+00
1.05394689e+00
1.05561641e+00
1.05517253e+00
1.05494137e+00
1.05329513e+00
1.05170089e+00
1.05581267e+00
1.05663777e+00
1.04900380e+00
1.05237907e+00
1.05526899e+00
1.04856994e+00
1.04759671e+00
1.05337051e+00
1.04877836e+00
1.04804215e+00
1.05109963e+00
1.05038718e+00
1.04103923e+00
1.05215947e+00
1.05051592e+00
1.04133497e+00
1.04630525e+00
1.04783903e+00
1.04781079e+00
1.04997970e+00
1.04691124e+00
1.04290418e+00
1.04712965e+00
1.04658588e+00
1.04258733e+00
1.04715186e+00
1.04453674e+00
1.04114070e+00
1.04318590e+00
1.04272207e+00
1.04235516e+00
1.04321864e+00
1.04110305e+00
1.04471909e+00
1.04236018e+00
1.03922965e+00
1.04244214e+00
1.03967883e+00
1.03958172e+00
1.04190338e+00
1.03708390e+00
1.04029250e+00
1.03663500e+00
1.03843312e+00
1.04252926e+00
1.03729526e+00
1.03771151e+00
1.04175701e+00
1.03524267e+00
1.04026752e+00
1.03597592e+00
1.03307137e+00
1.03707027e+00
1.03648843e+00
1.03347522e+00
1.03604315e+00
1.03546181e+00
1.03585204e+00
1.03613003e+00
1.03505508e+00
1.03503070e+00
1.03631438e+00
1.03374484e+00
1.03734756e+00
1.03247079e+00
1.03059458e+00
1.03399539e+00
1.02975582e+00
1.03265304e+00
1.02883075e+00
1.03160181e+00
1.03587446e+00
1.02670099e+00
1.02892891e+00
1.03092944e+00
1.03058612e+00
1.02684907e+00
1.02764818e+00
1.02525576e+00
1.02832088e+00
1.06705611e+00
1.07290775e+00
1.06982632e+00
1.06421954e+00
1.07069377e+00
1.06939683e+00
1.06238604e+00
1.06680319e+00
1.07673445e+00
1.07909191e+00
1.07323025e+00
1.06391167e+00
1.05464409e+00
1.05285344e+00
1.06449427e+00
1.07216920e+00
1.06806057e+00
1.05935430e+00
1.04713813e+00
1.04689806e+00
1.06519910e+00
1.07519502e+00
1.06561369e+00
1.05517337e+00
1.05648316e+00
1.06146023e+00
1.06024543e+00
1.06143872e+00
1.05738244e+00
1.06048122e+00
1.06755493e+00
1.05983083e+00
1.05322349e+00
1.05660741e+00
1.06572397e+00
1.06357681e+00
1.04905814e+00
1.05795446e+00
1.06476237e+00
1.05633899e+00
1.04949084e+00
1.05289550e+00
1.05722125e+00
1.05528953e+00
1.05371532e+00
1.05554841e+00
1.05323150e+00
1.04967605e+00
1.05574829e+00
1.05388978e+00
1.04834983e+00
1.05079396e+00
1.05789906e+00
1.05074165e+00
1.04969191e+00
1.05640614e+00
1.04596890e+00
1.04302352e+00
1.05436917e+00
1.05019820e+00
1.04330479e+00
1.04794884e+00
1.05442640e+00
1.04326503e+00
1.04947172e+00