# vtk DataFile Version 2.0
LBM Flow Field - Timestep 920
ASCII
DATASET STRUCTURED_POINTS
DIMENSIONS 128 128 1
ORIGIN 0.0 0.0 0.0
SPACING 1.0 1.0 1.0
POINT_DATA 16384
SCALARS density double 1
LOOKUP_TABLE default
1.32128561e+00
1.31043849e+00
1.29746464e+00
1.28460998e+00
1.27181001e+00
1.25922123e+00
1.24671325e+00
1.23450704e+00
1.22240048e+00
1.21068293e+00
1.19907588e+00
1.18793961e+00
1.17691668e+00
1.16643862e+00
1.15606930e+00
1.14630916e+00
1.13664696e+00
1.12764648e+00
1.11872849e+00
1.11051147e+00
1.10235866e+00
1.09493170e+00
1.08754965e+00
1.08090348e+00
1.07428363e+00
1.06839497e+00
1.06251620e+00
1.05734993e+00
1.05218043e+00
1.04769206e+00
1.04319129e+00
1.03932943e+00
1.03545021e+00
1.03215902e+00
1.02884958e+00
1.02607099e+00
1.02327685e+00
1.02095263e+00
1.01861839e+00
1.01669182e+00
1.01476266e+00
1.01317986e+00
1.01160285e+00
1.01031379e+00
1.00903895e+00
1.00799810e+00
1.00697912e+00
1.00614577e+00
1.00534059e+00
1.00467896e+00
1.00405005e+00
1.00352917e+00
1.00304361e+00
1.00263701e+00
1.00226646e+00
1.00195183e+00
1.00167227e+00
1.00143099e+00
1.00122245e+00
1.00103915e+00
1.00088529e+00
1.00074741e+00
1.00063506e+00
1.00053244e+00
1.00045121e+00
1.00037567e+00
1.00031748e+00
1.00026254e+00
1.00022119e+00
1.00018173e+00
1.00015257e+00
1.00012460e+00
1.00010418e+00
1.00008462e+00
1.00007041e+00
1.00005692e+00
1.00004709e+00
1.00003793e+00
1.00003117e+00
1.00002503e+00
1.00002042e+00
1.00001636e+00
1.00001323e+00
1.00001059e+00
1.00000849e+00
1.00000678e+00
1.00000539e+00
1.00000430e+00
1.00000338e+00
1.00000270e+00
1.00000210e+00
1.00000168e+00
1.00000130e+00
1.00000103e+00
1.00000079e+00
1.00000063e+00
1.00000048e+00
1.00000038e+00
1.00000028e+00
1.00000022e+00
1.00000017e+00
1.00000013e+00
1.00000010e+00
1.00000008e+00
1.00000006e+00
1.00000004e+00
1.00000003e+00
1.00000002e+00
1.00000002e+00
1.00000001e+00
1.00000001e+00
1.00000001e+00
1.00000001e+00
1.00000000e+00
1.00000000e+00
1.00000000e+00
1.00000000e+00
1.00000000e+00
1.00000000e+00
1.00000000e+00
1.00000000e+00
1.00000000e+00
1.00000000e+00
1.00000000e+00
1.00000000e+00
1.00000000e+00
1.00000000e+00
1.00000000e+00
-1.77969334e+104
-7.44205099e+103
-3.70961751e+103
-7.10995996e+103
-1.29948309e+104
1.44655190e+104
3.81882464e+104
-4.60841086e+104
1.31544026e+104
-2.45905692e+104
2.20498327e+104
-5.71408229e+104
-4.43017798e+103
1.44204949e+104
6.33314500e+105
2.35352041e+106
-1.47294028e+103
4.01192208e+105
-9.72294982e+103
-7.06340628e+104
-7.91310776e+104
9.23609313e+104
-1.15223055e+105
-4.98556904e+104
2.36543888e+105
-7.85247371e+104
5.45828778e+104
-2.87873765e+105
-1.24653668e+106
2.32285578e+106
7.62627254e+107
2.36728021e+108
5.72766987e+107
-5.48640606e+107
-1.09867671e+108
1.27314502e+108
-3.56861826e+107
-4.61919326e+108
1.82458935e+108
4.62221685e+108
6.29780041e+108
1.01332063e+109
-5.21075567e+108
-1.20506402e+108
-5.89426618e+108
-2.47380977e+108
-1.93196033e+108
-1.90692720e+108
2.30982036e+108
-5.48772061e+108
1.63305481e+108
6.97945699e+107
1.93561508e+107
-7.21837658e+106
-2.52214403e+107
-1.68434190e+107
-3.27360908e+107
-3.39871680e+107
-1.31513674e+107
3.28590345e+106
1.25291265e+106
-5.77642511e+103
-1.89411524e+105
4.41475692e+104
5.44879444e+105
-2.87250662e+105
3.10405385e+105
6.27912621e+105
-7.63219006e+104
2.66812058e+105
-9.65310928e+104
2.83051594e+104
-3.40282824e+104
-3.71839044e+103
5.13150557e+102
-1.12595884e+104
2.04659097e+104
-1.77128552e+103
-3.36132574e+103
4.52531491e+102
1.82132815e+103
-5.71529303e+101
1.89387731e+103
-3.23215692e+103
2.69508296e+103
-1.49771220e+103
6.62841188e+101
6.37608945e+102
2.75959101e+102
-3.66397643e+102
7.99387669e+100
1.23957560e+101
1.66760313e+100
-6.35524926e+100
1.76129853e+100
3.03236261e+99
5.20885258e+99
2.59478126e+100
-1.41293994e+101
1.97375430e+100
4.68127398e+99
1.58789195e+99
2.12411213e+98
3.52857635e+98
3.79717473e+98
-2.04985958e+98
-1.59086548e+99
-2.64554689e+98
-1.67852370e+97
2.14080813e+97
1.06112884e+97
1.30484171e+96
-4.68805328e+95
-6.76159648e+95
-2.10217916e+95
-5.13276343e+93
7.98852450e+93
1.05513302e+95
1.22544153e+94
1.18647729e+93
-6.23670043e+92
1.60398017e+92
-3.12260459e+92
1.63391277e+92
5.52758838e+91
-1.97115869e+91
1.00095148e+93
1.12336977e+92
-1.25471069e+104
4.49860456e+103
-6.45951833e+102
-8.78132902e+103
1.59274361e+104
-2.20484389e+104
5.07862779e+104
-4.55328727e+104
4.01183867e+104
-1.32929558e+105
1.72184736e+105
-1.34590755e+105
-8.71628535e+104
-1.92194901e+104
-5.62862605e+105
-1.69534985e+106
-1.22709046e+105
5.41027001e+105
1.59553088e+106
2.42403591e+106
6.47605407e+104
2.76779954e+105
-1.93940190e+105
-1.74035594e+104
1.39631916e+105
-1.01870415e+105
-8.84939294e+105
-2.39189101e+106
-3.94644274e+106
7.05575587e+106
-9.59996591e+107
-2.73407303e+108
-1.93052137e+108
7.41353790e+107
-2.20267114e+108
3.31793900e+108
-1.25072516e+108
6.91892413e+108
2.79457597e+108
2.84181157e+108
-9.95106572e+108
5.01815676e+107
3.55835755e+108
5.71839608e+108
1.19979720e+109
2.34974206e+108
5.36291841e+107
1.55277425e+108
5.26668274e+108
-1.91777706e+108
1.39686127e+108
3.59265771e+108
5.11797915e+107
-1.19077609e+107
9.98340655e+105
8.29069367e+107
8.32136967e+107
4.95401815e+107
-4.21216640e+107
-6.05584076e+106
4.89518544e+106
7.74697985e+105
-1.46748798e+106
-1.18380722e+106
-3.49839536e+106
-5.49997930e+106
-2.28761331e+106
-5.61010091e+106
-1.81504789e+106
1.62400707e+105
-7.29252250e+104
4.77878434e+104
5.59113833e+104
-8.11500367e+104
1.10890795e+105
-1.03188600e+105
-5.21066278e+104
-1.03578824e+104
-1.23511888e+104
-2.22699575e+103
4.46009656e+103
-3.13239136e+103
-5.15443320e+102
-2.23790692e+104
-2.40137731e+104
-2.27573879e+103
-3.78687365e+103
1.81477284e+103
5.51638833e+102
-3.32091817e+102
-5.89758286e+101
1.14919006e+102
-3.13283806e+99
-1.84685481e+99
4.78367647e+100
-3.92647605e+100
-3.39253302e+100
5.05449160e+100
1.38086533e+100
-3.98896286e+99
-5.04734625e+98
1.54206958e+99
-3.22412618e+98
-2.91262676e+99
2.44952384e+99
2.51633228e+99
5.28739935e+99
-1.09882930e+99
-1.41995458e+98
-2.74769601e+96
-1.44313401e+97
-1.22634714e+96
2.57106708e+96
6.51034570e+95
-7.80185197e+95
6.57640858e+94
-9.27210077e+94
-6.20526221e+94
-3.91626442e+94
-1.11761209e+94
-6.22966415e+93
6.93023745e+92
-2.80392380e+92
8.67639225e+92
1.87379080e+92
-3.17923229e+92
-4.41161488e+92
6.70817476e+91
9.84402521e+102
4.92703198e+103
1.12997638e+104
-4.02909605e+104
1.47901834e+104
-1.15751830e+104
3.38440817e+104
5.30320305e+103
8.21457001e+104
2.32656040e+104
5.43345283e+104
1.40943133e+105
8.36787059e+104
-2.25031232e+105
-1.23376574e+105
-1.11791987e+105
3.03798156e+105
-2.42029103e+105
-1.24187531e+106
-5.29292638e+106
1.18849009e+106
-3.00283855e+106
7.91658813e+105
-7.36344813e+105
-4.14205242e+105
2.97986522e+105
5.90232348e+104
2.59470546e+106
-1.26781381e+105
-3.84611879e+106
7.30752591e+107
1.79343224e+108
3.35473363e+108
-1.57343063e+108
-4.58264084e+107
1.09810466e+108
-9.40666251e+107
-2.44011071e+108
-6.94527406e+108
1.14978747e+109
6.37145128e+108
5.65817844e+107
7.84463806e+107
-4.90579980e+108
-4.83051328e+108
-2.26889523e+108
-1.13466506e+108
-3.93042841e+108
-7.00499646e+107
-4.45998648e+107
1.03575203e+108
-1.25693892e+108
-6.50912803e+108
-2.73095271e+106
2.90674594e+107
-2.35535190e+108
5.59210942e+107
5.20246376e+107
-8.29265594e+106
-8.78524668e+106
1.92615512e+106
-2.37299410e+106
2.41918599e+106
2.51050613e+106
-7.99674382e+105
9.90006209e+106
5.90544105e+106
5.39926947e+106
-3.47604643e+105
-2.26868951e+106
1.13135769e+105
-3.38327709e+105
-1.24128785e+105
-3.21683948e+105
-7.43901664e+104
-1.60724086e+104
-3.12985016e+104
-1.72809568e+105
-6.02244984e+104
3.49944374e+104
5.78884145e+104
6.06093259e+103
1.17681261e+104
-1.02782688e+104
8.50697096e+104
1.02957867e+104
4.10355778e+103
1.05995920e+103
-3.76439761e+102
-1.40278401e+102
-1.93449847e+102
8.88914642e+101
9.23820398e+100
-1.24364576e+101
-2.58041233e+101
-2.39303255e+101
5.94794394e+100
8.65292742e+98
-5.62445827e+99
2.84550680e+99
-3.26668631e+99
2.06858947e+99
1.39785255e+100
8.66191428e+99
1.99718042e+100
1.98269606e+100
8.94044299e+99
-3.60501150e+99
-3.41294790e+98
-4.54306234e+97
1.63681699e+97
-6.35273788e+96
-7.18695111e+95
2.98529942e+95
-3.65356682e+95
1.48666349e+95
-2.45570551e+94
8.16657296e+94
3.30780431e+94
7.09439749e+93
-4.62783135e+93
-5.39271000e+93
4.31259808e+92
-1.21756353e+91
1.34250022e+93
-2.58974658e+92
2.31627635e+92
-1.94219990e+91
-3.77546415e+103
-1.24319006e+104
4.14139271e+104
-1.95502991e+104
-1.56198758e+105
3.43536496e+102
3.46294176e+104
-1.82487675e+105
-5.64143557e+104
-3.78226007e+104
3.80033239e+105
1.20124560e+103
-2.60081518e+105
2.93588612e+105
-4.14306925e+105
6.83155575e+105
-2.14053364e+105
-1.12098704e+104
-1.41017989e+106
5.57144916e+105
-2.04962527e+106
-2.53968722e+106
3.72505987e+106
-2.26586059e+105
2.08391952e+106
-4.87916854e+106
2.97707730e+106
6.23430472e+105
-1.01598992e+106
1.90177202e+106
-2.26594242e+106
-1.26564005e+107
-4.47395794e+108
-2.65660035e+107
3.99774835e+107
-2.69517677e+107
1.48180610e+108
1.52469970e+108
-1.41356328e+108
-7.60240386e+108
-5.16086243e+108
3.99326607e+108
1.54749267e+108
-3.16361568e+109
-5.54043750e+109
-5.83591917e+108
1.23730249e+109
6.91135559e+107
9.05608492e+108
-2.06614229e+108
-9.45796050e+107
-2.26572073e+108
4.04186462e+108
1.70170933e+108
4.99542215e+107
-2.49647845e+107
2.06407456e+107
-7.99595672e+106
-2.26642711e+107
-1.11413289e+107
8.84687798e+106
-9.16411713e+105
-1.68736483e+106
5.97479119e+106
-1.27219232e+107
9.88490770e+106
-1.18343400e+106
-2.48576078e+106
6.66188831e+106
-2.83589231e+105
-7.19379224e+106
-2.51687462e+106
-8.83015010e+104
8.87524893e+105
-8.16430613e+105
1.20263747e+106
-4.65389452e+105
2.50748575e+105
-1.45967454e+104
-1.27889568e+105
-3.17038983e+104
2.31437567e+104
4.42848856e+104
-5.21088104e+104
1.17871713e+103
-3.51760248e+104
5.58720526e+103
1.59562227e+103
-6.92415194e+101
-1.29659237e+102
-9.16276990e+101
1.69123496e+102
7.76431698e+101
2.18403744e+101
8.38513791e+101
3.58781536e+100
-4.10497300e+100
-3.43621994e+100
-4.59819064e+100
-1.94791671e+100
1.76238182e+100
-3.05484912e+100
-2.84979020e+100
-2.11458963e+100
2.96981200e+100
2.35527690e+101
-3.23957247e+99
7.46369902e+99
5.85065626e+98
8.80933629e+97
-2.69441636e+97
1.68350815e+97
1.24807666e+97
1.13170215e+97
1.51894303e+97
3.78487384e+96
2.74487346e+95
-1.59033846e+93
1.01792063e+95
6.44893558e+91
2.70484683e+94
7.16807738e+93
9.18411483e+92
-2.28404047e+93
-4.82850706e+91
-4.61671780e+92
-3.58913650e+92
-3.60104763e+92
1.63973593e+103
1.42312248e+103
1.91158899e+104
-1.49758952e+105
1.25571065e+105
3.87093860e+104
5.26393952e+104
1.27550707e+105
-1.58723650e+105
-3.68785827e+105
1.42434114e+106
5.28557012e+105
-7.05815415e+104
1.52626954e+105
-9.33484111e+105
1.07452403e+106
9.07740938e+105
-3.86400087e+106
6.49174712e+105
2.67964107e+106
2.54358031e+106
2.24489489e+106
-2.03334447e+105
3.84943091e+106
4.32186591e+106
-1.08792563e+106
-3.89424149e+105
1.29027151e+106
-1.01391299e+106
2.29623354e+106
-6.60625098e+106
-2.66402432e+107
9.79241837e+107
2.57602400e+108
7.76134227e+107
-3.36728443e+106
-7.32077502e+107
-5.75728384e+108
-5.41031557e+108
-1.47787659e+110
-1.58766905e+111
-2.87949231e+111
-2.93596696e+111
-3.55556026e+111
-2.95287740e+111
-3.18167632e+110
9.29541282e+109
-1.28924726e+109
-5.13440475e+108
-4.15532907e+108
-3.74591718e+107
9.66369658e+107
-6.33821941e+107
-3.40777324e+108
7.50302556e+107
-2.03314075e+107
-2.28762070e+107
3.35766400e+107
1.61139287e+107
7.72218978e+106
6.97005808e+106
2.06062746e+106
-1.36876225e+106
1.43109658e+107
-2.52537564e+107
6.67659604e+106
1.54386196e+106
-5.33058265e+106
2.53477260e+106
1.71180972e+106
1.51035277e+107
1.69363731e+106
4.03840210e+106
5.69947147e+105
-3.05875849e+106
6.18234275e+106
-3.10317454e+106
7.87447514e+105
1.98494252e+105
2.29516228e+105
-6.64303340e+104
-2.98718656e+104
1.66511769e+104
1.36572027e+103
1.08379668e+104
-8.65659429e+103
1.00862992e+104
4.96884653e+102
-1.56532279e+103
1.17849240e+103
5.98849331e+102
-2.35113397e+102
3.47098570e+102
-9.50717799e+101
-1.11348384e+102
1.75024768e+102
1.42778804e+101
3.66650713e+100
2.69151972e+100
-9.03208325e+98
1.17504847e+101
-5.97676582e+100
6.68184258e+100
3.10736952e+100
-9.50313043e+100
-4.56943864e+101
-1.04821368e+101
2.10180946e+100
1.70494078e+99
-4.78948346e+97
-9.98141895e+97
3.77027078e+97
-2.44413069e+97
-3.18544556e+97
-1.43604916e+97
1.18294451e+97
4.07416309e+96
-1.28602783e+95
-2.13137878e+95
-6.19230806e+94
-3.18782074e+94
1.55513455e+94
8.88909186e+93
4.13848920e+92
2.49033212e+93
8.04461194e+92
-9.97127196e+91
6.00812947e+92
-2.19836836e+103
-1.50468251e+104
-7.45709846e+104
3.39934802e+105
-6.98245933e+104
-6.45155078e+102
-2.36506312e+105
-1.97499012e+104
-1.33531736e+105
-3.58555464e+105
-3.20037186e+106
-9.46996608e+104
-2.93769631e+105
-4.98910464e+105
-7.44834524e+103
6.34870680e+105
1.91218933e+106
-1.96710662e+106
1.00582454e+107
2.54725060e+107
-2.65178324e+107
-2.12779792e+108
-6.20802604e+107
-1.34208981e+108
-2.40968327e+107
-5.70058873e+105
-5.72371369e+104
1.57489517e+106
1.28343270e+106
3.35550717e+106
-1.37354856e+107
2.66894952e+107
-1.72359790e+106
-3.13280095e+107
-1.17984738e+108
-1.69982450e+107
1.48102399e+108
4.12765438e+108
1.76821009e+109
-3.64599657e+111
7.01127851e+111
2.17964314e+112
4.20009878e+111
7.74260277e+111
-2.93877544e+110
-2.24032948e+111
-3.15477834e+110
-1.34738200e+109
9.42985212e+108
8.20401428e+106
4.98702334e+108
-2.32703493e+108
-1.49473143e+108
2.71687059e+108
-6.86671661e+107
1.74906547e+108
2.35422518e+107
3.11215400e+107
-3.66608001e+107
-2.32074980e+107
4.55882737e+106
3.75287274e+106
-1.10449086e+107
4.02187849e+106
5.28248872e+106
1.76731168e+106
-9.06546363e+106
2.18560604e+106
-2.61411447e+106
-2.29740303e+106
-7.20967691e+106
-1.86810574e+106
1.35321615e+106
-2.94009126e+106
8.13539714e+105
-4.55492565e+105
-1.38237755e+106
-1.98368363e+105
1.74430405e+105
1.34125216e+105
2.08313823e+105
2.07470909e+105
2.30817031e+105
-2.19407445e+105
1.59928769e+104
-6.75443189e+104
-9.94876010e+104
-2.71108022e+103
-2.69166343e+103
-1.46188269e+103
2.55663559e+102
-3.12514262e+103
1.51140050e+103
-1.28206563e+102
6.53787241e+101
-3.09720149e+102
3.32834103e+102
6.48837860e+101
-2.18281057e+101
-4.62644085e+101
7.02197526e+100
-4.60359365e+100
-1.11735206e+101
-5.97794484e+101
1.04872641e+101
3.04827265e+101
1.03816818e+101
-2.17007714e+98
1.23694144e+99
1.39716319e+99
-3.67109688e+98
-2.26568331e+98
-1.08528022e+97
7.86449567e+96
-7.57965201e+97
-1.69379325e+97
1.85499900e+97
5.13114557e+95
3.11746769e+95
-5.11589316e+94
-1.75179728e+94
1.66767738e+93
-1.41956914e+94
-4.56973498e+93
1.00281399e+93
1.60836377e+93
-9.70699688e+92
1.29838195e+92
1.36617799e+104
3.54167144e+105
8.31767272e+104
1.33222761e+105
-1.11214840e+106
1.67112553e+105
3.68823085e+105
1.59322437e+106
-6.86232245e+105
1.34831934e+106
7.64169914e+105
-3.40316259e+104
-1.88480200e+106
7.64998736e+105
8.46595259e+105
-4.03678810e+104
-1.32889696e+106
-3.60983027e+105
4.32390803e+107
-1.93871354e+108
9.61568317e+107
1.21176512e+108
1.49131938e+108
1.74591585e+108
-1.66996062e+107
6.63289318e+106
5.42849079e+105
-9.33079199e+106
7.75078174e+106
-4.73392114e+107
-6.90896288e+107
-3.66926467e+105
-3.96771980e+107
2.59999179e+107
3.00183823e+108
1.79189886e+108
-1.02032858e+108
-4.75745050e+108
2.21322007e+110
7.36637029e+110
-5.13876543e+112
6.07811922e+111
-2.90415420e+111
5.13013905e+111
-1.43156710e+112
7.63395243e+111
-1.31221511e+111
-9.26611916e+109
-5.47911309e+108
6.85727030e+108
9.84511788e+107
-4.70641603e+108
1.92172381e+108
-2.37816552e+107
-1.44262924e+108
-3.45924996e+108
3.03512603e+108
-2.04606219e+106
-3.23899565e+107
1.10304859e+108
-2.52971449e+107
3.79431990e+106
-1.02740970e+107
1.12666898e+106
-5.33930497e+106
1.17113857e+105
8.81030919e+106
2.54712742e+106
1.57109741e+107
-6.74186647e+106
-1.71270418e+106
4.72295894e+105
-8.44958537e+104
1.01722064e+106
2.18895776e+106
-7.56947854e+106
-4.25864765e+106
-2.26109145e+106
1.95814941e+105
-1.25202029e+105
-4.52532348e+106
-1.21042572e+106
1.62462952e+106
4.24096646e+104
-8.17637984e+103
2.48079645e+105
-2.52133624e+104
1.27639166e+104
3.46201958e+103
-3.11409690e+103
1.74303807e+103
-1.56972454e+103
1.56778584e+102
-6.62640568e+102
6.85803989e+102
-9.62602023e+101
-1.26231535e+102
5.36369542e+101
3.60910238e+101
5.05027806e+100
-6.13996641e+100
2.46826465e+100
-6.21758530e+101
8.08733611e+101
4.04751530e+101
-3.57978630e+100
-8.15670533e+100
7.14933449e+99
-3.57967505e+99
2.66192013e+99
2.86038921e+99
-1.22895974e+99
-3.01066860e+97
2.66091144e+98
-1.58544108e+97
-1.80063946e+96
1.72694510e+97
6.38366264e+94
-1.88736337e+96
2.38874098e+95
-6.01780020e+94
2.26383788e+94
-7.05169967e+93
-1.59909824e+93
-5.39964930e+92
3.23170520e+92
-2.67095330e+92
-1.65792619e+92
-9.03544536e+104
-3.06963037e+105
-4.58609184e+105
1.18603368e+106
5.94208429e+105
-7.95038111e+105
-3.40721395e+106
2.47284417e+105
1.86951131e+106
-3.79677890e+105
-6.12272198e+105
-2.31591962e+106
2.10773735e+106
2.41378734e+106
4.94786884e+105
2.08102055e+106
2.32978284e+106
-5.18317512e+106
-6.18674304e+106
-1.18398129e+107
1.09388495e+108
2.66468084e+107
-7.80206260e+107
-3.38999740e+107
2.78894213e+107
8.96519651e+107
8.27226213e+107
6.73589684e+107
1.13936235e+108
1.07306720e+108
1.26869426e+108
3.05681738e+107
-4.21223806e+106
5.77698739e+107
-2.09611849e+108
-2.27445636e+109
-3.31514080e+109
2.29443683e+110
1.74090520e+111
8.69879398e+111
3.24977104e+112
-1.60015344e+112
6.61073155e+111
9.18002699e+111
-6.25993814e+111
4.54349412e+111
4.00235590e+110
-4.23635542e+108
-4.99998350e+108
3.63863135e+108
-6.33949517e+108
5.88786801e+108
-1.64403200e+108
7.68031209e+107
1.18021320e+108
-4.62224980e+108
1.06748739e+108
5.24770501e+107
3.21537573e+107
6.72893585e+107
4.25782670e+107
8.01677368e+107
4.96138605e+106
-8.66079859e+105
-9.68012974e+106
-6.11772769e+107
5.40986849e+107
-5.74059943e+107
1.08232024e+108
-5.21626421e+107
4.72699932e+106
-6.50059362e+106
6.59991233e+105
3.95569728e+105
3.22122943e+106
7.29865874e+106
8.26406904e+106
-3.61273720e+106
6.03515090e+105
7.61201871e+104
-2.70896924e+106
1.15752389e+107
-2.82641845e+106
-6.03863368e+105
1.29229381e+105
6.89989775e+105
-8.54373770e+104
-1.34975447e+104
7.71580482e+103
-1.82566893e+103
-2.19364355e+102
-1.86792660e+103
1.04676774e+103
-4.23552907e+103
-3.35643571e+102
-1.11038097e+103
-3.96923872e+102
-2.33396999e+102
5.19006764e+101
3.60510801e+101
-1.53837448e+101
3.44685230e+101
-7.91276652e+100
2.74640197e+101
-9.44697506e+101
4.87616752e+101
-9.63371720e+100
-3.85286019e+100
-2.20866421e+100
5.15477020e+99
-5.36838816e+97
1.99011872e+99
-2.08167911e+99
-2.38470720e+95
-3.97635602e+97
-6.65130891e+97
-1.85721363e+96
8.83331645e+94
6.37466648e+95
8.70706208e+95
5.40157641e+94
7.40830131e+94
-3.69861904e+93
-3.21996922e+93
2.26102549e+93
3.71183090e+92
-5.44073475e+92
-4.53544319e+92
-3.10761663e+105
5.23771037e+105
8.63198334e+104
9.81694485e+105
3.26563484e+105
-7.00328967e+106
-6.25986748e+106
6.73377860e+106
-6.19299216e+106
7.47682671e+106
2.67959923e+107
-2.23047337e+107
3.33386831e+106
-3.62210447e+106
-3.48603930e+106
-1.06201662e+107
1.43564348e+107
8.19361483e+106
2.06548531e+107
-5.16509907e+107
-3.12622563e+107
4.82186432e+107
-1.25129585e+107
-7.54892922e+107
7.58566161e+107
-1.07372784e+108
-1.79805673e+108
-1.06253309e+108
-1.14798142e+108
-1.35572328e+108
-2.75327325e+108
-1.06364389e+108
-9.13943921e+107
1.24858808e+108
-4.80848322e+108
-2.11991056e+110
-5.19638474e+111
-7.88343546e+111
-3.32071379e+111
-5.11552057e+110
8.04595182e+111
-6.69359858e+111
-1.77050918e+112
-4.22555886e+111
-6.16663114e+110
6.85142354e+111
-8.81369837e+109
-1.28328576e+109
1.61883476e+109
5.00554867e+108
3.85912866e+108
3.57689329e+108
-1.31188606e+109
-3.56421998e+109
2.92313352e+108
4.85131023e+107
7.95011808e+107
1.18121834e+108
-5.55811918e+107
-7.10405124e+107
-1.09533117e+108
-3.26184821e+107
-3.85196281e+106
3.33832952e+107
2.04243374e+108
2.39120905e+108
4.23970462e+108
2.83974359e+108
3.80531063e+108
4.22657061e+107
4.36686677e+107
-3.12132041e+107
1.66056742e+106
2.68645015e+106
-1.76951189e+106
-1.08173189e+107
-5.69745769e+105
1.38982838e+106
1.04061690e+106
-1.96631513e+106
1.27369982e+106
-5.71711534e+105
-4.63371478e+106
2.01844011e+105
-1.67496888e+106
3.56335684e+104
-2.04747634e+105
2.89218170e+104
5.56297921e+103
-1.13174687e+104
-1.69385749e+103
-8.23607498e+102
1.69660769e+103
5.27363399e+103
2.00988193e+103
2.52725335e+103
-8.79486601e+102
5.26399784e+100
4.10375268e+102
-1.24190239e+102
-6.84922214e+101
2.40439872e+101
-1.61062931e+101
1.04212841e+102
9.02586881e+100
8.56060867e+101
-5.09243417e+101
2.28156497e+100
1.18526387e+100
7.48195107e+99
-4.13249098e+99
3.56505976e+99
-1.94430287e+99
-3.35771256e+98
-6.40233760e+97
6.41663141e+97
1.14661681e+97
5.35346053e+96
1.36015256e+96
-4.17503698e+95
1.83760484e+95
7.26077328e+94
-6.88374444e+94
-4.11485170e+94
9.71623520e+93
2.74085041e+93
-7.51511670e+92
7.54029557e+91
1.32159141e+105
9.57242991e+105
1.58755243e+106
-3.58679261e+106
5.07724436e+105
2.55531495e+107
-2.39560592e+107
3.70412018e+107
-1.35322847e+107
-1.05707597e+108
3.89586003e+107
-3.34434082e+107
3.06084218e+107
4.83639865e+106
-2.31531943e+107
2.40944023e+107
5.60844634e+104
-2.07749851e+107
-2.78081300e+107
5.05739417e+107
-6.42633828e+107
-1.68043058e+108
-4.54151524e+108
6.30465255e+107
6.37196414e+108
4.86816263e+107
1.84438696e+108
-2.79978775e+107
4.66340072e+107
-4.81724984e+108
8.15063531e+107
7.73914144e+108
1.87417098e+108
1.29311149e+109
-2.32945904e+109
-2.78439012e+110
5.30597784e+110
2.10581272e+112
1.58370825e+111
3.29333637e+111
-8.99481001e+111
9.67761566e+111
1.53056700e+111
-9.72050449e+111
2.58951140e+112
-2.94144653e+111
2.77847550e+110
2.57527658e+109
-7.48213947e+109
-1.95651119e+108
-1.79373534e+108
-6.05307448e+108
1.15429432e+110
-1.76671554e+109
-6.03279465e+108
3.17869548e+107
-3.24838850e+109
-9.14860134e+108
-1.69323788e+108
-3.50816859e+108
1.38315460e+107
6.35442068e+107
-1.20993144e+108
2.96890545e+108
-5.17527444e+108
-1.39760987e+109
-4.08163886e+108
-2.34422132e+108
-3.75431919e+108
1.70177774e+108
3.90432763e+107
-2.41389379e+107
-5.65647537e+106
3.98162311e+106
1.93645743e+107
1.55009816e+107
8.53217285e+106
3.55421861e+106
-6.26086554e+106
-6.97528408e+106
-8.24271126e+106
-2.52324367e+106
4.83077801e+106
5.77842281e+106
1.77820540e+106
1.91341293e+106
-7.61832833e+105
8.08512403e+104
-1.66330759e+105
2.40489960e+103
-1.11710868e+104
1.82392095e+104
-9.70614035e+102
-1.10297941e+103
-4.82236916e+103
3.38772075e+103
-6.57024954e+103
3.12658019e+103
1.51774437e+102
-9.81236284e+101
8.04116805e+101
-1.14392904e+102
-2.90290506e+101
-6.06941054e+100
4.06567147e+101
-4.44214582e+101
-1.14177799e+101
-7.07272372e+100
-2.44178610e+100
2.64635834e+98
4.97337668e+98
2.15698068e+99
-2.69764233e+99
1.33784665e+98
4.12729595e+97
4.68017161e+97
-3.86067706e+96
-1.06304875e+97
7.00932676e+96
9.56730009e+94
-7.77450416e+94
3.21782707e+95
3.29861435e+95
5.76100861e+94
5.84174151e+92
-1.94060751e+93
-5.40020352e+92
3.64472541e+92
1.40274673e+106
-4.06447789e+106
-1.27308270e+105
4.30957075e+106
2.13863890e+107
-2.48420265e+106
-1.06896593e+107
1.16772108e+107
5.64355645e+107
-1.06031334e+107
6.45845259e+107
-6.19872782e+107
-5.56277912e+107
8.07647078e+107
2.97365754e+107
-7.49681843e+106
1.86438045e+107
1.03253329e+107
2.25911407e+107
-1.85828454e+108
1.18343906e+108
8.67983342e+108
1.15737779e+109
6.25283727e+108
-4.54155646e+108
-3.68453112e+108
-1.97968831e+108
-1.42363078e+108
1.38496500e+108
-2.36802333e+108
1.12244069e+110
9.75238181e+109
-3.14130771e+109
1.57930452e+107
-1.61591365e+109
-1.52120605e+110
8.73635025e+110
-4.11508557e+111
-1.03611234e+112
3.55032884e+111
1.70950575e+112
-9.64128924e+110
-3.23973159e+111
4.34759346e+111
-2.64286210e+112
-1.82395782e+111
3.18885021e+110
3.78518160e+109
1.93646383e+108
-3.31011960e+109
-4.54721743e+109
-4.99828634e+109
-5.75610370e+109
-2.03508553e+109
-6.64409580e+109
1.29352412e+109
7.04788393e+109
1.74440803e+109
4.18889791e+107
7.62440152e+107
-2.79152849e+107
-6.24474256e+107
1.61150783e+107
7.12364924e+108
1.89800014e+109
2.58493192e+108
2.47661600e+109
9.01910946e+108
-6.61121303e+107
-5.26413081e+107
1.79999406e+108
-2.15335903e+107
1.05212296e+107
-2.28234209e+107
-2.20265563e+107
-2.39148764e+107
9.67281430e+106
-2.13770803e+106
6.71769755e+106
9.90421777e+106
3.10935692e+106
4.44390784e+107
-1.72335580e+106
2.88859311e+107
-1.07709564e+107
4.17947996e+106
-2.75063716e+105
-1.11367937e+106
-9.44379669e+105
-3.71361453e+105
-1.25211154e+104
2.00255286e+103
-8.39282498e+103
9.02365901e+103
-2.70640265e+102
9.06798285e+103
-1.65441656e+104
9.05979106e+103
2.80965251e+102
-3.69774391e+102
1.86753254e+102
-1.09490351e+101
-8.93195080e+100
-1.33131341e+102
-4.31154068e+100
7.56592253e+100
-6.12621322e+100
1.46456834e+100
-7.12525922e+99
7.20155104e+99
5.69510220e+97
6.97073260e+98
-2.79438437e+98
1.73856503e+98
4.16201169e+98
-1.50071430e+99
-1.86599321e+99
-3.26844206e+96
-1.05118007e+96
-2.83639081e+95
-3.02430930e+95
-5.96990684e+95
-2.69264589e+95
4.41402860e+94
3.20271937e+94
2.34761833e+93
-1.01947478e+93
2.41272529e+93
3.87543947e+108
2.57156449e+108
3.24199774e+108
-1.87565115e+107
-3.47982113e+107
-4.81635247e+106
4.12941438e+107
-1.01827419e+108
-3.00785146e+107
-1.32202761e+108
3.45804431e+107
4.14705618e+107
-2.77559679e+108
3.81269307e+108
-2.11119822e+108
3.43521565e+107
1.91263826e+108
-2.11542059e+107
-1.23171905e+108
4.74347981e+107
-4.26417716e+108
-5.27454634e+108
1.75467781e+108
-3.05777802e+108
-5.41590596e+107
1.43832946e+109
1.39388289e+109
6.82170291e+107
-8.18059223e+108
-3.74854107e+108
-3.84291829e+109
-4.41792797e+110
-6.75640927e+109
-5.34311369e+109
-8.12652969e+109
3.30046014e+110
-1.85014832e+111
-1.48428512e+111
4.26189740e+110
-5.88984104e+111
2.07757314e+111
2.52043155e+111
-5.89588434e+110
1.61699940e+112
3.58878088e+111
-2.39824906e+111
-1.10458032e+110
-9.77804787e+109
1.69449255e+109
6.25128789e+109
6.41399555e+109
3.05708860e+109
5.36005125e+109
5.95980021e+109
1.37066799e+110
-7.81462316e+109
-4.65720429e+109
-3.42635018e+109
1.60918338e+109
-5.66875895e+108
2.07153802e+108
-1.45902808e+109
-8.57597904e+107
1.20305070e+109
-3.03309725e+109
-3.49054996e+107
-4.86876518e+109
-1.48898222e+109
7.23347243e+108
1.58139287e+108
-1.20568226e+108
-8.75093751e+106
-3.65613794e+107
-7.40640196e+107
3.57815627e+107
-1.12124231e+107
9.06947654e+106
-2.98589604e+106
-2.88301330e+107
1.87191999e+107
-2.63501911e+107
-7.19257112e+107
-4.20142233e+107
1.04014186e+108
-4.76555916e+107
-2.38722290e+107
1.94671425e+106
5.27548081e+106
-1.31231970e+106
-7.60372123e+105
-1.36811049e+105
-2.69510634e+104
3.46325849e+104
2.34920810e+102
-2.47962097e+103
3.65803464e+102
-5.19712354e+103
2.04802046e+103
-3.38293971e+102
-2.27438271e+102
1.38961610e+101
-2.29754849e+102
-1.31027683e+103
-1.05630152e+103
-1.23298862e+103
-1.09787759e+102
-3.68055479e+101
-1.47653353e+101
-2.46800089e+100
6.93633298e+99
4.12600205e+99
5.65196921e+98
1.19839364e+98
-1.88895251e+98
-1.52784956e+98
6.20831321e+99
-5.82480993e+97
-2.32066174e+96
-5.43403948e+95
2.96167310e+95
2.08226300e+95
1.54021501e+95
2.75895285e+95
-1.40209771e+95
6.81186308e+94
-7.10719971e+92
3.09308772e+91
-7.78418429e+92
-3.64175620e+108
-5.63672489e+108
-2.10862277e+108
-3.45992407e+106
-7.16608689e+107
-2.03405279e+108
3.00464706e+108
-3.29895428e+107
3.09242514e+107
-2.58837577e+107
1.56862709e+108
1.53864661e+108
1.79214889e+108
3.04185741e+108
4.80780778e+108
9.80557592e+108
3.09231757e+108
-1.35503332e+109
2.76744426e+109
-3.75112356e+108
4.15642793e+108
6.35206465e+108
-1.78195158e+108
-8.70723529e+108
4.13716879e+108
-2.65527712e+109
1.02308220e+109
1.11151444e+109
-6.61534346e+108
1.37898063e+109
-6.40862165e+109
1.87765555e+110
2.24790214e+110
1.36859090e+110
2.90151252e+108
-5.05527401e+109
-1.42135561e+110
1.98424150e+111
-3.91559135e+111
4.98697297e+111
-6.02432997e+111
3.76694185e+111
-1.68185274e+112
4.60035294e+111
-7.80104311e+110
2.63708843e+110
4.07085331e+110
1.04913849e+110
1.16143684e+110
2.37035370e+109
3.43169689e+110
-9.25423516e+109
4.59264185e+110
9.71028160e+109
-1.14409048e+110
2.50300732e+109
-1.20357987e+109
1.41667883e+109
6.81882896e+108
-7.80255584e+107
-3.91868341e+108
-5.81558107e+108
4.03831171e+109
-2.26287185e+109
-1.14698739e+108
1.75006805e+109
8.34961963e+109
8.04328147e+108
-9.48089913e+108
-1.85987213e+108
1.76715064e+108
6.36248761e+107
-1.17943973e+108
2.60953293e+108
2.76711219e+107
-3.55997923e+107
-3.61489743e+107
-1.38965760e+108
-7.48076550e+107
7.08767276e+106
1.05283893e+108
-5.55153893e+107
-7.69451918e+107
-6.86201176e+107
1.56488647e+108
-7.81222050e+107
-3.70153535e+107
-1.62757572e+107
-2.89592337e+106
3.00195538e+106
1.42960599e+105
-2.43554370e+105
2.84958666e+104
-5.99261042e+103
8.52439233e+102
-2.31966410e+103
-6.20146280e+104
-2.27174836e+105
-5.06674433e+104
-1.36210366e+102
3.48574657e+102
-5.15334532e+102
1.61562224e+103
2.00745531e+103
1.03700004e+103
-7.48962542e+100
6.57699664e+101
-2.49336383e+101
4.32203960e+100
1.01894380e+100
3.33283670e+99
-9.17147283e+98
8.12282533e+98
-9.10641261e+96
-1.75351526e+99
-1.53484744e+99
3.44000630e+98
-9.58275181e+96
-1.90587079e+96
8.28329864e+95
-2.09319321e+96
-6.91099059e+95
1.99401802e+95
-2.30380246e+95
4.21140672e+93
7.91958566e+93
1.21195916e+93
6.91756613e+92
-9.00027734e+107
3.66812713e+108
3.15335027e+108
1.83951318e+108
1.12454802e+109
5.76237527e+107
9.53290457e+107
7.88938774e+107
-1.20438755e+108
1.27975478e+108
-4.44367161e+107
-3.82522856e+107
-5.85793530e+108
3.13811961e+108
-2.11292390e+108
-6.90073439e+108
2.89671798e+109
-8.53225087e+109
3.17293816e+109
1.19988489e+109
-7.79454150e+108
6.32540567e+109
6.17723663e+109
-3.99169271e+108
5.51862194e+109
-1.01815478e+110
-1.13155666e+110
3.78797967e+110
6.92136653e+110
-4.73251458e+109
7.13442314e+109
5.56568478e+109
1.03645808e+111
5.88442968e+109
3.10553658e+109
5.63112507e+110
-1.37853888e+111
4.36015475e+109
-2.37650233e+111
4.88669156e+110
1.57662786e+111