# vtk DataFile Version 2.0
LBM Flow Field - Timestep 550
ASCII
DATASET STRUCTURED_POINTS
DIMENSIONS 128 128 1
ORIGIN 0.0 0.0 0.0
SPACING 1.0 1.0 1.0
POINT_DATA 16384
SCALARS density double 1
LOOKUP_TABLE default
1.31870669e+00
1.30471642e+00
1.28792190e+00
1.27152557e+00
1.25505047e+00
1.23926805e+00
1.22337164e+00
1.20842225e+00
1.19333669e+00
1.17940116e+00
1.16532182e+00
1.15253651e+00
1.13961493e+00
1.12806883e+00
1.11640880e+00
1.10614386e+00
1.09580061e+00
1.08681505e+00
1.07779729e+00
1.07005129e+00
1.06232587e+00
1.05574873e+00
1.04924721e+00
1.04374539e+00
1.03837187e+00
1.03383708e+00
1.02947656e+00
1.02579321e+00
1.02231988e+00
1.01937151e+00
1.01665632e+00
1.01433065e+00
1.01224784e+00
1.01044047e+00
1.00887259e+00
1.00748931e+00
1.00633085e+00
1.00528884e+00
1.00444832e+00
1.00367637e+00
1.00307710e+00
1.00251523e+00
1.00209493e+00
1.00169361e+00
1.00140326e+00
1.00112232e+00
1.00092448e+00
1.00073197e+00
1.00059880e+00
1.00046983e+00
1.00038119e+00
1.00029680e+00
1.00023840e+00
1.00018452e+00
1.00014645e+00
1.00011288e+00
1.00008835e+00
1.00006792e+00
1.00005233e+00
1.00004019e+00
1.00003045e+00
1.00002336e+00
1.00001740e+00
1.00001334e+00
1.00000977e+00
1.00000747e+00
1.00000540e+00
1.00000410e+00
1.00000293e+00
1.00000221e+00
1.00000157e+00
1.00000116e+00
1.00000082e+00
1.00000060e+00
1.00000042e+00
1.00000030e+00
1.00000022e+00
1.00000015e+00
1.00000011e+00
1.00000007e+00
1.00000005e+00
1.00000003e+00
1.00000002e+00
1.00000002e+00
1.00000001e+00
1.00000001e+00
1.00000001e+00
1.00000000e+00
1.00000000e+00
1.00000000e+00
1.00000000e+00
1.00000000e+00
1.00000000e+00
1.00000000e+00
1.00000000e+00
1.00000000e+00
1.00000000e+00
1.00000000e+00
1.00000000e+00
1.00000000e+00
1.00000000e+00
1.00000000e+00
1.00000000e+00
1.00000000e+00
1.00000000e+00
1.00000000e+00
1.00000000e+00
1.00000000e+00
1.00000000e+00
1.00000000e+00
1.00000000e+00
1.00000000e+00
1.00000000e+00
1.00000000e+00
1.00000000e+00
1.00000000e+00
1.00000000e+00
1.00000000e+00
1.00000000e+00
1.00000000e+00
1.00000000e+00
1.00000000e+00
1.00000000e+00
1.00000000e+00
1.00000000e+00
1.00000000e+00
1.00000000e+00
1.00000000e+00
1.11563432e+00
1.09151984e+00
1.07370683e+00
1.07184729e+00
1.06640845e+00
1.05984478e+00
1.05237735e+00
1.04669052e+00
1.04909341e+00
1.04712742e+00
1.03809238e+00
1.04067833e+00
1.04128570e+00
1.04097709e+00
1.04035401e+00
1.04312126e+00
1.04170966e+00
1.04120448e+00
1.04525101e+00
1.04232236e+00
1.03947280e+00
1.04404898e+00
1.04179400e+00
1.03764125e+00
1.04118579e+00
1.04254761e+00
1.04257713e+00
1.04075898e+00
1.03803734e+00
1.03490886e+00
1.04178247e+00
1.05013731e+00
1.05375198e+00
1.05619933e+00
1.05509750e+00
1.04494959e+00
1.03539918e+00
1.03873850e+00
1.05299590e+00
1.05376245e+00
1.04402082e+00
1.03413369e+00
1.03934997e+00
1.04746429e+00
1.05169417e+00
1.04557418e+00
1.04056973e+00
1.04332213e+00
1.04624206e+00
1.04121988e+00
1.03982486e+00
1.04192448e+00
1.04313597e+00
1.04242924e+00
1.04139781e+00
1.04218769e+00
1.04405402e+00
1.04027236e+00
1.04118567e+00
1.03987370e+00
1.04082562e+00
1.04150543e+00
1.03983438e+00
1.04230681e+00
1.03871828e+00
1.04152963e+00
1.04256286e+00
1.03815920e+00
1.03928800e+00
1.03965290e+00
1.03880535e+00
1.03937832e+00
1.04042189e+00
1.03856605e+00
1.03714629e+00
1.04010728e+00
1.03819116e+00
1.03669320e+00
1.03807978e+00
1.03762835e+00
1.03702870e+00
1.03738944e+00
1.03697456e+00
1.03709468e+00
1.03458045e+00
1.03771359e+00
1.03698194e+00
1.03524277e+00
1.03719267e+00
1.03545786e+00
1.03516390e+00
1.03648105e+00
1.03585203e+00
1.03418437e+00
1.03472602e+00
1.03579687e+00
1.03448878e+00
1.03305270e+00
1.03381190e+00
1.03321412e+00
1.03236097e+00
1.03550404e+00
1.03337930e+00
1.03281774e+00
1.03368203e+00
1.03359265e+00
1.03430997e+00
1.03056960e+00
1.03189004e+00
1.03247478e+00
1.03058251e+00
1.03161086e+00
1.03169520e+00
1.02969194e+00
1.03041244e+00
1.03185899e+00
1.02999163e+00
1.03173834e+00
1.02986097e+00
1.03056697e+00
1.02929130e+00
1.02935876e+00
1.02969401e+00
1.02857184e+00
1.02753818e+00
1.02913014e+00
1.02842769e+00
1.02859378e+00
1.09101900e+00
1.09016624e+00
1.08467733e+00
1.06938076e+00
1.06096114e+00
1.06073900e+00
1.05706096e+00
1.04834106e+00
1.04559790e+00
1.04624857e+00
1.04345720e+00
1.04220279e+00
1.04227150e+00
1.04268637e+00
1.04044710e+00
1.04002426e+00
1.04259576e+00
1.04046589e+00
1.03962462e+00
1.04485913e+00
1.04374513e+00
1.04060353e+00
1.04180389e+00
1.04208234e+00
1.03885385e+00
1.04017605e+00
1.04319090e+00
1.04103742e+00
1.03771880e+00
1.03473893e+00
1.03787995e+00
1.04489263e+00
1.05151176e+00
1.05118188e+00
1.04700199e+00
1.04289958e+00
1.04369162e+00
1.04753090e+00
1.04857178e+00
1.04279799e+00
1.04120010e+00
1.04379790e+00
1.04783055e+00
1.04230721e+00
1.04087170e+00
1.04538274e+00
1.04637981e+00
1.04361975e+00
1.04401932e+00
1.04128722e+00
1.04308369e+00
1.04505251e+00
1.04138510e+00
1.04033559e+00
1.04168947e+00
1.03901499e+00
1.04243792e+00
1.04253048e+00
1.04052342e+00
1.04393851e+00
1.03965223e+00
1.04031034e+00
1.04056965e+00
1.04028454e+00
1.04211576e+00
1.03738378e+00
1.04259251e+00
1.04205778e+00
1.03952252e+00
1.03981809e+00
1.03933034e+00
1.03671960e+00
1.03847639e+00
1.04184405e+00
1.03632133e+00
1.03790098e+00
1.03890349e+00
1.03912195e+00
1.03815652e+00
1.03639628e+00
1.03719766e+00
1.03659591e+00
1.03699982e+00
1.03919083e+00
1.03573720e+00
1.03733551e+00
1.03826826e+00
1.03566427e+00
1.03597408e+00
1.03507170e+00
1.03471693e+00
1.03598444e+00
1.03647894e+00
1.03662847e+00
1.03504815e+00
1.03456842e+00
1.03317241e+00
1.03371490e+00
1.03415953e+00
1.03298075e+00
1.03194166e+00
1.03437058e+00
1.03474938e+00
1.03345563e+00
1.03294082e+00
1.03082589e+00
1.03307914e+00
1.03203728e+00
1.03284627e+00
1.03287958e+00
1.02951029e+00
1.03199758e+00
1.03292007e+00
1.03084076e+00
1.03001488e+00
1.03135090e+00
1.02949250e+00
1.03104658e+00
1.02759987e+00
1.03090615e+00
1.03109538e+00
1.02986228e+00
1.02826568e+00
1.02886893e+00
1.02861524e+00
1.02845458e+00
1.02644196e+00
1.02836995e+00
1.07913359e+00
1.08817696e+00
1.08184835e+00
1.06415474e+00
1.06300978e+00
1.06189334e+00
1.05106860e+00
1.04383141e+00
1.05093406e+00
1.05091429e+00
1.04063157e+00
1.03498573e+00
1.04433911e+00
1.04775044e+00
1.03859806e+00
1.03647615e+00
1.04309947e+00
1.04347310e+00
1.04039830e+00
1.03976359e+00
1.04524965e+00
1.04493717e+00
1.03968885e+00
1.03960111e+00
1.04202574e+00
1.04282553e+00
1.03935616e+00
1.04032724e+00
1.04047676e+00
1.03947245e+00
1.04007127e+00
1.04521460e+00
1.04610312e+00
1.04690959e+00
1.04287484e+00
1.04540946e+00
1.05052091e+00
1.04541103e+00
1.03951701e+00
1.04556428e+00
1.04890482e+00
1.04360445e+00
1.03964513e+00
1.04076112e+00
1.04631081e+00
1.04768963e+00
1.04189383e+00
1.03919760e+00
1.04532232e+00
1.04666154e+00
1.04303007e+00
1.04232730e+00
1.04020715e+00
1.04085017e+00
1.04410422e+00
1.03863813e+00
1.03660293e+00
1.04303896e+00
1.04207442e+00
1.04178620e+00
1.04041850e+00
1.04049596e+00
1.04077404e+00
1.03899416e+00
1.04021476e+00
1.04162567e+00
1.03875648e+00
1.04194513e+00
1.03876757e+00
1.03921876e+00
1.04250724e+00
1.04044576e+00
1.03567606e+00
1.03875234e+00
1.03981934e+00
1.03949033e+00
1.03673048e+00
1.03727509e+00
1.03890282e+00
1.03545422e+00
1.03999341e+00
1.03893009e+00
1.03553094e+00
1.03722546e+00
1.03617145e+00
1.03677171e+00
1.03696505e+00
1.03575715e+00
1.03678228e+00
1.03485830e+00
1.03704872e+00
1.03528291e+00
1.03330452e+00
1.03524339e+00
1.03719704e+00
1.03635541e+00
1.03324854e+00
1.03404145e+00
1.03550787e+00
1.03211041e+00
1.03303925e+00
1.03608804e+00
1.03394518e+00
1.03209872e+00
1.03374515e+00
1.03222551e+00
1.03256849e+00
1.03037298e+00
1.03143253e+00
1.03357692e+00
1.03145641e+00
1.03361891e+00
1.03256915e+00
1.03114421e+00
1.02965126e+00
1.03175030e+00
1.02889470e+00
1.03131281e+00
1.02740720e+00
1.02953230e+00
1.03041391e+00
1.03066564e+00
1.02951166e+00
1.02757466e+00
1.03037906e+00
1.03038108e+00
1.02552087e+00
1.02619366e+00
1.07926105e+00
1.07568477e+00
1.06801833e+00
1.06789202e+00
1.06879569e+00
1.05709417e+00
1.05501205e+00
1.05587302e+00
1.04862246e+00
1.04529854e+00
1.04609355e+00
1.03666954e+00
1.04140543e+00
1.04887118e+00
1.04082343e+00
1.03722366e+00
1.04397872e+00
1.04300679e+00
1.04152015e+00
1.04169090e+00
1.04617898e+00
1.04477772e+00
1.04081298e+00
1.03991126e+00
1.03883089e+00
1.03863418e+00
1.04174175e+00
1.04178165e+00
1.04457834e+00
1.04418036e+00
1.04497875e+00
1.04481559e+00
1.04095516e+00
1.04457829e+00
1.04792365e+00
1.04593752e+00
1.04436826e+00
1.04513230e+00
1.04757601e+00
1.04974990e+00
1.04090055e+00
1.03866947e+00
1.04389125e+00
1.04666960e+00
1.04584323e+00
1.04243679e+00
1.04067017e+00
1.04437738e+00
1.04654474e+00
1.04170620e+00
1.03843264e+00
1.04473715e+00
1.04664555e+00
1.04115847e+00
1.03882617e+00
1.03996026e+00
1.04006941e+00
1.04293139e+00
1.04247517e+00
1.03762592e+00
1.04054546e+00
1.04201021e+00
1.04171707e+00
1.04203515e+00
1.03722475e+00
1.04377378e+00
1.03790835e+00
1.04071078e+00
1.04166872e+00
1.04016519e+00
1.03764053e+00
1.03903787e+00
1.03942265e+00
1.03915086e+00
1.03777436e+00
1.03896002e+00
1.03642712e+00
1.03817268e+00
1.04116627e+00
1.03457204e+00
1.03603772e+00
1.03921693e+00
1.03724501e+00
1.03590631e+00
1.03450609e+00
1.03571558e+00
1.03597277e+00
1.03532327e+00
1.03806545e+00
1.03350326e+00
1.03642920e+00
1.03581308e+00
1.03510147e+00
1.03562463e+00
1.03408200e+00
1.03327595e+00
1.03346828e+00
1.03706503e+00
1.03708416e+00
1.03196625e+00
1.03233463e+00
1.03639441e+00
1.03437950e+00
1.03238585e+00
1.03376209e+00
1.03035306e+00
1.03151473e+00
1.03158526e+00
1.03293875e+00
1.03248139e+00
1.03007655e+00
1.03249044e+00
1.03177788e+00
1.03024738e+00
1.03057538e+00
1.03151607e+00
1.03079188e+00
1.03021971e+00
1.02828107e+00
1.02979099e+00
1.02909360e+00
1.02861896e+00
1.03009528e+00
1.02752650e+00
1.02940489e+00
1.03011716e+00
1.02631065e+00
1.02563609e+00
1.07789607e+00
1.06816355e+00
1.06956133e+00
1.06306883e+00
1.05734298e+00
1.06672954e+00
1.06878229e+00
1.04904938e+00
1.04299988e+00
1.04890417e+00
1.04876526e+00
1.04623594e+00
1.04149088e+00
1.04199239e+00
1.04425820e+00
1.04209886e+00
1.04149854e+00
1.03945836e+00
1.04491621e+00
1.04464029e+00
1.04503462e+00
1.04636527e+00
1.04332548e+00
1.03777438e+00
1.03758258e+00
1.04149788e+00
1.04059977e+00
1.04283434e+00
1.04789832e+00
1.04411969e+00
1.04666613e+00
1.04611499e+00
1.04102009e+00
1.04198165e+00
1.04584003e+00
1.04422796e+00
1.04779910e+00
1.04790692e+00
1.04737154e+00
1.04447298e+00
1.04124873e+00
1.04244046e+00
1.04639812e+00
1.04321085e+00
1.04349237e+00
1.04663344e+00
1.04563578e+00
1.04128171e+00
1.04141709e+00
1.04142335e+00
1.04392517e+00
1.04326828e+00
1.03990824e+00
1.04003093e+00
1.04340128e+00
1.04346131e+00
1.04184543e+00
1.03807178e+00
1.03784635e+00
1.04181306e+00
1.04207820e+00
1.04273744e+00
1.03889853e+00
1.04268177e+00
1.04130532e+00
1.04118037e+00
1.04071455e+00
1.03700759e+00
1.03721363e+00
1.04247355e+00
1.04070734e+00
1.03710180e+00
1.03670057e+00
1.03885597e+00
1.03556548e+00
1.03995706e+00
1.03809510e+00
1.03680717e+00
1.03719866e+00
1.03731154e+00
1.03868893e+00
1.03895866e+00
1.03527282e+00
1.03543609e+00
1.03435839e+00
1.03912365e+00
1.03589478e+00
1.03289238e+00
1.03757994e+00
1.03682112e+00
1.03761342e+00
1.03459039e+00
1.03275035e+00
1.03478943e+00
1.03432299e+00
1.03614617e+00
1.03403432e+00
1.03427989e+00
1.03529123e+00
1.03176101e+00
1.03431303e+00
1.03691149e+00
1.03091645e+00
1.03080018e+00
1.03554760e+00
1.03330552e+00
1.03298009e+00
1.03115900e+00
1.03373969e+00
1.03150742e+00
1.03057844e+00
1.03163732e+00
1.03054140e+00
1.02785899e+00
1.03035227e+00
1.03206646e+00
1.03246587e+00
1.02912930e+00
1.02792216e+00
1.03156338e+00
1.02974459e+00
1.02750104e+00
1.02907025e+00
1.02805951e+00
1.02961448e+00
1.02871269e+00
1.02581516e+00
1.02859982e+00
1.06045003e+00
1.07174366e+00
1.07602668e+00
1.06097881e+00
1.05845057e+00
1.06751195e+00
1.06104870e+00
1.05131744e+00
1.05390954e+00
1.05721202e+00
1.04747050e+00
1.04294084e+00
1.04704663e+00
1.04904167e+00
1.04073579e+00
1.04187816e+00
1.04675964e+00
1.04336137e+00
1.04193266e+00
1.04245323e+00
1.04717487e+00
1.04500430e+00
1.04526736e+00
1.04323446e+00
1.04067332e+00
1.04285011e+00
1.03938660e+00
1.04257694e+00
1.04685147e+00
1.04514856e+00
1.04522936e+00
1.04805498e+00
1.04348327e+00
1.04379344e+00
1.04217698e+00
1.04214022e+00
1.04839080e+00
1.04869887e+00
1.04442615e+00
1.04218421e+00
1.04393568e+00
1.04351184e+00
1.04577956e+00
1.04209158e+00
1.04117356e+00
1.04603180e+00
1.04764717e+00
1.04237345e+00
1.04490598e+00
1.04115981e+00
1.04093109e+00
1.04083298e+00
1.04204769e+00
1.04229573e+00
1.04375535e+00
1.03717413e+00
1.04035884e+00
1.04442433e+00
1.04029756e+00
1.04135377e+00
1.03727236e+00
1.04158213e+00
1.04130655e+00
1.04209138e+00
1.04310335e+00
1.03702747e+00
1.04128035e+00
1.04247265e+00
1.03879349e+00
1.03828887e+00
1.03798580e+00
1.03699289e+00
1.03779004e+00
1.04235340e+00
1.03707144e+00
1.03675605e+00
1.03785508e+00
1.04023871e+00
1.03779912e+00
1.03545757e+00
1.03598697e+00
1.03680115e+00
1.03560848e+00
1.04013526e+00
1.03551601e+00
1.03611230e+00
1.03561337e+00
1.03621509e+00
1.03726822e+00
1.03364512e+00
1.03458742e+00
1.03467525e+00
1.03448894e+00
1.03714511e+00
1.03179149e+00
1.03264020e+00
1.03425057e+00
1.03561875e+00
1.03510231e+00
1.03139601e+00
1.03128975e+00
1.03370981e+00
1.03133400e+00
1.03286698e+00
1.03554884e+00
1.03126600e+00
1.03335459e+00
1.03320522e+00
1.03315627e+00
1.03118672e+00
1.03025186e+00
1.03205771e+00
1.03008078e+00
1.03112007e+00
1.02928545e+00
1.02972514e+00
1.03093984e+00
1.03142530e+00
1.02864573e+00
1.03093461e+00
1.02823175e+00
1.02846706e+00
1.02767653e+00
1.02637093e+00
1.03078415e+00
1.03047862e+00
1.02595192e+00
1.02741293e+00
1.05534833e+00
1.07034082e+00
1.06742240e+00
1.06607240e+00
1.06372532e+00
1.05629371e+00
1.05867229e+00
1.06447248e+00
1.05463525e+00
1.05021353e+00
1.05529426e+00
1.05162431e+00
1.04275811e+00
1.04716659e+00
1.04740642e+00
1.04727788e+00
1.04496890e+00
1.04715625e+00
1.04029121e+00
1.04281790e+00
1.05204263e+00
1.04246654e+00
1.04496563e+00
1.04551743e+00
1.04255991e+00
1.04579191e+00
1.04602117e+00
1.04382742e+00
1.04407009e+00
1.04423958e+00
1.04552418e+00
1.04907163e+00
1.04401864e+00
1.04310206e+00
1.04386248e+00
1.04510829e+00
1.04618214e+00
1.04490999e+00
1.04066323e+00
1.04722870e+00
1.04823541e+00
1.04343499e+00
1.03911624e+00
1.04166095e+00
1.04381921e+00
1.04602249e+00
1.04437181e+00
1.04216299e+00
1.04397346e+00
1.04350767e+00
1.04329640e+00
1.04476142e+00
1.04000469e+00
1.03635418e+00
1.04062679e+00
1.04342368e+00
1.04059576e+00
1.04071053e+00
1.03991653e+00
1.04135320e+00
1.04305514e+00
1.04023403e+00
1.03721051e+00
1.03686368e+00
1.04306081e+00
1.04552450e+00
1.03891789e+00
1.03835533e+00
1.03800902e+00
1.03859157e+00
1.04017059e+00
1.04096612e+00
1.03580584e+00
1.03696312e+00
1.03827392e+00
1.04122770e+00
1.03889150e+00
1.03616076e+00
1.03621814e+00
1.03696090e+00
1.03971335e+00
1.03923879e+00
1.03273379e+00
1.03709630e+00
1.03805158e+00
1.03963675e+00
1.03591653e+00
1.03445510e+00
1.03658401e+00
1.03478423e+00
1.03724682e+00
1.03632432e+00
1.03152930e+00
1.03534244e+00
1.03513190e+00
1.03832513e+00
1.03481027e+00
1.03229096e+00
1.03276199e+00
1.03421656e+00
1.03605884e+00
1.03561175e+00
1.03005551e+00
1.03106422e+00
1.03535445e+00
1.03408071e+00
1.03338172e+00
1.03209387e+00
1.03088178e+00
1.03184116e+00
1.03156942e+00
1.03356407e+00
1.02756246e+00
1.03164389e+00
1.03035927e+00
1.03059065e+00
1.02861033e+00
1.03108565e+00
1.02978702e+00
1.03258904e+00
1.02651211e+00
1.02884438e+00
1.03019129e+00
1.02549407e+00
1.02804489e+00
1.03027788e+00
1.02791912e+00
1.02767947e+00
1.06236480e+00
1.05958526e+00
1.06519897e+00
1.07589591e+00
1.05827717e+00
1.04930834e+00
1.05966492e+00
1.06350365e+00
1.05745095e+00
1.05678352e+00
1.05364625e+00
1.04926934e+00
1.04824927e+00
1.05174082e+00
1.05381660e+00
1.04781156e+00
1.04395376e+00
1.05167151e+00
1.04422610e+00
1.04927699e+00
1.04608648e+00
1.04272044e+00
1.05038707e+00
1.04751485e+00
1.04586197e+00
1.04317987e+00
1.04375938e+00
1.04999256e+00
1.05117098e+00
1.04439498e+00
1.04342344e+00
1.04870907e+00
1.04617967e+00
1.04442244e+00
1.04700586e+00
1.04300659e+00
1.04261961e+00
1.04519648e+00
1.04621405e+00
1.04898751e+00
1.04283981e+00
1.03976043e+00
1.04364680e+00
1.04690655e+00
1.04189042e+00
1.04101716e+00
1.04368196e+00
1.04570764e+00
1.04476592e+00
1.04297854e+00
1.04080286e+00
1.04200643e+00
1.04134250e+00
1.04358451e+00
1.03812937e+00
1.03957073e+00
1.03966544e+00
1.04126832e+00
1.04622691e+00
1.04127019e+00
1.03998004e+00
1.03863095e+00
1.04170158e+00
1.04272556e+00
1.03829499e+00
1.04008703e+00
1.03781928e+00
1.04087466e+00
1.04323139e+00
1.03859190e+00
1.03438096e+00
1.03795836e+00
1.04087085e+00
1.04086986e+00
1.03597849e+00
1.03665239e+00
1.03681207e+00
1.03581741e+00
1.03988058e+00
1.03596701e+00
1.03371844e+00
1.03756677e+00
1.03809512e+00
1.03831211e+00
1.03504512e+00
1.03571040e+00
1.03483439e+00
1.03573103e+00
1.03889022e+00
1.03363373e+00
1.03434147e+00
1.03661703e+00
1.03721992e+00
1.03783238e+00
1.03123394e+00
1.03467679e+00
1.03534809e+00
1.03504303e+00
1.03415715e+00
1.03394867e+00
1.03242799e+00
1.03382800e+00
1.03194355e+00
1.03419461e+00
1.03274685e+00
1.02945482e+00
1.03078284e+00
1.03304384e+00
1.03308019e+00
1.03246976e+00
1.03050717e+00
1.03435707e+00
1.02968976e+00
1.03273519e+00
1.02978930e+00
1.02895559e+00
1.02931626e+00
1.03004056e+00
1.02900373e+00
1.03216370e+00
1.02675124e+00
1.02753235e+00
1.03138386e+00
1.02768922e+00
1.02708249e+00
1.02742653e+00
1.02888160e+00
1.03104477e+00
1.06190311e+00
1.06632708e+00
1.07455602e+00
1.06238534e+00
1.04869794e+00
1.06164286e+00
1.06469782e+00
1.05560250e+00
1.05478271e+00
1.05969322e+00
1.05348679e+00
1.04900626e+00
1.05169156e+00
1.05658208e+00
1.05006440e+00
1.04580240e+00
1.05946920e+00
1.04894948e+00
1.03784868e+00
1.05074841e+00
1.04679191e+00
1.05114436e+00
1.05232608e+00
1.04430186e+00
1.04395407e+00
1.04921861e+00
1.04592325e+00
1.04523398e+00
1.04768082e+00
1.04845293e+00
1.04858825e+00
1.04785532e+00
1.04435028e+00
1.04389120e+00
1.04523598e+00
1.04465810e+00
1.04750590e+00
1.05006129e+00
1.04416990e+00
1.04220210e+00
1.04205010e+00
1.04423011e+00
1.04480958e+00
1.04201231e+00
1.04015152e+00
1.04669328e+00
1.04840994e+00
1.04253594e+00
1.04237204e+00
1.04108141e+00
1.04309275e+00
1.04273943e+00
1.03984949e+00
1.04300058e+00
1.04024981e+00
1.03954736e+00
1.04353884e+00
1.03850074e+00
1.03870616e+00
1.04159771e+00
1.04203605e+00
1.04329845e+00
1.03987595e+00
1.03965879e+00
1.04164503e+00
1.03858805e+00
1.04257090e+00
1.03863367e+00
1.03699701e+00
1.03773937e+00
1.04233330e+00
1.03731216e+00
1.03622618e+00
1.03856481e+00
1.03779411e+00
1.04030729e+00
1.04045234e+00
1.03296208e+00
1.03555205e+00
1.03844406e+00
1.03821090e+00
1.03543103e+00
1.03366162e+00
1.03537164e+00
1.03415705e+00
1.03719999e+00
1.03570854e+00
1.03323590e+00
1.03540141e+00
1.03430375e+00
1.03773420e+00
1.03683436e+00
1.03215557e+00
1.03434318e+00
1.03233505e+00
1.03915519e+00
1.03591829e+00
1.03147338e+00
1.03242932e+00
1.03516789e+00
1.03425272e+00
1.03398438e+00
1.03259724e+00
1.03312120e+00
1.03371927e+00
1.03205103e+00
1.03215590e+00
1.03086244e+00
1.03038886e+00
1.03271074e+00
1.03350866e+00
1.03434687e+00
1.02935765e+00
1.03230608e+00
1.03124730e+00
1.02779000e+00
1.02984406e+00
1.02982266e+00
1.02795775e+00
1.03117946e+00
1.02894849e+00
1.02834855e+00
1.03066306e+00
1.02662069e+00
1.02832041e+00
1.02644671e+00
1.02445632e+00
1.02750897e+00
1.04882322e+00
1.06460876e+00
1.07782631e+00
1.06003052e+00
1.05190944e+00
1.06498231e+00
1.06158210e+00
1.05498030e+00
1.05692566e+00
1.05923106e+00
1.05579955e+00
1.05005055e+00
1.04768547e+00
1.05755059e+00
1.04973104e+00
1.05128491e+00
1.05764118e+00
1.04288261e+00
1.04530328e+00
1.05259890e+00
1.04297882e+00
1.04624283e+00
1.05357144e+00
1.05231441e+00
1.04379136e+00
1.04325815e+00
1.04462140e+00
1.04663209e+00
1.05106665e+00
1.05101743e+00
1.04487413e+00
1.04540736e+00
1.04524054e+00
1.04396448e+00
1.04486343e+00
1.04264693e+00
1.04775489e+00
1.05097329e+00
1.04409863e+00
1.04503718e+00
1.04672336e+00
1.04272374e+00
1.03814707e+00
1.04348040e+00
1.04542568e+00
1.04614826e+00
1.04338593e+00
1.04246185e+00
1.04599380e+00
1.04231368e+00
1.03933089e+00
1.04211946e+00
1.03981133e+00
1.04352838e+00
1.04261917e+00
1.03730819e+00
1.04012989e+00
1.04105143e+00
1.03879875e+00
1.04393012e+00
1.03707372e+00
1.03927483e+00
1.04111960e+00
1.04062494e+00
1.04372640e+00
1.03589072e+00
1.03776711e+00
1.04118847e+00
1.04117282e+00
1.03502954e+00
1.03767363e+00
1.03636286e+00
1.03732410e+00
1.04231352e+00
1.03928976e+00
1.03682909e+00
1.03630987e+00
1.03668874e+00
1.03886189e+00
1.03714306e+00
1.03622120e+00
1.03665406e+00
1.03625149e+00
1.04033358e+00
1.03455999e+00
1.03408757e+00
1.03394962e+00
1.03806289e+00
1.03692537e+00
1.03157010e+00
1.03447113e+00
1.03561405e+00
1.03419581e+00
1.03628590e+00
1.03063049e+00
1.03309337e+00
1.03276485e+00
1.03287560e+00
1.03628043e+00
1.03350247e+00
1.03133002e+00
1.03039996e+00
1.03595140e+00
1.03546562e+00
1.03286779e+00
1.02904404e+00
1.03276488e+00
1.03244438e+00
1.03211866e+00
1.03056577e+00
1.03073127e+00
1.03158798e+00
1.02775761e+00
1.03341938e+00
1.03245514e+00
1.02742818e+00
1.02910471e+00
1.03120670e+00
1.02881093e+00
1.03015146e+00
1.02669943e+00
1.02954954e+00
1.03256278e+00
1.02667149e+00
1.02821926e+00
1.02878775e+00
1.02648907e+00
1.02588114e+00
1.05754453e+00
1.07039911e+00
1.06276547e+00
1.05647519e+00
1.06024760e+00
1.06436699e+00
1.06033676e+00
1.05916014e+00
1.05527604e+00
1.05587962e+00
1.05913875e+00
1.05499968e+00
1.04948171e+00
1.05076085e+00
1.05246744e+00
1.05847607e+00
1.04927000e+00
1.04764615e+00
1.04910748e+00
1.04612847e+00
1.04786620e+00
1.05201542e+00
1.05062968e+00
1.05101888e+00
1.04347302e+00
1.04388842e+00
1.05100250e+00
1.04511139e+00
1.04543944e+00
1.04993000e+00
1.05015162e+00
1.05000882e+00
1.04177605e+00
1.04134418e+00
1.04740425e+00
1.04389532e+00
1.04601964e+00
1.04715142e+00
1.04685055e+00
1.04881484e+00
1.04577480e+00
1.03912764e+00
1.04008296e+00
1.04583247e+00
1.04644919e+00
1.04352643e+00
1.04388833e+00
1.04390676e+00
1.04532959e+00
1.04279970e+00
1.03920790e+00
1.04210273e+00
1.04109638e+00
1.04103435e+00
1.04016736e+00
1.04069062e+00
1.03982076e+00
1.04214173e+00
1.03966024e+00
1.03974234e+00
1.03875914e+00
1.04104582e+00
1.04355808e+00
1.03773309e+00
1.03938405e+00
1.04329113e+00
1.03792706e+00
1.03709120e+00
1.03744057e+00
1.03642801e+00
1.04123915e+00
1.04301299e+00
1.03581091e+00
1.03454113e+00
1.03582652e+00
1.03990778e+00
1.03748914e+00
1.03434771e+00
1.03800347e+00
1.03679335e+00
1.03802142e+00
1.03983559e+00
1.03413561e+00
1.03517939e+00
1.03546709e+00
1.03932629e+00
1.03674477e+00
1.03636343e+00
1.03678857e+00
1.03182493e+00
1.03924735e+00
1.03569767e+00
1.03114925e+00
1.03228281e+00
1.03391402e+00
1.03770334e+00
1.03458582e+00
1.03075500e+00
1.03389806e+00
1.03308776e+00
1.03510515e+00
1.03327750e+00
1.03377559e+00
1.03108014e+00
1.03127752e+00
1.03249468e+00
1.03515488e+00
1.03160411e+00
1.03173046e+00
1.03220847e+00
1.03065380e+00
1.03327531e+00
1.02781434e+00
1.02995347e+00
1.03053771e+00
1.03017101e+00
1.03178528e+00
1.02984763e+00
1.02700692e+00
1.03336432e+00
1.02894504e+00
1.02733305e+00
1.02999849e+00
1.02683265e+00
1.02753776e+00
1.02789567e+00
1.02786707e+00
1.02868207e+00
1.06857822e+00
1.07115047e+00
1.05473728e+00
1.05552848e+00
1.06548489e+00
1.06636294e+00
1.05797824e+00
1.05496275e+00
1.05479730e+00
1.06288633e+00
1.05415844e+00
1.04710038e+00
1.05642672e+00
1.05769610e+00
1.05074912e+00
1.05327832e+00
1.05096624e+00
1.05091624e+00
1.04889371e+00
1.05015796e+00
1.04892465e+00
1.04845481e+00
1.05078303e+00
1.05182816e+00
1.04671142e+00
1.04884583e+00
1.04415294e+00
1.04070309e+00
1.04974214e+00
1.05250572e+00
1.04978429e+00
1.04714573e+00
1.04389346e+00
1.04317434e+00
1.04668440e+00
1.04313944e+00
1.04499963e+00
1.04857407e+00
1.04665291e+00
1.04189139e+00
1.03949723e+00
1.04497871e+00
1.04835928e+00
1.04268831e+00
1.03877327e+00
1.04293081e+00
1.04777669e+00
1.04582083e+00
1.04171421e+00
1.04093231e+00
1.04329371e+00
1.04121370e+00
1.04146294e+00
1.04177843e+00
1.03665877e+00
1.03972850e+00
1.04251861e+00
1.03995895e+00
1.04045713e+00
1.04060930e+00
1.04042274e+00
1.03795400e+00
1.04002426e+00
1.04074282e+00
1.03752540e+00
1.04027993e+00
1.03912996e+00
1.03771351e+00
1.03954183e+00
1.03990279e+00
1.03796570e+00
1.03577854e+00
1.03635873e+00
1.03873774e+00
1.03575875e+00
1.03593563e+00
1.03780266e+00
1.03490319e+00
1.03985329e+00
1.03588515e+00
1.03243738e+00
1.03434117e+00
1.03946655e+00
1.03867625e+00
1.03459298e+00
1.03478447e+00
1.03550366e+00
1.03457624e+00
1.03863170e+00
1.03316534e+00
1.03732994e+00
1.03368259e+00
1.03601909e+00
1.03838265e+00
1.03341091e+00
1.03302755e+00
1.03217412e+00
1.03449567e+00
1.03714881e+00
1.03459601e+00
1.03120425e+00
1.03112613e+00
1.03291968e+00
1.03372197e+00
1.03120587e+00
1.03187462e+00
1.03319060e+00
1.03150454e+00
1.03342868e+00
1.03206179e+00
1.02883777e+00
1.03097841e+00
1.02989888e+00
1.03298352e+00
1.03046639e+00
1.02741879e+00
1.03207031e+00
1.03058264e+00
1.02500016e+00
1.03024198e+00
1.03030242e+00
1.02787158e+00
1.02769785e+00
1.02596765e+00
1.03095986e+00
1.02789145e+00
1.02700800e+00
1.02783226e+00
1.06677176e+00
1.06581277e+00
1.06453794e+00
1.05541977e+00
1.05787516e+00
1.06710895e+00
1.06070155e+00
1.04978993e+00
1.05167353e+00
1.06346208e+00
1.05548768e+00
1.04983645e+00
1.06007960e+00
1.05656529e+00
1.04356093e+00
1.05508262e+00
1.06066792e+00
1.04290030e+00
1.04803809e+00
1.05833911e+00
1.04232190e+00
1.04555482e+00
1.05962891e+00
1.05106595e+00
1.04398456e+00
1.05257434e+00
1.04511148e+00
1.04330233e+00
1.05254257e+00
1.05007009e+00
1.04749416e+00
1.05034167e+00
1.04635554e+00
1.04305239e+00
1.04850678e+00
1.04621122e+00
1.04693935e+00
1.04837925e+00
1.04241085e+00
1.04235814e+00
1.04603421e+00
1.04525417e+00
1.04069469e+00
1.04041437e+00
1.04281821e+00
1.04872968e+00
1.04588926e+00
1.04108086e+00
1.04184106e+00
1.04352808e+00
1.04562134e+00
1.03916769e+00
1.03680365e+00
1.04242023e+00
1.04039131e+00
1.04059607e+00
1.04165428e+00
1.03683943e+00
1.03872621e+00
1.04558669e+00
1.03735923e+00
1.03975492e+00
1.03722308e+00
1.04262650e+00
1.04056960e+00
1.03591536e+00
1.04002411e+00
1.03949039e+00
1.03643352e+00
1.03706984e+00
1.03974650e+00
1.03751800e+00
1.03631445e+00
1.03892418e+00
1.03601835e+00
1.03655765e+00
1.04026062e+00
1.03667372e+00
1.03527846e+00
1.03490762e+00
1.03735588e+00
1.03687846e+00
1.03472475e+00
1.03444396e+00
1.03495216e+00
1.03770700e+00
1.03593513e+00
1.03371068e+00
1.03516984e+00
1.03178760e+00
1.03831783e+00
1.03444882e+00
1.03143690e+00
1.03441488e+00
1.03382173e+00
1.03793386e+00
1.03436115e+00
1.03268062e+00
1.03239148e+00
1.03252939e+00
1.03319289e+00
1.03393297e+00
1.03331082e+00
1.03154913e+00
1.03069259e+00
1.03449426e+00
1.03581032e+00
1.02902829e+00
1.03017644e+00
1.03128750e+00
1.03124538e+00
1.03487453e+00
1.02897884e+00
1.03079352e+00
1.03075089e+00
1.02923329e+00
1.03269688e+00
1.03164756e+00
1.02648541e+00
1.02920828e+00
1.02934888e+00
1.02934424e+00
1.03074357e+00
1.02359467e+00
1.02929264e+00
1.02865628e+00
1.02813455e+00
1.02708468e+00
1.05884948e+00
1.05637167e+00
1.06318092e+00
1.05889098e+00
1.06155097e+00
1.05852248e+00
1.05151827e+00
1.05686076e+00
1.06360185e+00
1.05701203e+00
1.05003375e+00
1.05696566e+00
1.06062182e+00
1.04988097e+00
1.04792239e+00
1.06079923e+00
1.05718973e+00
1.04304109e+00
1.05245298e+00
1.05273289e+00
1.04206896e+00
1.05258572e+00
1.06076819e+00
1.04627635e+00
1.04158220e+00
1.05183413e+00
1.04703886e+00
1.04644289e+00
1.05194365e+00
1.05039838e+00
1.04942067e+00
1.04812196e+00
1.04326391e+00
1.04494273e+00
1.04803521e+00
1.04502635e+00
1.04667086e+00
1.05084955e+00
1.04502778e+00
1.04706352e+00
1.04524605e+00
1.03848204e+00
1.03713408e+00
1.04495811e+00
1.04482303e+00
1.04426733e+00
1.04238929e+00
1.04553240e+00
1.04769069e+00
1.03908487e+00
1.03989177e+00
1.04163731e+00
1.03861612e+00
1.04149052e+00
1.03956263e+00
1.03713308e+00
1.04028016e+00
1.04165732e+00
1.03782674e+00
1.04025275e+00
1.03451777e+00
1.04418775e+00
1.04094347e+00
1.03657220e+00
1.03979295e+00
1.03807905e+00
1.04043914e+00
1.04060083e+00
1.03735585e+00
1.03470234e+00
1.03683154e+00
1.03857376e+00
1.03671658e+00
1.03961565e+00
1.03792967e+00
1.03696392e+00
1.03636399e+00
1.03745290e+00
1.03754988e+00
1.03678597e+00
1.03675604e+00
1.03857684e+00
1.03401980e+00
1.03646376e+00
1.03557619e+00
1.03732866e+00
1.03412505e+00
1.03535153e+00
1.03758133e+00
1.03231229e+00
1.03561538e+00
1.03400123e+00
1.03332089e+00
1.03898155e+00
1.03284898e+00
1.03348706e+00
1.03136170e+00
1.03401833e+00
1.03607190e+00
1.03403373e+00
1.03402257e+00
1.03271997e+00
1.03218789e+00
1.03217389e+00
1.03271831e+00
1.03264412e+00
1.03292961e+00
1.02887253e+00
1.03266592e+00
1.03064225e+00
1.02868829e+00
1.03464373e+00
1.02955697e+00
1.03111442e+00
1.03032163e+00
1.02810716e+00
1.02958573e+00
1.02829040e+00
1.02668961e+00
1.03082562e+00
1.02819869e+00
1.02621044e+00
1.02972556e+00
1.02677784e+00
1.02698721e+00
1.02575597e+00
1.02675236e+00
1.02843211e+00
1.05616030e+00
1.06535374e+00
1.05435041e+00
1.05334760e+00
1.06653465e+00
1.05905009e+00
1.04870216e+00
1.05827791e+00
1.06691823e+00
1.05802675e+00
1.04981894e+00
1.05853319e+00
1.05723129e+00
1.04552079e+00
1.05354568e+00
1.06293632e+00
1.05062729e+00
1.04734856e+00
1.05384476e+00
1.04840874e+00
1.04881158e+00
1.05644846e+00
1.05213266e+00
1.04074501e+00
1.04974014e+00
1.05227686e+00
1.04226724e+00
1.04837339e+00
1.05311662e+00
1.05039562e+00
1.04666041e+00
1.04731502e+00
1.04644320e+00
1.04232304e+00
1.04607880e+00
1.04573989e+00
1.04638744e+00
1.05140527e+00
1.04901041e+00
1.04656667e+00
1.04215435e+00
1.03882388e+00
1.04243591e+00
1.04517652e+00
1.04182658e+00
1.04267599e+00
1.04453974e+00
1.04661159e+00
1.04460813e+00
1.03837232e+00
1.04113610e+00
1.04224354e+00
1.03902870e+00
1.04109732e+00
1.04032938e+00
1.03956304e+00
1.03821384e+00
1.03636343e+00
1.03854862e+00
1.04157193e+00
1.04062231e+00
1.03901665e+00
1.04103804e+00
1.03651497e+00
1.03999169e+00