# vtk DataFile Version 2.0
LBM Flow Field - Timestep 2660
ASCII
DATASET STRUCTURED_POINTS
DIMENSIONS 128 128 1
ORIGIN 0.0 0.0 0.0
SPACING 1.0 1.0 1.0
POINT_DATA 16384
SCALARS density double 1
LOOKUP_TABLE default
1.00398548e+00
1.00397623e+00
1.00396371e+00
1.00395474e+00
1.00394187e+00
1.00392480e+00
1.00390537e+00
1.00388362e+00
1.00385914e+00
1.00383226e+00
1.00380328e+00
1.00377227e+00
1.00373933e+00
1.00370465e+00
1.00366836e+00
1.00363058e+00
1.00359145e+00
1.00355110e+00
1.00350963e+00
1.00346716e+00
1.00342378e+00
1.00337956e+00
1.00333459e+00
1.00328892e+00
1.00324258e+00
1.00319561e+00
1.00314802e+00
1.00309981e+00
1.00305098e+00
1.00300149e+00
1.00295132e+00
1.00290041e+00
1.00284871e+00
1.00279616e+00
1.00274269e+00
1.00268821e+00
1.00263264e+00
1.00257590e+00
1.00251790e+00
1.00245855e+00
1.00239778e+00
1.00233549e+00
1.00227162e+00
1.00220610e+00
1.00213886e+00
1.00206986e+00
1.00199906e+00
1.00192644e+00
1.00185200e+00
1.00177574e+00
1.00169768e+00
1.00161787e+00
1.00153637e+00
1.00145325e+00
1.00136861e+00
1.00128256e+00
1.00119523e+00
1.00110675e+00
1.00101727e+00
1.00092696e+00
1.00083599e+00
1.00074454e+00
1.00065278e+00
1.00056090e+00
1.00046908e+00
1.00037750e+00
1.00028632e+00
1.00019573e+00
1.00010586e+00
1.00001687e+00
9.99928873e-01
9.99841999e-01
9.99756343e-01
9.99671991e-01
9.99589009e-01
9.99507449e-01
9.99427346e-01
9.99348720e-01
9.99271573e-01
9.99195896e-01
9.99121666e-01
9.99048846e-01
9.98977390e-01
9.98907243e-01
9.98838344e-01
9.98770625e-01
9.98704014e-01
9.98638438e-01
9.98573824e-01
9.98510101e-01
9.98447201e-01
9.98385061e-01
9.98323625e-01
9.98262846e-01
9.98202685e-01
9.98143114e-01
9.98084117e-01
9.98025689e-01
9.97967838e-01
9.97910587e-01
9.97853967e-01
9.97798026e-01
9.97742823e-01
9.97688427e-01
9.97634920e-01
9.97582391e-01
9.97530940e-01
9.97480672e-01
9.97431699e-01
9.97384138e-01
9.97338107e-01
9.97293727e-01
9.97251118e-01
9.97210401e-01
9.97171691e-01
9.97135101e-01
9.97100739e-01
9.97068720e-01
9.97039133e-01
9.97012049e-01
9.96987630e-01
9.96966076e-01
9.96947267e-01
9.96931227e-01
9.96918816e-01
9.96910015e-01
9.96901468e-01
9.96895952e-01
1.00397609e+00
1.00397130e+00
1.00396093e+00
1.00395073e+00
1.00393745e+00
1.00392110e+00
1.00390191e+00
1.00388023e+00
1.00385602e+00
1.00382948e+00
1.00380072e+00
1.00376993e+00
1.00373723e+00
1.00370278e+00
1.00366670e+00
1.00362914e+00
1.00359021e+00
1.00355005e+00
1.00350877e+00
1.00346648e+00
1.00342326e+00
1.00337920e+00
1.00333437e+00
1.00328882e+00
1.00324259e+00
1.00319572e+00
1.00314821e+00
1.00310008e+00
1.00305130e+00
1.00300186e+00
1.00295172e+00
1.00290083e+00
1.00284914e+00
1.00279659e+00
1.00274310e+00
1.00268860e+00
1.00263300e+00
1.00257623e+00
1.00251819e+00
1.00245881e+00
1.00239799e+00
1.00233566e+00
1.00227175e+00
1.00220619e+00
1.00213892e+00
1.00206989e+00
1.00199907e+00
1.00192644e+00
1.00185199e+00
1.00177573e+00
1.00169769e+00
1.00161790e+00
1.00153643e+00
1.00145336e+00
1.00136877e+00
1.00128278e+00
1.00119551e+00
1.00110710e+00
1.00101770e+00
1.00092747e+00
1.00083658e+00
1.00074520e+00
1.00065352e+00
1.00056172e+00
1.00046997e+00
1.00037845e+00
1.00028734e+00
1.00019679e+00
1.00010695e+00
1.00001798e+00
9.99930004e-01
9.99843130e-01
9.99757461e-01
9.99673081e-01
9.99590058e-01
9.99508445e-01
9.99428276e-01
9.99349572e-01
9.99272338e-01
9.99196564e-01
9.99122228e-01
9.99049297e-01
9.98977724e-01
9.98907459e-01
9.98838440e-01
9.98770601e-01
9.98703874e-01
9.98638186e-01
9.98573468e-01
9.98509649e-01
9.98446663e-01
9.98384449e-01
9.98322952e-01
9.98262126e-01
9.98201933e-01
9.98142346e-01
9.98083349e-01
9.98024937e-01
9.97967118e-01
9.97909914e-01
9.97853357e-01
9.97797493e-01
9.97742379e-01
9.97688085e-01
9.97634689e-01
9.97582281e-01
9.97530958e-01
9.97480825e-01
9.97431992e-01
9.97384574e-01
9.97338689e-01
9.97294457e-01
9.97251997e-01
9.97211430e-01
9.97172869e-01
9.97136433e-01
9.97102228e-01
9.97070363e-01
9.97040931e-01
9.97014058e-01
9.96989836e-01
9.96968373e-01
9.96949705e-01
9.96934029e-01
9.96921496e-01
9.96911983e-01
9.96904292e-01
9.96900867e-01
1.00396614e+00
1.00396377e+00
1.00395914e+00
1.00394737e+00
1.00393314e+00
1.00391755e+00
1.00389885e+00
1.00387718e+00
1.00385319e+00
1.00382695e+00
1.00379843e+00
1.00376785e+00
1.00373539e+00
1.00370117e+00
1.00366531e+00
1.00362796e+00
1.00358926e+00
1.00354930e+00
1.00350823e+00
1.00346612e+00
1.00342309e+00
1.00337920e+00
1.00333452e+00
1.00328912e+00
1.00324304e+00
1.00319629e+00
1.00314889e+00
1.00310086e+00
1.00305216e+00
1.00300279e+00
1.00295271e+00
1.00290187e+00
1.00285022e+00
1.00279768e+00
1.00274421e+00
1.00268971e+00
1.00263411e+00
1.00257732e+00
1.00251927e+00
1.00245986e+00
1.00239901e+00
1.00233666e+00
1.00227271e+00
1.00220712e+00
1.00213981e+00
1.00207076e+00
1.00199992e+00
1.00192726e+00
1.00185280e+00
1.00177653e+00
1.00169848e+00
1.00161870e+00
1.00153724e+00
1.00145417e+00
1.00136961e+00
1.00128364e+00
1.00119640e+00
1.00110802e+00
1.00101865e+00
1.00092846e+00
1.00083760e+00
1.00074626e+00
1.00065462e+00
1.00056284e+00
1.00047111e+00
1.00037961e+00
1.00028850e+00
1.00019795e+00
1.00010811e+00
1.00001912e+00
9.99931110e-01
9.99844192e-01
9.99758467e-01
9.99674019e-01
9.99590917e-01
9.99509213e-01
9.99428942e-01
9.99350126e-01
9.99272770e-01
9.99196867e-01
9.99122395e-01
9.99049322e-01
9.98977606e-01
9.98907194e-01
9.98838029e-01
9.98770047e-01
9.98703180e-01
9.98637360e-01
9.98572516e-01
9.98508581e-01
9.98445491e-01
9.98383186e-01
9.98321613e-01
9.98260726e-01
9.98200488e-01
9.98140873e-01
9.98081865e-01
9.98023459e-01
9.97965664e-01
9.97908499e-01
9.97851997e-01
9.97796202e-01
9.97741172e-01
9.97686972e-01
9.97633682e-01
9.97581389e-01
9.97530189e-01
9.97480185e-01
9.97431486e-01
9.97384206e-01
9.97338461e-01
9.97294370e-01
9.97252053e-01
9.97211627e-01
9.97173209e-01
9.97136915e-01
9.97102854e-01
9.97071127e-01
9.97041846e-01
9.97015142e-01
9.96991064e-01
9.96969670e-01
9.96951252e-01
9.96935893e-01
9.96922874e-01
9.96912656e-01
9.96907610e-01
9.96905297e-01
1.00396440e+00
1.00396119e+00
1.00395435e+00
1.00394346e+00
1.00393057e+00
1.00391466e+00
1.00389584e+00
1.00387456e+00
1.00385087e+00
1.00382477e+00
1.00379648e+00
1.00376616e+00
1.00373393e+00
1.00369993e+00
1.00366430e+00
1.00362718e+00
1.00358869e+00
1.00354895e+00
1.00350808e+00
1.00346617e+00
1.00342333e+00
1.00337963e+00
1.00333513e+00
1.00328989e+00
1.00324395e+00
1.00319734e+00
1.00315007e+00
1.00310215e+00
1.00305356e+00
1.00300428e+00
1.00295427e+00
1.00290349e+00
1.00285189e+00
1.00279940e+00
1.00274595e+00
1.00269147e+00
1.00263587e+00
1.00257909e+00
1.00252102e+00
1.00246160e+00
1.00240074e+00
1.00233835e+00
1.00227438e+00
1.00220876e+00
1.00214142e+00
1.00207233e+00
1.00200146e+00
1.00192878e+00
1.00185429e+00
1.00177799e+00
1.00169993e+00
1.00162012e+00
1.00153865e+00
1.00145558e+00
1.00137100e+00
1.00128504e+00
1.00119780e+00
1.00110942e+00
1.00102006e+00
1.00092987e+00
1.00083902e+00
1.00074768e+00
1.00065603e+00
1.00056425e+00
1.00047251e+00
1.00038099e+00
1.00028986e+00
1.00019927e+00
1.00010938e+00
1.00002034e+00
9.99932256e-01
9.99845259e-01
9.99759443e-01
9.99674893e-01
9.99591676e-01
9.99509845e-01
9.99429438e-01
9.99350475e-01
9.99272964e-01
9.99196897e-01
9.99122256e-01
9.99049009e-01
9.98977115e-01
9.98906525e-01
9.98837183e-01
9.98769026e-01
9.98701989e-01
9.98636005e-01
9.98571007e-01
9.98506928e-01
9.98443706e-01
9.98381283e-01
9.98319607e-01
9.98258633e-01
9.98198325e-01
9.98138659e-01
9.98079617e-01
9.98021197e-01
9.97963405e-01
9.97906262e-01
9.97849799e-01
9.97794059e-01
9.97739099e-01
9.97684984e-01
9.97631791e-01
9.97579606e-01
9.97528524e-01
9.97478646e-01
9.97430079e-01
9.97382936e-01
9.97337333e-01
9.97293386e-01
9.97251214e-01
9.97210934e-01
9.97172664e-01
9.97136513e-01
9.97102597e-01
9.97071022e-01
9.97041886e-01
9.97015296e-01
9.96991377e-01
9.96970171e-01
9.96951720e-01
9.96936237e-01
9.96923792e-01
9.96913890e-01
9.96907515e-01
9.96904760e-01
1.00396265e+00
1.00395831e+00
1.00395047e+00
1.00394097e+00
1.00392822e+00
1.00391187e+00
1.00389334e+00
1.00387245e+00
1.00384889e+00
1.00382297e+00
1.00379494e+00
1.00376486e+00
1.00373285e+00
1.00369908e+00
1.00366369e+00
1.00362680e+00
1.00358854e+00
1.00354903e+00
1.00350837e+00
1.00346668e+00
1.00342404e+00
1.00338053e+00
1.00333621e+00
1.00329115e+00
1.00324537e+00
1.00319891e+00
1.00315178e+00
1.00310399e+00
1.00305551e+00
1.00300632e+00
1.00295640e+00
1.00290569e+00
1.00285415e+00
1.00280170e+00
1.00274829e+00
1.00269383e+00
1.00263825e+00
1.00258147e+00
1.00252340e+00
1.00246396e+00
1.00240307e+00
1.00234066e+00
1.00227665e+00
1.00221099e+00
1.00214362e+00
1.00207449e+00
1.00200358e+00
1.00193086e+00
1.00185633e+00
1.00177999e+00
1.00170189e+00
1.00162206e+00
1.00154056e+00
1.00145746e+00
1.00137286e+00
1.00128687e+00
1.00119962e+00
1.00111123e+00
1.00102185e+00
1.00093164e+00
1.00084078e+00
1.00074942e+00
1.00065775e+00
1.00056594e+00
1.00047416e+00
1.00038260e+00
1.00029142e+00
1.00020077e+00
1.00011081e+00
1.00002168e+00
9.99933505e-01
9.99846399e-01
9.99760461e-01
9.99675776e-01
9.99592412e-01
9.99510421e-01
9.99429842e-01
9.99350697e-01
9.99272994e-01
9.99196726e-01
9.99121877e-01
9.99048418e-01
9.98976308e-01
9.98905501e-01
9.98835941e-01
9.98767571e-01
9.98700325e-01
9.98634140e-01
9.98568950e-01
9.98504691e-01
9.98441302e-01
9.98378727e-01
9.98316915e-01
9.98255824e-01
9.98195419e-01
9.98135675e-01
9.98076576e-01
9.98018120e-01
9.97960313e-01
9.97903174e-01
9.97846736e-01
9.97791040e-01
9.97736141e-01
9.97682104e-01
9.97629003e-01
9.97576925e-01
9.97525960e-01
9.97476209e-01
9.97427778e-01
9.97380777e-01
9.97335320e-01
9.97291524e-01
9.97249503e-01
9.97209376e-01
9.97171257e-01
9.97135257e-01
9.97101486e-01
9.97070059e-01
9.97041074e-01
9.97014598e-01
9.96990774e-01
9.96969757e-01
9.96951440e-01
9.96935740e-01
9.96923284e-01
9.96913998e-01
9.96907110e-01
9.96903560e-01
1.00396010e+00
1.00395604e+00
1.00394875e+00
1.00393868e+00
1.00392543e+00
1.00390976e+00
1.00389158e+00
1.00387059e+00
1.00384719e+00
1.00382159e+00
1.00379378e+00
1.00376390e+00
1.00373213e+00
1.00369861e+00
1.00366346e+00
1.00362681e+00
1.00358878e+00
1.00354951e+00
1.00350908e+00
1.00346761e+00
1.00342518e+00
1.00338188e+00
1.00333776e+00
1.00329288e+00
1.00324727e+00
1.00320097e+00
1.00315399e+00
1.00310632e+00
1.00305796e+00
1.00300889e+00
1.00295906e+00
1.00290843e+00
1.00285695e+00
1.00280455e+00
1.00275118e+00
1.00269674e+00
1.00264118e+00
1.00258440e+00
1.00252632e+00
1.00246686e+00
1.00240595e+00
1.00234351e+00
1.00227947e+00
1.00221377e+00
1.00214635e+00
1.00207717e+00
1.00200621e+00
1.00193343e+00
1.00185885e+00
1.00178247e+00
1.00170432e+00
1.00162445e+00
1.00154290e+00
1.00145977e+00
1.00137514e+00
1.00128911e+00
1.00120182e+00
1.00111340e+00
1.00102399e+00
1.00093375e+00
1.00084285e+00
1.00075146e+00
1.00065975e+00
1.00056789e+00
1.00047606e+00
1.00038444e+00
1.00029318e+00
1.00020245e+00
1.00011239e+00
1.00002316e+00
9.99934859e-01
9.99847617e-01
9.99761530e-01
9.99676681e-01
9.99593139e-01
9.99510957e-01
9.99430174e-01
9.99350813e-01
9.99272882e-01
9.99196379e-01
9.99121286e-01
9.99047576e-01
9.98975213e-01
9.98904150e-01
9.98834337e-01
9.98765715e-01
9.98698223e-01
9.98631800e-01
9.98566382e-01
9.98501907e-01
9.98438318e-01
9.98375558e-01
9.98313581e-01
9.98252344e-01
9.98191815e-01
9.98131968e-01
9.98072789e-01
9.98014276e-01
9.97956436e-01
9.97899286e-01
9.97842859e-01
9.97787196e-01
9.97732350e-01
9.97678385e-01
9.97625373e-01
9.97573398e-01
9.97522550e-01
9.97472928e-01
9.97424635e-01
9.97377780e-01
9.97332474e-01
9.97288832e-01
9.97246969e-01
9.97206998e-01
9.97169035e-01
9.97133192e-01
9.97099572e-01
9.97068277e-01
9.97039429e-01
9.97013120e-01
9.96989387e-01
9.96968347e-01
9.96950178e-01
9.96934761e-01
9.96922032e-01
9.96912400e-01
9.96905673e-01
9.96902121e-01
1.00395812e+00
1.00395398e+00
1.00394693e+00
1.00393656e+00
1.00392354e+00
1.00390816e+00
1.00388988e+00
1.00386905e+00
1.00384596e+00
1.00382055e+00
1.00379292e+00
1.00376328e+00
1.00373177e+00
1.00369848e+00
1.00366357e+00
1.00362717e+00
1.00358939e+00
1.00355035e+00
1.00351016e+00
1.00346892e+00
1.00342671e+00
1.00338362e+00
1.00333971e+00
1.00329502e+00
1.00324959e+00
1.00320346e+00
1.00315663e+00
1.00310911e+00
1.00306088e+00
1.00301191e+00
1.00296218e+00
1.00291163e+00
1.00286022e+00
1.00280788e+00
1.00275455e+00
1.00270015e+00
1.00264459e+00
1.00258782e+00
1.00252973e+00
1.00247026e+00
1.00240932e+00
1.00234685e+00
1.00228276e+00
1.00221701e+00
1.00214954e+00
1.00208031e+00
1.00200929e+00
1.00193646e+00
1.00186182e+00
1.00178539e+00
1.00170718e+00
1.00162725e+00
1.00154565e+00
1.00146247e+00
1.00137779e+00
1.00129172e+00
1.00120438e+00
1.00111591e+00
1.00102646e+00
1.00093618e+00
1.00084523e+00
1.00075378e+00
1.00066201e+00
1.00057009e+00
1.00047819e+00
1.00038649e+00
1.00029514e+00
1.00020430e+00
1.00011413e+00
1.00002476e+00
9.99936324e-01
9.99848922e-01
9.99762660e-01
9.99677620e-01
9.99593872e-01
9.99511470e-01
9.99430452e-01
9.99350842e-01
9.99272652e-01
9.99195879e-01
9.99120508e-01
9.99046514e-01
9.98973862e-01
9.98902509e-01
9.98832405e-01
9.98763496e-01
9.98695723e-01
9.98629026e-01
9.98563346e-01
9.98498622e-01
9.98434799e-01
9.98371825e-01
9.98309652e-01
9.98248241e-01
9.98187560e-01
9.98127586e-01
9.98068306e-01
9.98009715e-01
9.97951823e-01
9.97894647e-01
9.97838218e-01
9.97782576e-01
9.97727773e-01
9.97673872e-01
9.97620943e-01
9.97569068e-01
9.97518336e-01
9.97468842e-01
9.97420688e-01
9.97373980e-01
9.97328828e-01
9.97285344e-01
9.97243641e-01
9.97203832e-01
9.97166027e-01
9.97130337e-01
9.97096873e-01
9.97065726e-01
9.97036991e-01
9.97010799e-01
9.96987224e-01
9.96966256e-01
9.96948035e-01
9.96932725e-01
9.96920085e-01
9.96910258e-01
9.96903589e-01
9.96899933e-01
1.00395683e+00
1.00395250e+00
1.00394513e+00
1.00393497e+00
1.00392222e+00
1.00390666e+00
1.00388849e+00
1.00386799e+00
1.00384505e+00
1.00381976e+00
1.00379238e+00
1.00376300e+00
1.00373171e+00
1.00369866e+00
1.00366400e+00
1.00362784e+00
1.00359031e+00
1.00355152e+00
1.00351157e+00
1.00347056e+00
1.00342859e+00
1.00338571e+00
1.00334200e+00
1.00329751e+00
1.00325228e+00
1.00320632e+00
1.00315965e+00
1.00311228e+00
1.00306418e+00
1.00301533e+00
1.00296570e+00
1.00291524e+00
1.00286390e+00
1.00281162e+00
1.00275833e+00
1.00270396e+00
1.00264843e+00
1.00259165e+00
1.00253356e+00
1.00247407e+00
1.00241311e+00
1.00235059e+00
1.00228647e+00
1.00222067e+00
1.00215314e+00
1.00208385e+00
1.00201277e+00
1.00193988e+00
1.00186517e+00
1.00178867e+00
1.00171040e+00
1.00163041e+00
1.00154875e+00
1.00146551e+00
1.00138077e+00
1.00129465e+00
1.00120726e+00
1.00111874e+00
1.00102923e+00
1.00093889e+00
1.00084788e+00
1.00075637e+00
1.00066453e+00
1.00057253e+00
1.00048055e+00
1.00038875e+00
1.00029729e+00
1.00020634e+00
1.00011603e+00
1.00002652e+00
9.99937910e-01
9.99850327e-01
9.99763867e-01
9.99678612e-01
9.99594633e-01
9.99511983e-01
9.99430703e-01
9.99350817e-01
9.99272338e-01
9.99195264e-01
9.99119583e-01
9.99045272e-01
9.98972298e-01
9.98900621e-01
9.98830193e-01
9.98760963e-01
9.98692876e-01
9.98625873e-01
9.98559897e-01
9.98494893e-01
9.98430805e-01
9.98367585e-01
9.98305188e-01
9.98243575e-01
9.98182717e-01
9.98122592e-01
9.98063186e-01
9.98004498e-01
9.97946535e-01
9.97889316e-01
9.97832870e-01
9.97777236e-01
9.97722466e-01
9.97668620e-01
9.97615767e-01
9.97563988e-01
9.97513367e-01
9.97463999e-01
9.97415983e-01
9.97369423e-01
9.97324426e-01
9.97281102e-01
9.97239561e-01
9.97199915e-01
9.97162272e-01
9.97126737e-01
9.97093418e-01
9.97062424e-01
9.97033833e-01
9.97007725e-01
9.96984232e-01
9.96963420e-01
9.96945248e-01
9.96929842e-01
9.96917293e-01
9.96907523e-01
9.96900662e-01
9.96896888e-01
1.00395559e+00
1.00395117e+00
1.00394381e+00
1.00393378e+00
1.00392099e+00
1.00390550e+00
1.00388759e+00
1.00386720e+00
1.00384436e+00
1.00381932e+00
1.00379217e+00
1.00376299e+00
1.00373193e+00
1.00369914e+00
1.00366472e+00
1.00362881e+00
1.00359153e+00
1.00355298e+00
1.00351327e+00
1.00347251e+00
1.00343076e+00
1.00338811e+00
1.00334461e+00
1.00330032e+00
1.00325528e+00
1.00320950e+00
1.00316299e+00
1.00311576e+00
1.00306780e+00
1.00301907e+00
1.00296955e+00
1.00291918e+00
1.00286792e+00
1.00281570e+00
1.00276245e+00
1.00270811e+00
1.00265259e+00
1.00259583e+00
1.00253773e+00
1.00247822e+00
1.00241723e+00
1.00235468e+00
1.00229050e+00
1.00222465e+00
1.00215707e+00
1.00208772e+00
1.00201657e+00
1.00194361e+00
1.00186884e+00
1.00179227e+00
1.00171393e+00
1.00163387e+00
1.00155215e+00
1.00146885e+00
1.00138405e+00
1.00129786e+00
1.00121041e+00
1.00112183e+00
1.00103226e+00
1.00094186e+00
1.00085079e+00
1.00075921e+00
1.00066729e+00
1.00057521e+00
1.00048313e+00
1.00039122e+00
1.00029964e+00
1.00020856e+00
1.00011811e+00
1.00002842e+00
9.99939636e-01
9.99851854e-01
9.99765177e-01
9.99679687e-01
9.99595454e-01
9.99512533e-01
9.99430965e-01
9.99350777e-01
9.99271980e-01
9.99194578e-01
9.99118557e-01
9.99043899e-01
9.98970572e-01
9.98898538e-01
9.98827755e-01
9.98758171e-01
9.98689735e-01
9.98622393e-01
9.98556090e-01
9.98490773e-01
9.98426390e-01
9.98362893e-01
9.98300242e-01
9.98238400e-01
9.98177338e-01
9.98117035e-01
9.98057481e-01
9.97998674e-01
9.97940620e-01
9.97883339e-01
9.97826859e-01
9.97771220e-01
9.97716470e-01
9.97662668e-01
9.97609883e-01
9.97558191e-01
9.97507676e-01
9.97458430e-01
9.97410550e-01
9.97364135e-01
9.97319293e-01
9.97276128e-01
9.97234750e-01
9.97195266e-01
9.97157785e-01
9.97122412e-01
9.97089241e-01
9.97058377e-01
9.97029928e-01
9.97003955e-01
9.96980528e-01
9.96959776e-01
9.96941722e-01
9.96926336e-01
9.96913750e-01
9.96904021e-01
9.96897140e-01
9.96893283e-01
1.00395459e+00
1.00395022e+00
1.00394292e+00
1.00393282e+00
1.00392005e+00
1.00390476e+00
1.00388696e+00
1.00386664e+00
1.00384402e+00
1.00381920e+00
1.00379223e+00
1.00376326e+00
1.00373245e+00
1.00369989e+00
1.00366572e+00
1.00363005e+00
1.00359301e+00
1.00355471e+00
1.00351525e+00
1.00347472e+00
1.00343320e+00
1.00339077e+00
1.00334749e+00
1.00330340e+00
1.00325854e+00
1.00321294e+00
1.00316659e+00
1.00311952e+00
1.00307168e+00
1.00302308e+00
1.00297365e+00
1.00292338e+00
1.00287219e+00
1.00282003e+00
1.00276683e+00
1.00271251e+00
1.00265702e+00
1.00260025e+00
1.00254214e+00
1.00248262e+00
1.00242159e+00
1.00235900e+00
1.00229479e+00
1.00222888e+00
1.00216124e+00
1.00209182e+00
1.00202061e+00
1.00194758e+00
1.00187274e+00
1.00179610e+00
1.00171770e+00
1.00163757e+00
1.00155578e+00
1.00147241e+00
1.00138755e+00
1.00130131e+00
1.00121380e+00
1.00112516e+00
1.00103553e+00
1.00094506e+00
1.00085392e+00
1.00076227e+00
1.00067027e+00
1.00057810e+00
1.00048592e+00
1.00039390e+00
1.00030220e+00
1.00021097e+00
1.00012036e+00
1.00003050e+00
9.99941521e-01
9.99853526e-01
9.99766615e-01
9.99680873e-01
9.99596368e-01
9.99513156e-01
9.99431279e-01
9.99350764e-01
9.99271626e-01
9.99193868e-01
9.99117482e-01
9.99042447e-01
9.98968738e-01
9.98896319e-01
9.98825148e-01
9.98755180e-01
9.98686365e-01
9.98618653e-01
9.98551991e-01
9.98486330e-01
9.98421620e-01
9.98357818e-01
9.98294884e-01
9.98232784e-01
9.98171491e-01
9.98110987e-01
9.98051260e-01
9.97992310e-01
9.97934145e-01
9.97876783e-01
9.97820252e-01
9.97764590e-01
9.97709846e-01
9.97656077e-01
9.97603349e-01
9.97551736e-01
9.97501320e-01
9.97452190e-01
9.97404439e-01
9.97358167e-01
9.97313475e-01
9.97270468e-01
9.97229252e-01
9.97189930e-01
9.97152608e-01
9.97117390e-01
9.97084376e-01
9.97053651e-01
9.97025314e-01
9.96999468e-01
9.96976160e-01
9.96955452e-01
9.96937448e-01
9.96922155e-01
9.96909566e-01
9.96899787e-01
9.96892906e-01
9.96889038e-01
1.00395396e+00
1.00394954e+00
1.00394224e+00
1.00393217e+00
1.00391950e+00
1.00390431e+00
1.00388657e+00
1.00386643e+00
1.00384400e+00
1.00381933e+00
1.00379255e+00
1.00376382e+00
1.00373323e+00
1.00370090e+00
1.00366696e+00
1.00363154e+00
1.00359475e+00
1.00355668e+00
1.00351746e+00
1.00347716e+00
1.00343587e+00
1.00339365e+00
1.00335058e+00
1.00330669e+00
1.00326201e+00
1.00321658e+00
1.00317040e+00
1.00312346e+00
1.00307576e+00
1.00302727e+00
1.00297795e+00
1.00292776e+00
1.00287664e+00
1.00282453e+00
1.00277137e+00
1.00271709e+00
1.00266160e+00
1.00260484e+00
1.00254672e+00
1.00248717e+00
1.00242612e+00
1.00236349e+00
1.00229922e+00
1.00223326e+00
1.00216556e+00
1.00209608e+00
1.00202480e+00
1.00195171e+00
1.00187680e+00
1.00180010e+00
1.00172162e+00
1.00164143e+00
1.00155958e+00
1.00147615e+00
1.00139124e+00
1.00130493e+00
1.00121737e+00
1.00112867e+00
1.00103898e+00
1.00094846e+00
1.00085725e+00
1.00076553e+00
1.00067345e+00
1.00058119e+00
1.00048891e+00
1.00039678e+00
1.00030495e+00
1.00021358e+00
1.00012281e+00
1.00003277e+00
9.99943583e-01
9.99855365e-01
9.99768210e-01
9.99682202e-01
9.99597410e-01
9.99513890e-01
9.99431685e-01
9.99350824e-01
9.99271323e-01
9.99193187e-01
9.99116409e-01
9.99040973e-01
9.98966854e-01
9.98894021e-01
9.98822435e-01
9.98752053e-01
9.98682829e-01
9.98614715e-01
9.98547664e-01
9.98481628e-01
9.98416562e-01
9.98352425e-01
9.98289178e-01
9.98226792e-01
9.98165240e-01
9.98104507e-01
9.98044582e-01
9.97985466e-01
9.97927166e-01
9.97869702e-01
9.97813101e-01
9.97757399e-01
9.97702645e-01
9.97648893e-01
9.97596208e-01
9.97544662e-01
9.97494335e-01
9.97445312e-01
9.97397684e-01
9.97351548e-01
9.97307003e-01
9.97264148e-01
9.97223089e-01
9.97183928e-01
9.97146764e-01
9.97111697e-01
9.97078829e-01
9.97048251e-01
9.97020040e-01
9.96994291e-01
9.96971092e-01
9.96950481e-01
9.96932514e-01
9.96917260e-01
9.96904716e-01
9.96894932e-01
9.96888033e-01
9.96884117e-01
1.00395365e+00
1.00394919e+00
1.00394185e+00
1.00393184e+00
1.00391924e+00
1.00390410e+00
1.00388649e+00
1.00386652e+00
1.00384422e+00
1.00381972e+00
1.00379316e+00
1.00376463e+00
1.00373425e+00
1.00370215e+00
1.00366845e+00
1.00363326e+00
1.00359670e+00
1.00355887e+00
1.00351987e+00
1.00347979e+00
1.00343872e+00
1.00339672e+00
1.00335384e+00
1.00331014e+00
1.00326564e+00
1.00322037e+00
1.00317434e+00
1.00312754e+00
1.00307997e+00
1.00303158e+00
1.00298236e+00
1.00293224e+00
1.00288119e+00
1.00282913e+00
1.00277601e+00
1.00272174e+00
1.00266627e+00
1.00260950e+00
1.00255137e+00
1.00249179e+00
1.00243070e+00
1.00236803e+00
1.00230372e+00
1.00223770e+00
1.00216994e+00
1.00210040e+00
1.00202906e+00
1.00195590e+00
1.00188093e+00
1.00180416e+00
1.00172563e+00
1.00164538e+00
1.00156348e+00
1.00148000e+00
1.00139503e+00
1.00130868e+00
1.00122107e+00
1.00113232e+00
1.00104259e+00
1.00095201e+00
1.00086075e+00
1.00076896e+00
1.00067681e+00
1.00058447e+00
1.00049209e+00
1.00039985e+00
1.00030790e+00
1.00021639e+00
1.00012545e+00
1.00003523e+00
9.99945839e-01
9.99857393e-01
9.99769987e-01
9.99683703e-01
9.99598614e-01
9.99514773e-01
9.99432226e-01
9.99351003e-01
9.99271120e-01
9.99192586e-01
9.99115395e-01
9.99039535e-01
9.98964983e-01
9.98891710e-01
9.98819682e-01
9.98748858e-01
9.98679197e-01
9.98610655e-01
9.98543185e-01
9.98476746e-01
9.98411295e-01
9.98346792e-01
9.98283205e-01
9.98220505e-01
9.98158668e-01
9.98097679e-01
9.98037531e-01
9.97978224e-01
9.97919767e-01
9.97862178e-01
9.97805486e-01
9.97749726e-01
9.97694943e-01
9.97641193e-01
9.97588536e-01
9.97537044e-01
9.97486793e-01
9.97437866e-01
9.97390352e-01
9.97344343e-01
9.97299936e-01
9.97257229e-01
9.97216321e-01
9.97177312e-01
9.97140303e-01
9.97105388e-01
9.97072659e-01
9.97042214e-01
9.97014136e-01
9.96988496e-01
9.96965379e-01
9.96944859e-01
9.96926962e-01
9.96911734e-01
9.96899218e-01
9.96889448e-01
9.96882516e-01
9.96878554e-01
1.00395361e+00
1.00394911e+00
1.00394178e+00
1.00393179e+00
1.00391924e+00
1.00390419e+00
1.00388671e+00
1.00386685e+00
1.00384470e+00
1.00382039e+00
1.00379401e+00
1.00376567e+00
1.00373550e+00
1.00370362e+00
1.00367013e+00
1.00363517e+00
1.00359883e+00
1.00356122e+00
1.00352244e+00
1.00348258e+00
1.00344171e+00
1.00339991e+00
1.00335722e+00
1.00331369e+00
1.00326936e+00
1.00322425e+00
1.00317836e+00
1.00313169e+00
1.00308422e+00
1.00303593e+00
1.00298679e+00
1.00293675e+00
1.00288574e+00
1.00283373e+00
1.00278063e+00
1.00272638e+00
1.00267091e+00
1.00261413e+00
1.00255598e+00
1.00249638e+00
1.00243525e+00
1.00237254e+00
1.00230817e+00
1.00224210e+00
1.00217429e+00
1.00210469e+00
1.00203329e+00
1.00196007e+00
1.00188505e+00
1.00180823e+00
1.00172964e+00
1.00164935e+00
1.00156740e+00
1.00148388e+00
1.00139887e+00
1.00131248e+00
1.00122484e+00
1.00113606e+00
1.00104629e+00
1.00095567e+00
1.00086437e+00
1.00077253e+00
1.00068032e+00
1.00058791e+00
1.00049546e+00
1.00040311e+00
1.00031104e+00
1.00021939e+00
1.00012830e+00
1.00003790e+00
9.99948306e-01
9.99859631e-01
9.99771971e-01
9.99685409e-01
9.99600014e-01
9.99515845e-01
9.99432945e-01
9.99351346e-01
9.99271068e-01
9.99192119e-01
9.99114497e-01
9.99038192e-01
9.98963185e-01
9.98889450e-01
9.98816955e-01
9.98745665e-01
9.98675541e-01
9.98606542e-01
9.98538627e-01
9.98471756e-01
9.98405891e-01
9.98340995e-01
9.98277039e-01
9.98213996e-01
9.98151845e-01
9.98090574e-01
9.98030176e-01
9.97970652e-01
9.97912013e-01
9.97854276e-01
9.97797470e-01
9.97741629e-01
9.97686798e-01
9.97633030e-01
9.97580385e-01
9.97528930e-01
9.97478740e-01
9.97429896e-01
9.97382482e-01
9.97336589e-01
9.97292310e-01
9.97249741e-01
9.97208977e-01
9.97170114e-01
9.97133250e-01
9.97098480e-01
9.97065892e-01
9.97035573e-01
9.97007614e-01
9.96982090e-01
9.96959065e-01
9.96938614e-01
9.96920787e-01
9.96905606e-01
9.96893109e-01
9.96883345e-01
9.96876400e-01
9.96872398e-01
1.00395384e+00
1.00394931e+00
1.00394197e+00
1.00393200e+00
1.00391951e+00
1.00390455e+00
1.00388716e+00
1.00386742e+00
1.00384543e+00
1.00382128e+00
1.00379506e+00
1.00376691e+00
1.00373695e+00
1.00370526e+00
1.00367199e+00
1.00363724e+00
1.00360111e+00
1.00356371e+00
1.00352514e+00
1.00348547e+00
1.00344480e+00
1.00340317e+00
1.00336066e+00
1.00331730e+00
1.00327312e+00
1.00322814e+00
1.00318238e+00
1.00313582e+00
1.00308845e+00
1.00304025e+00
1.00299117e+00
1.00294118e+00
1.00289023e+00
1.00283824e+00
1.00278516e+00
1.00273092e+00
1.00267543e+00
1.00261864e+00
1.00256047e+00
1.00250083e+00
1.00243966e+00
1.00237690e+00
1.00231249e+00
1.00224637e+00
1.00217850e+00
1.00210885e+00
1.00203740e+00
1.00196413e+00
1.00188906e+00
1.00181219e+00
1.00173357e+00
1.00165324e+00
1.00157126e+00
1.00148772e+00
1.00140269e+00
1.00131629e+00
1.00122863e+00
1.00113983e+00
1.00105005e+00
1.00095941e+00
1.00086808e+00
1.00077621e+00
1.00068397e+00
1.00059150e+00
1.00049898e+00
1.00040655e+00
1.00031438e+00
1.00022260e+00
1.00013136e+00
1.00004079e+00
9.99951000e-01
9.99862101e-01
9.99774189e-01
9.99687348e-01
9.99601647e-01
9.99517145e-01
9.99433886e-01
9.99351903e-01
9.99271218e-01
9.99191842e-01
9.99113775e-01
9.99037009e-01
9.98961529e-01
9.98887312e-01
9.98814330e-01
9.98742551e-01
9.98671940e-01
9.98602460e-01
9.98534074e-01
9.98466745e-01
9.98400440e-01
9.98335124e-01
9.98270772e-01
9.98207359e-01
9.98144868e-01
9.98083288e-01
9.98022613e-01
9.97962847e-01
9.97904001e-01
9.97846092e-01
9.97789149e-01
9.97733205e-01
9.97678305e-01
9.97624499e-01
9.97571845e-01
9.97520410e-01
9.97470264e-01
9.97421486e-01
9.97374159e-01
9.97328369e-01
9.97284206e-01
9.97241761e-01
9.97201130e-01
9.97162405e-01
9.97125678e-01
9.97091042e-01
9.97058586e-01
9.97028393e-01
9.97000544e-01
9.96975122e-01
9.96952192e-01
9.96931813e-01
9.96914041e-01
9.96898909e-01
9.96886437e-01
9.96876674e-01
9.96869711e-01
9.96865672e-01
1.00395432e+00
1.00394975e+00
1.00394240e+00
1.00393246e+00
1.00392002e+00
1.00390513e+00
1.00388784e+00
1.00386822e+00
1.00384636e+00
1.00382236e+00
1.00379631e+00
1.00376834e+00
1.00373855e+00
1.00370706e+00
1.00367398e+00
1.00363942e+00
1.00360349e+00
1.00356629e+00
1.00352790e+00
1.00348842e+00
1.00344792e+00
1.00340646e+00
1.00336410e+00
1.00332089e+00
1.00327684e+00
1.00323198e+00
1.00318633e+00
1.00313986e+00
1.00309257e+00
1.00304444e+00
1.00299542e+00
1.00294547e+00
1.00289454e+00
1.00284257e+00
1.00278949e+00
1.00273524e+00
1.00267975e+00
1.00262293e+00
1.00256472e+00
1.00250505e+00
1.00244384e+00
1.00238103e+00
1.00231657e+00
1.00225040e+00
1.00218248e+00
1.00211279e+00
1.00204129e+00
1.00196798e+00
1.00189287e+00
1.00181598e+00
1.00173733e+00
1.00165699e+00
1.00157500e+00
1.00149145e+00
1.00140642e+00
1.00132002e+00
1.00123237e+00
1.00114359e+00
1.00105381e+00
1.00096318e+00
1.00087185e+00
1.00077997e+00
1.00068771e+00
1.00059521e+00
1.00050264e+00
1.00041015e+00
1.00031790e+00
1.00022601e+00
1.00013464e+00
1.00004391e+00
9.99953936e-01
9.99864822e-01
9.99776667e-01
9.99689551e-01
9.99603547e-01
9.99518712e-01
9.99435091e-01
9.99352721e-01
9.99271623e-01
9.99191811e-01
9.99113288e-01
9.99036049e-01
9.98960081e-01
9.98885365e-01
9.98811878e-01
9.98739590e-01
9.98668470e-01
9.98598486e-01
9.98529605e-01
9.98461794e-01
9.98395022e-01
9.98329260e-01
9.98264485e-01
9.98200675e-01
9.98137816e-01
9.98075899e-01
9.98014921e-01
9.97954886e-01
9.97895805e-01
9.97837698e-01
9.97780592e-01
9.97724521e-01
9.97669527e-01
9.97615660e-01
9.97562976e-01
9.97511539e-01
9.97461418e-01
9.97412689e-01
9.97365430e-01
9.97319726e-01
9.97275663e-01
9.97233330e-01
9.97192818e-01
9.97154217e-01
9.97117618e-01
9.97083107e-01
9.97050772e-01
9.97020696e-01
9.96992957e-01
9.96967628e-01
9.96944783e-01
9.96924478e-01
9.96906760e-01
9.96891667e-01
9.96879223e-01
9.96869466e-01
9.96862486e-01
9.96858410e-01
1.00395501e+00
1.00395040e+00
1.00394305e+00
1.00393313e+00
1.00392074e+00
1.00390591e+00
1.00388871e+00
1.00386921e+00
1.00384747e+00
1.00382360e+00
1.00379771e+00
1.00376990e+00
1.00374028e+00
1.00370897e+00
1.00367607e+00
1.00364169e+00
1.00360593e+00
1.00356890e+00
1.00353069e+00
1.00349137e+00
1.00345102e+00
1.00340971e+00
1.00336749e+00
1.00332439e+00
1.00328046e+00
1.00323570e+00
1.00319013e+00
1.00314374e+00
1.00309651e+00
1.00304842e+00
1.00299944e+00
1.00294951e+00
1.00289859e+00
1.00284662e+00
1.00279354e+00
1.00273927e+00
1.00268375e+00
1.00262690e+00
1.00256865e+00
1.00250893e+00
1.00244767e+00
1.00238482e+00
1.00232031e+00
1.00225409e+00
1.00218613e+00
1.00211640e+00
1.00204486e+00
1.00197153e+00
1.00189640e+00
1.00181949e+00
1.00174085e+00
1.00166050e+00
1.00157853e+00
1.00149500e+00
1.00141000e+00
1.00132363e+00
1.00123601e+00
1.00114727e+00
1.00105752e+00
1.00096693e+00
1.00087563e+00
1.00078378e+00
1.00069152e+00
1.00059902e+00
1.00050643e+00