# vtk DataFile Version 2.0
LBM Flow Field - Timestep 2500
ASCII
DATASET STRUCTURED_POINTS
DIMENSIONS 128 128 1
ORIGIN 0.0 0.0 0.0
SPACING 1.0 1.0 1.0
POINT_DATA 16384
SCALARS density double 1
LOOKUP_TABLE default
9.97277010e-01
9.97277117e-01
9.97276665e-01
9.97275144e-01
9.97273749e-01
9.97272926e-01
9.97272537e-01
9.97272671e-01
9.97273581e-01
9.97275413e-01
9.97278278e-01
9.97282404e-01
9.97288018e-01
9.97295318e-01
9.97304507e-01
9.97315806e-01
9.97329419e-01
9.97345539e-01
9.97364350e-01
9.97386024e-01
9.97410711e-01
9.97438542e-01
9.97469625e-01
9.97504042e-01
9.97541849e-01
9.97583072e-01
9.97627710e-01
9.97675731e-01
9.97727076e-01
9.97781659e-01
9.97839366e-01
9.97900063e-01
9.97963593e-01
9.98029781e-01
9.98098441e-01
9.98169374e-01
9.98242376e-01
9.98317242e-01
9.98393766e-01
9.98471749e-01
9.98551001e-01
9.98631342e-01
9.98712610e-01
9.98794655e-01
9.98877349e-01
9.98960582e-01
9.99044262e-01
9.99128320e-01
9.99212702e-01
9.99297374e-01
9.99382319e-01
9.99467532e-01
9.99553020e-01
9.99638801e-01
9.99724899e-01
9.99811344e-01
9.99898165e-01
9.99985393e-01
1.00007306e+00
1.00016117e+00
1.00024976e+00
1.00033884e+00
1.00042838e+00
1.00051840e+00
1.00060886e+00
1.00069973e+00
1.00079096e+00
1.00088250e+00
1.00097428e+00
1.00106623e+00
1.00115824e+00
1.00125023e+00
1.00134209e+00
1.00143371e+00
1.00152495e+00
1.00161569e+00
1.00170579e+00
1.00179510e+00
1.00188349e+00
1.00197078e+00
1.00205683e+00
1.00214147e+00
1.00222452e+00
1.00230584e+00
1.00238523e+00
1.00246254e+00
1.00253758e+00
1.00261020e+00
1.00268023e+00
1.00274751e+00
1.00281189e+00
1.00287322e+00
1.00293137e+00
1.00298621e+00
1.00303765e+00
1.00308559e+00
1.00312996e+00
1.00317070e+00
1.00320778e+00
1.00324120e+00
1.00327095e+00
1.00329709e+00
1.00331966e+00
1.00333875e+00
1.00335448e+00
1.00336695e+00
1.00337634e+00
1.00338281e+00
1.00338655e+00
1.00338778e+00
1.00338671e+00
1.00338359e+00
1.00337865e+00
1.00337216e+00
1.00336438e+00
1.00335556e+00
1.00334598e+00
1.00333588e+00
1.00332551e+00
1.00331514e+00
1.00330494e+00
1.00329519e+00
1.00328590e+00
1.00327714e+00
1.00326972e+00
1.00326400e+00
1.00325665e+00
1.00325132e+00
9.97278658e-01
9.97278531e-01
9.97278060e-01
9.97277092e-01
9.97276215e-01
9.97275663e-01
9.97275513e-01
9.97275946e-01
9.97277113e-01
9.97279194e-01
9.97282338e-01
9.97286754e-01
9.97292640e-01
9.97300209e-01
9.97309664e-01
9.97321215e-01
9.97335062e-01
9.97351399e-01
9.97370408e-01
9.97392255e-01
9.97417090e-01
9.97445042e-01
9.97476217e-01
9.97510696e-01
9.97548535e-01
9.97589760e-01
9.97634368e-01
9.97682330e-01
9.97733588e-01
9.97788055e-01
9.97845623e-01
9.97906156e-01
9.97969502e-01
9.98035489e-01
9.98103932e-01
9.98174637e-01
9.98247404e-01
9.98322028e-01
9.98398308e-01
9.98476048e-01
9.98555060e-01
9.98635167e-01
9.98716208e-01
9.98798035e-01
9.98880522e-01
9.98963559e-01
9.99047055e-01
9.99130940e-01
9.99215160e-01
9.99299682e-01
9.99384485e-01
9.99469565e-01
9.99554927e-01
9.99640588e-01
9.99726569e-01
9.99812899e-01
9.99899606e-01
9.99986718e-01
1.00007426e+00
1.00016226e+00
1.00025072e+00
1.00033965e+00
1.00042906e+00
1.00051892e+00
1.00060922e+00
1.00069992e+00
1.00079097e+00
1.00088232e+00
1.00097390e+00
1.00106563e+00
1.00115743e+00
1.00124919e+00
1.00134080e+00
1.00143216e+00
1.00152314e+00
1.00161361e+00
1.00170343e+00
1.00179245e+00
1.00188054e+00
1.00196753e+00
1.00205327e+00
1.00213759e+00
1.00222033e+00
1.00230132e+00
1.00238040e+00
1.00245739e+00
1.00253213e+00
1.00260445e+00
1.00267418e+00
1.00274118e+00
1.00280530e+00
1.00286638e+00
1.00292431e+00
1.00297896e+00
1.00303022e+00
1.00307802e+00
1.00312228e+00
1.00316295e+00
1.00320000e+00
1.00323341e+00
1.00326321e+00
1.00328942e+00
1.00331211e+00
1.00333136e+00
1.00334727e+00
1.00335998e+00
1.00336963e+00
1.00337640e+00
1.00338047e+00
1.00338205e+00
1.00338137e+00
1.00337864e+00
1.00337413e+00
1.00336807e+00
1.00336073e+00
1.00335237e+00
1.00334323e+00
1.00333357e+00
1.00332364e+00
1.00331370e+00
1.00330390e+00
1.00329450e+00
1.00328559e+00
1.00327752e+00
1.00327036e+00
1.00326461e+00
1.00325845e+00
1.00325544e+00
9.97281512e-01
9.97281168e-01
9.97280415e-01
9.97279992e-01
9.97279578e-01
9.97279180e-01
9.97279258e-01
9.97280010e-01
9.97281451e-01
9.97283767e-01
9.97287193e-01
9.97291899e-01
9.97298055e-01
9.97305885e-01
9.97315599e-01
9.97327392e-01
9.97341463e-01
9.97358005e-01
9.97377198e-01
9.97399204e-01
9.97424171e-01
9.97452228e-01
9.97483479e-01
9.97518005e-01
9.97555859e-01
9.97597069e-01
9.97641633e-01
9.97689521e-01
9.97740677e-01
9.97795016e-01
9.97852431e-01
9.97912789e-01
9.97975941e-01
9.98041716e-01
9.98109935e-01
9.98180404e-01
9.98252925e-01
9.98327300e-01
9.98403328e-01
9.98480817e-01
9.98559580e-01
9.98639443e-01
9.98720246e-01
9.98801845e-01
9.98884113e-01
9.98966941e-01
9.99050239e-01
9.99133937e-01
9.99217981e-01
9.99302336e-01
9.99386983e-01
9.99471913e-01
9.99557133e-01
9.99642657e-01
9.99728506e-01
9.99814706e-01
9.99901283e-01
9.99988265e-01
1.00007568e+00
1.00016353e+00
1.00025185e+00
1.00034064e+00
1.00042989e+00
1.00051959e+00
1.00060971e+00
1.00070023e+00
1.00079109e+00
1.00088223e+00
1.00097359e+00
1.00106509e+00
1.00115664e+00
1.00124815e+00
1.00133950e+00
1.00143058e+00
1.00152127e+00
1.00161143e+00
1.00170094e+00
1.00178964e+00
1.00187740e+00
1.00196405e+00
1.00204943e+00
1.00213340e+00
1.00221578e+00
1.00229642e+00
1.00237513e+00
1.00245176e+00
1.00252615e+00
1.00259812e+00
1.00266752e+00
1.00273420e+00
1.00279801e+00
1.00285881e+00
1.00291648e+00
1.00297090e+00
1.00302196e+00
1.00306959e+00
1.00311372e+00
1.00315429e+00
1.00319128e+00
1.00322468e+00
1.00325451e+00
1.00328079e+00
1.00330360e+00
1.00332300e+00
1.00333912e+00
1.00335207e+00
1.00336200e+00
1.00336909e+00
1.00337351e+00
1.00337548e+00
1.00337520e+00
1.00337291e+00
1.00336885e+00
1.00336327e+00
1.00335641e+00
1.00334852e+00
1.00333987e+00
1.00333071e+00
1.00332126e+00
1.00331176e+00
1.00330242e+00
1.00329341e+00
1.00328501e+00
1.00327756e+00
1.00327050e+00
1.00326438e+00
1.00326124e+00
1.00325932e+00
9.97285179e-01
9.97284846e-01
9.97284238e-01
9.97283872e-01
9.97283596e-01
9.97283572e-01
9.97283972e-01
9.97284929e-01
9.97286627e-01
9.97289242e-01
9.97292938e-01
9.97297896e-01
9.97304321e-01
9.97312412e-01
9.97322367e-01
9.97334387e-01
9.97348669e-01
9.97365401e-01
9.97384758e-01
9.97406903e-01
9.97431983e-01
9.97460122e-01
9.97491425e-01
9.97525971e-01
9.97563815e-01
9.97604982e-01
9.97649473e-01
9.97697258e-01
9.97748283e-01
9.97802466e-01
9.97859699e-01
9.97919854e-01
9.97982784e-01
9.98048322e-01
9.98116290e-01
9.98186499e-01
9.98258754e-01
9.98332859e-01
9.98408617e-01
9.98485838e-01
9.98564339e-01
9.98643947e-01
9.98724504e-01
9.98805867e-01
9.98887911e-01
9.98970527e-01
9.99053626e-01
9.99137137e-01
9.99221007e-01
9.99305199e-01
9.99389693e-01
9.99474479e-01
9.99559562e-01
9.99644954e-01
9.99730675e-01
9.99816748e-01
9.99903199e-01
9.99990053e-01
1.00007733e+00
1.00016505e+00
1.00025323e+00
1.00034187e+00
1.00043096e+00
1.00052048e+00
1.00061043e+00
1.00070075e+00
1.00079140e+00
1.00088232e+00
1.00097345e+00
1.00106470e+00
1.00115599e+00
1.00124722e+00
1.00133828e+00
1.00142906e+00
1.00151943e+00
1.00160927e+00
1.00169843e+00
1.00178678e+00
1.00187417e+00
1.00196044e+00
1.00204545e+00
1.00212902e+00
1.00221101e+00
1.00229124e+00
1.00236956e+00
1.00244579e+00
1.00251979e+00
1.00259137e+00
1.00266040e+00
1.00272672e+00
1.00279019e+00
1.00285067e+00
1.00290804e+00
1.00296219e+00
1.00301302e+00
1.00306045e+00
1.00310441e+00
1.00314486e+00
1.00318177e+00
1.00321513e+00
1.00324497e+00
1.00327131e+00
1.00329421e+00
1.00331377e+00
1.00333007e+00
1.00334326e+00
1.00335348e+00
1.00336088e+00
1.00336566e+00
1.00336802e+00
1.00336816e+00
1.00336632e+00
1.00336273e+00
1.00335763e+00
1.00335127e+00
1.00334390e+00
1.00333576e+00
1.00332710e+00
1.00331815e+00
1.00330913e+00
1.00330030e+00
1.00329178e+00
1.00328374e+00
1.00327659e+00
1.00327052e+00
1.00326498e+00
1.00326095e+00
1.00325868e+00
9.97289620e-01
9.97289330e-01
9.97288995e-01
9.97288691e-01
9.97288579e-01
9.97288878e-01
9.97289534e-01
9.97290721e-01
9.97292701e-01
9.97295608e-01
9.97299570e-01
9.97304796e-01
9.97311494e-01
9.97319844e-01
9.97330039e-01
9.97342286e-01
9.97356776e-01
9.97373690e-01
9.97393203e-01
9.97415477e-01
9.97440653e-01
9.97468857e-01
9.97500192e-01
9.97534736e-01
9.97572542e-01
9.97613639e-01
9.97658027e-01
9.97705677e-01
9.97756536e-01
9.97810526e-01
9.97867541e-01
9.97927456e-01
9.97990126e-01
9.98055389e-01
9.98123070e-01
9.98192984e-01
9.98264940e-01
9.98338743e-01
9.98414202e-01
9.98491129e-01
9.98569344e-01
9.98648676e-01
9.98728969e-01
9.98810083e-01
9.98891892e-01
9.98974288e-01
9.99057183e-01
9.99140506e-01
9.99224202e-01
9.99308233e-01
9.99392578e-01
9.99477225e-01
9.99562178e-01
9.99647447e-01
9.99733048e-01
9.99819004e-01
9.99905337e-01
9.99992071e-01
1.00007922e+00
1.00016682e+00
1.00025485e+00
1.00034334e+00
1.00043227e+00
1.00052162e+00
1.00061138e+00
1.00070150e+00
1.00079193e+00
1.00088263e+00
1.00097351e+00
1.00106450e+00
1.00115551e+00
1.00124644e+00
1.00133719e+00
1.00142764e+00
1.00151766e+00
1.00160714e+00
1.00169592e+00
1.00178388e+00
1.00187086e+00
1.00195672e+00
1.00204130e+00
1.00212444e+00
1.00220599e+00
1.00228578e+00
1.00236364e+00
1.00243943e+00
1.00251298e+00
1.00258413e+00
1.00265274e+00
1.00271865e+00
1.00278172e+00
1.00284183e+00
1.00289886e+00
1.00295270e+00
1.00300325e+00
1.00305044e+00
1.00309420e+00
1.00313449e+00
1.00317129e+00
1.00320459e+00
1.00323441e+00
1.00326079e+00
1.00328378e+00
1.00330347e+00
1.00331997e+00
1.00333340e+00
1.00334390e+00
1.00335163e+00
1.00335679e+00
1.00335955e+00
1.00336014e+00
1.00335877e+00
1.00335569e+00
1.00335110e+00
1.00334528e+00
1.00333845e+00
1.00333086e+00
1.00332274e+00
1.00331433e+00
1.00330584e+00
1.00329748e+00
1.00328951e+00
1.00328204e+00
1.00327509e+00
1.00326934e+00
1.00326476e+00
1.00326066e+00
1.00325805e+00
9.97295034e-01
9.97294789e-01
9.97294558e-01
9.97294468e-01
9.97294605e-01
9.97295057e-01
9.97295953e-01
9.97297476e-01
9.97299737e-01
9.97302893e-01
9.97307143e-01
9.97312665e-01
9.97319629e-01
9.97328233e-01
9.97338679e-01
9.97351155e-01
9.97365846e-01
9.97382938e-01
9.97402601e-01
9.97424993e-01
9.97450253e-01
9.97478507e-01
9.97509854e-01
9.97544374e-01
9.97582120e-01
9.97623119e-01
9.97667374e-01
9.97714858e-01
9.97765519e-01
9.97819281e-01
9.97876042e-01
9.97935681e-01
9.97998055e-01
9.98063007e-01
9.98130365e-01
9.98199948e-01
9.98271570e-01
9.98345040e-01
9.98420169e-01
9.98496774e-01
9.98574676e-01
9.98653709e-01
9.98733718e-01
9.98814563e-01
9.98896122e-01
9.98978286e-01
9.99060967e-01
9.99144093e-01
9.99227610e-01
9.99311477e-01
9.99395672e-01
9.99480181e-01
9.99565006e-01
9.99650153e-01
9.99735638e-01
9.99821479e-01
9.99907698e-01
9.99994314e-01
1.00008135e+00
1.00016881e+00
1.00025670e+00
1.00034504e+00
1.00043381e+00
1.00052298e+00
1.00061255e+00
1.00070246e+00
1.00079266e+00
1.00088311e+00
1.00097373e+00
1.00106444e+00
1.00115515e+00
1.00124576e+00
1.00133617e+00
1.00142625e+00
1.00151590e+00
1.00160498e+00
1.00169336e+00
1.00178088e+00
1.00186742e+00
1.00195282e+00
1.00203693e+00
1.00211959e+00
1.00220064e+00
1.00227994e+00
1.00235730e+00
1.00243259e+00
1.00250564e+00
1.00257631e+00
1.00264443e+00
1.00270988e+00
1.00277252e+00
1.00283221e+00
1.00288885e+00
1.00294232e+00
1.00299255e+00
1.00303946e+00
1.00308298e+00
1.00312309e+00
1.00315974e+00
1.00319296e+00
1.00322274e+00
1.00324914e+00
1.00327221e+00
1.00329204e+00
1.00330873e+00
1.00332240e+00
1.00333319e+00
1.00334128e+00
1.00334682e+00
1.00335002e+00
1.00335108e+00
1.00335022e+00
1.00334766e+00
1.00334364e+00
1.00333838e+00
1.00333213e+00
1.00332513e+00
1.00331760e+00
1.00330977e+00
1.00330185e+00
1.00329402e+00
1.00328651e+00
1.00327961e+00
1.00327330e+00
1.00326768e+00
1.00326320e+00
1.00325964e+00
1.00325743e+00
9.97301438e-01
9.97301322e-01
9.97301149e-01
9.97301248e-01
9.97301615e-01
9.97302275e-01
9.97303440e-01
9.97305243e-01
9.97307772e-01
9.97311219e-01
9.97315766e-01
9.97321569e-01
9.97328804e-01
9.97337674e-01
9.97348368e-01
9.97361067e-01
9.97375959e-01
9.97393224e-01
9.97413028e-01
9.97435525e-01
9.97460857e-01
9.97489143e-01
9.97520484e-01
9.97554958e-01
9.97592619e-01
9.97633494e-01
9.97677587e-01
9.97724873e-01
9.97775303e-01
9.97828803e-01
9.97885276e-01
9.97944601e-01
9.98006643e-01
9.98071247e-01
9.98138246e-01
9.98207463e-01
9.98278716e-01
9.98351819e-01
9.98426587e-01
9.98502839e-01
9.98580401e-01
9.98659109e-01
9.98738811e-01
9.98819368e-01
9.98900657e-01
9.98982574e-01
9.99065027e-01
9.99147946e-01
9.99231274e-01
9.99314970e-01
9.99399009e-01
9.99483376e-01
9.99568069e-01
9.99653092e-01
9.99738459e-01
9.99824184e-01
9.99910286e-01
9.99996782e-01
1.00008369e+00
1.00017102e+00
1.00025877e+00
1.00034695e+00
1.00043554e+00
1.00052453e+00
1.00061389e+00
1.00070358e+00
1.00079355e+00
1.00088373e+00
1.00097407e+00
1.00106447e+00
1.00115485e+00
1.00124512e+00
1.00133516e+00
1.00142486e+00
1.00151409e+00
1.00160274e+00
1.00169066e+00
1.00177772e+00
1.00186377e+00
1.00194867e+00
1.00203226e+00
1.00211439e+00
1.00219490e+00
1.00227365e+00
1.00235046e+00
1.00242520e+00
1.00249770e+00
1.00256783e+00
1.00263542e+00
1.00270035e+00
1.00276249e+00
1.00282172e+00
1.00287792e+00
1.00293099e+00
1.00298086e+00
1.00302744e+00
1.00307069e+00
1.00311057e+00
1.00314706e+00
1.00318016e+00
1.00320989e+00
1.00323630e+00
1.00325944e+00
1.00327940e+00
1.00329627e+00
1.00331019e+00
1.00332129e+00
1.00332973e+00
1.00333569e+00
1.00333934e+00
1.00334090e+00
1.00334057e+00
1.00333858e+00
1.00333514e+00
1.00333050e+00
1.00332487e+00
1.00331849e+00
1.00331158e+00
1.00330435e+00
1.00329703e+00
1.00328983e+00
1.00328286e+00
1.00327634e+00
1.00327057e+00
1.00326549e+00
1.00326121e+00
1.00325799e+00
1.00325601e+00
9.97308921e-01
9.97308929e-01
9.97308945e-01
9.97309183e-01
9.97309714e-01
9.97310649e-01
9.97312080e-01
9.97314121e-01
9.97316944e-01
9.97320701e-01
9.97325529e-01
9.97331605e-01
9.97339124e-01
9.97348260e-01
9.97359192e-01
9.97372110e-01
9.97387198e-01
9.97404626e-01
9.97424558e-01
9.97447149e-01
9.97472535e-01
9.97500835e-01
9.97532148e-01
9.97566553e-01
9.97604102e-01
9.97644825e-01
9.97688725e-01
9.97735781e-01
9.97785947e-01
9.97839150e-01
9.97895297e-01
9.97954273e-01
9.98015945e-01
9.98080164e-01
9.98146767e-01
9.98215582e-01
9.98286431e-01
9.98359133e-01
9.98433507e-01
9.98509376e-01
9.98586569e-01
9.98664925e-01
9.98744294e-01
9.98824539e-01
9.98905540e-01
9.98987190e-01
9.99069400e-01
9.99152097e-01
9.99235223e-01
9.99318738e-01
9.99402611e-01
9.99486828e-01
9.99571381e-01
9.99656274e-01
9.99741516e-01
9.99827119e-01
9.99913099e-01
9.99999469e-01
1.00008624e+00
1.00017343e+00
1.00026103e+00
1.00034904e+00
1.00043746e+00
1.00052625e+00
1.00061539e+00
1.00070484e+00
1.00079454e+00
1.00088445e+00
1.00097448e+00
1.00106455e+00
1.00115458e+00
1.00124447e+00
1.00133411e+00
1.00142339e+00
1.00151218e+00
1.00160036e+00
1.00168779e+00
1.00177434e+00
1.00185986e+00
1.00194421e+00
1.00202723e+00
1.00210879e+00
1.00218871e+00
1.00226686e+00
1.00234307e+00
1.00241721e+00
1.00248911e+00
1.00255864e+00
1.00262565e+00
1.00269002e+00
1.00275162e+00
1.00281032e+00
1.00286604e+00
1.00291866e+00
1.00296812e+00
1.00301434e+00
1.00305728e+00
1.00309691e+00
1.00313320e+00
1.00316616e+00
1.00319582e+00
1.00322222e+00
1.00324541e+00
1.00326549e+00
1.00328256e+00
1.00329673e+00
1.00330814e+00
1.00331695e+00
1.00332332e+00
1.00332745e+00
1.00332953e+00
1.00332976e+00
1.00332836e+00
1.00332554e+00
1.00332153e+00
1.00331655e+00
1.00331083e+00
1.00330457e+00
1.00329799e+00
1.00329129e+00
1.00328468e+00
1.00327833e+00
1.00327234e+00
1.00326696e+00
1.00326235e+00
1.00325847e+00
1.00325546e+00
1.00325365e+00
9.97317693e-01
9.97317802e-01
9.97317970e-01
9.97318367e-01
9.97319098e-01
9.97320275e-01
9.97321954e-01
9.97324271e-01
9.97327386e-01
9.97331425e-01
9.97336536e-01
9.97342903e-01
9.97350696e-01
9.97360083e-01
9.97371252e-01
9.97384385e-01
9.97399656e-01
9.97417233e-01
9.97437281e-01
9.97459949e-01
9.97485370e-01
9.97513662e-01
9.97544925e-01
9.97579233e-01
9.97616643e-01
9.97657183e-01
9.97700859e-01
9.97747651e-01
9.97797516e-01
9.97850386e-01
9.97906170e-01
9.97964759e-01
9.98026022e-01
9.98089817e-01
9.98155985e-01
9.98224360e-01
9.98294768e-01
9.98367033e-01
9.98440978e-01
9.98516431e-01
9.98593224e-01
9.98671198e-01
9.98750207e-01
9.98830116e-01
9.98910804e-01
9.98992166e-01
9.99074112e-01
9.99156570e-01
9.99239480e-01
9.99322797e-01
9.99406493e-01
9.99490547e-01
9.99574950e-01
9.99659703e-01
9.99744810e-01
9.99830282e-01
9.99916129e-01
1.00000236e+00
1.00008900e+00
1.00017603e+00
1.00026347e+00
1.00035130e+00
1.00043952e+00
1.00052809e+00
1.00061700e+00
1.00070619e+00
1.00079562e+00
1.00088521e+00
1.00097492e+00
1.00106464e+00
1.00115429e+00
1.00124377e+00
1.00133298e+00
1.00142180e+00
1.00151011e+00
1.00159779e+00
1.00168469e+00
1.00177069e+00
1.00185563e+00
1.00193939e+00
1.00202180e+00
1.00210273e+00
1.00218202e+00
1.00225952e+00
1.00233508e+00
1.00240856e+00
1.00247981e+00
1.00254870e+00
1.00261508e+00
1.00267883e+00
1.00273983e+00
1.00279798e+00
1.00285316e+00
1.00290529e+00
1.00295430e+00
1.00300012e+00
1.00304271e+00
1.00308205e+00
1.00311811e+00
1.00315091e+00
1.00318047e+00
1.00320684e+00
1.00323008e+00
1.00325027e+00
1.00326751e+00
1.00328192e+00
1.00329365e+00
1.00330283e+00
1.00330964e+00
1.00331426e+00
1.00331687e+00
1.00331768e+00
1.00331689e+00
1.00331471e+00
1.00331137e+00
1.00330707e+00
1.00330202e+00
1.00329644e+00
1.00329054e+00
1.00328450e+00
1.00327849e+00
1.00327271e+00
1.00326733e+00
1.00326243e+00
1.00325819e+00
1.00325471e+00
1.00325202e+00
1.00325040e+00
9.97327834e-01
9.97328043e-01
9.97328340e-01
9.97328936e-01
9.97329888e-01
9.97331270e-01
9.97333200e-01
9.97335809e-01
9.97339200e-01
9.97343513e-01
9.97348917e-01
9.97355566e-01
9.97363617e-01
9.97373254e-01
9.97384654e-01
9.97397987e-01
9.97413426e-01
9.97431141e-01
9.97451287e-01
9.97474011e-01
9.97499446e-01
9.97527707e-01
9.97558892e-01
9.97593077e-01
9.97630316e-01
9.97670641e-01
9.97714059e-01
9.97760552e-01
9.97810080e-01
9.97862578e-01
9.97917960e-01
9.97976121e-01
9.98036936e-01
9.98100267e-01
9.98165961e-01
9.98233856e-01
9.98303784e-01
9.98375574e-01
9.98449054e-01
9.98524055e-01
9.98600414e-01
9.98677975e-01
9.98756594e-01
9.98836137e-01
9.98916485e-01
9.98997535e-01
9.99079195e-01
9.99161392e-01
9.99244065e-01
9.99327168e-01
9.99410668e-01
9.99494543e-01
9.99578782e-01
9.99663380e-01
9.99748339e-01
9.99833666e-01
9.99919368e-01
1.00000545e+00
1.00009193e+00
1.00017880e+00
1.00026605e+00
1.00035369e+00
1.00044169e+00
1.00053004e+00
1.00061869e+00
1.00070760e+00
1.00079672e+00
1.00088600e+00
1.00097534e+00
1.00106468e+00
1.00115393e+00
1.00124298e+00
1.00133172e+00
1.00142005e+00
1.00150784e+00
1.00159497e+00
1.00168131e+00
1.00176671e+00
1.00185104e+00
1.00193416e+00
1.00201592e+00
1.00209617e+00
1.00217478e+00
1.00225158e+00
1.00232644e+00
1.00239922e+00
1.00246977e+00
1.00253795e+00
1.00260365e+00
1.00266674e+00
1.00272710e+00
1.00278463e+00
1.00283924e+00
1.00289083e+00
1.00293935e+00
1.00298473e+00
1.00302694e+00
1.00306594e+00
1.00310175e+00
1.00313435e+00
1.00316379e+00
1.00319011e+00
1.00321337e+00
1.00323366e+00
1.00325107e+00
1.00326573e+00
1.00327777e+00
1.00328733e+00
1.00329457e+00
1.00329968e+00
1.00330284e+00
1.00330424e+00
1.00330408e+00
1.00330256e+00
1.00329990e+00
1.00329629e+00
1.00329195e+00
1.00328707e+00
1.00328186e+00
1.00327649e+00
1.00327113e+00
1.00326595e+00
1.00326112e+00
1.00325674e+00
1.00325294e+00
1.00324983e+00
1.00324745e+00
1.00324608e+00
9.97339430e-01
9.97339782e-01
9.97340233e-01
9.97341007e-01
9.97342163e-01
9.97343778e-01
9.97345969e-01
9.97348840e-01
9.97352501e-01
9.97357102e-01
9.97362786e-01
9.97369697e-01
9.97378006e-01
9.97387885e-01
9.97399498e-01
9.97413017e-01
9.97428611e-01
9.97446444e-01
9.97466668e-01
9.97489427e-01
9.97514851e-01
9.97543055e-01
9.97574134e-01
9.97608165e-01
9.97645203e-01
9.97685279e-01
9.97728402e-01
9.97774559e-01
9.97823711e-01
9.97875798e-01
9.97930738e-01
9.97988430e-01
9.98048756e-01
9.98111581e-01
9.98176758e-01
9.98244133e-01
9.98313541e-01
9.98384816e-01
9.98457792e-01
9.98532304e-01
9.98608192e-01
9.98685305e-01
9.98763500e-01
9.98842646e-01
9.98922625e-01
9.99003333e-01
9.99084681e-01
9.99166591e-01
9.99249003e-01
9.99331869e-01
9.99415153e-01
9.99498829e-01
9.99582884e-01
9.99667308e-01
9.99752101e-01
9.99837265e-01
9.99922804e-01
1.00000872e+00
1.00009502e+00
1.00018171e+00
1.00026876e+00
1.00035619e+00
1.00044396e+00
1.00053205e+00
1.00062042e+00
1.00070903e+00
1.00079783e+00
1.00088674e+00
1.00097571e+00
1.00106464e+00
1.00115344e+00
1.00124202e+00
1.00133027e+00
1.00141808e+00
1.00150531e+00
1.00159186e+00
1.00167759e+00
1.00176235e+00
1.00184603e+00
1.00192846e+00
1.00200952e+00
1.00208906e+00
1.00216693e+00
1.00224299e+00
1.00231710e+00
1.00238912e+00
1.00245891e+00
1.00252636e+00
1.00259133e+00
1.00265370e+00
1.00271337e+00
1.00277024e+00
1.00282422e+00
1.00287523e+00
1.00292321e+00
1.00296811e+00
1.00300989e+00
1.00304854e+00
1.00308405e+00
1.00311644e+00
1.00314573e+00
1.00317197e+00
1.00319524e+00
1.00321560e+00
1.00323317e+00
1.00324806e+00
1.00326040e+00
1.00327033e+00
1.00327802e+00
1.00328363e+00
1.00328733e+00
1.00328933e+00
1.00328981e+00
1.00328896e+00
1.00328699e+00
1.00328410e+00
1.00328047e+00
1.00327632e+00
1.00327181e+00
1.00326712e+00
1.00326243e+00
1.00325787e+00
1.00325360e+00
1.00324974e+00
1.00324642e+00
1.00324369e+00
1.00324163e+00
1.00324053e+00
9.97352631e-01
9.97353132e-01
9.97353767e-01
9.97354716e-01
9.97356072e-01
9.97357931e-01
9.97360370e-01
9.97363493e-01
9.97367430e-01
9.97372307e-01
9.97378251e-01
9.97385421e-01
9.97393979e-01
9.97404080e-01
9.97415890e-01
9.97429580e-01
9.97445311e-01
9.97463240e-01
9.97483518e-01
9.97506288e-01
9.97531675e-01
9.97559793e-01
9.97590736e-01
9.97624581e-01
9.97661382e-01
9.97701174e-01
9.97743966e-01
9.97789748e-01
9.97838484e-01
9.97890119e-01
9.97944575e-01
9.98001756e-01
9.98061549e-01
9.98123826e-01
9.98188444e-01
9.98255255e-01
9.98324100e-01
9.98394819e-01
9.98467250e-01
9.98541233e-01
9.98616612e-01
9.98693238e-01
9.98770973e-01
9.98849687e-01
9.98929264e-01
9.99009599e-01
9.99090602e-01
9.99172197e-01
9.99254321e-01
9.99336922e-01
9.99419963e-01
9.99503416e-01
9.99587262e-01
9.99671490e-01
9.99756093e-01
9.99841072e-01
9.99926425e-01
1.00001215e+00
1.00009826e+00
1.00018473e+00
1.00027157e+00
1.00035876e+00
1.00044627e+00
1.00053408e+00
1.00062215e+00
1.00071043e+00
1.00079887e+00
1.00088741e+00
1.00097596e+00
1.00106445e+00
1.00115278e+00
1.00124086e+00
1.00132858e+00
1.00141582e+00
1.00150247e+00
1.00158839e+00
1.00167347e+00
1.00175756e+00
1.00184053e+00
1.00192224e+00
1.00200256e+00
1.00208133e+00
1.00215841e+00
1.00223368e+00
1.00230699e+00
1.00237821e+00
1.00244721e+00
1.00251386e+00
1.00257804e+00
1.00263965e+00
1.00269859e+00
1.00275475e+00
1.00280806e+00
1.00285844e+00
1.00290584e+00
1.00295022e+00
1.00299154e+00
1.00302979e+00
1.00306498e+00
1.00309711e+00
1.00312622e+00
1.00315237e+00
1.00317561e+00
1.00319604e+00
1.00321375e+00
1.00322886e+00
1.00324149e+00
1.00325179e+00
1.00325991e+00
1.00326601e+00
1.00327027e+00
1.00327286e+00
1.00327398e+00
1.00327382e+00
1.00327255e+00
1.00327037e+00
1.00326748e+00
1.00326404e+00
1.00326025e+00
1.00325626e+00
1.00325223e+00
1.00324831e+00
1.00324462e+00
1.00324130e+00
1.00323843e+00
1.00323610e+00
1.00323440e+00
1.00323358e+00
9.97367602e-01
9.97368252e-01
9.97369059e-01
9.97370197e-01
9.97371764e-01
9.97373847e-01
9.97376526e-01
9.97379908e-01
9.97384108e-01
9.97389239e-01
9.97395439e-01
9.97402859e-01
9.97411643e-01
9.97421949e-01
9.97433941e-01
9.97447781e-01
9.97463623e-01
9.97481625e-01
9.97501934e-01
9.97524687e-01
9.97550008e-01
9.97578009e-01
9.97608783e-01
9.97642408e-01
9.97678937e-01
9.97718407e-01
9.97760829e-01
9.97806196e-01
9.97854475e-01
9.97905616e-01
9.97959545e-01
9.98016172e-01
9.98075388e-01
9.98137071e-01
9.98201086e-01
9.98267289e-01
9.98335527e-01
9.98405646e-01
9.98477489e-01
9.98550900e-01
9.98625728e-01
9.98701828e-01
9.98779063e-01
9.98857307e-01
9.98936443e-01
9.99016369e-01
9.99096993e-01
9.99178239e-01
9.99260041e-01
9.99342347e-01
9.99425115e-01
9.99508315e-01
9.99591923e-01
9.99675925e-01
9.99760312e-01
9.99845078e-01
9.99930220e-01
1.00001573e+00
1.00010161e+00
1.00018786e+00
1.00027444e+00
1.00036137e+00
1.00044859e+00
1.00053610e+00
1.00062383e+00
1.00071176e+00
1.00079982e+00
1.00088794e+00
1.00097605e+00
1.00106406e+00
1.00115189e+00
1.00123943e+00
1.00132658e+00
1.00141322e+00
1.00149924e+00
1.00158451e+00
1.00166889e+00
1.00175227e+00
1.00183449e+00
1.00191544e+00
1.00199496e+00
1.00207292e+00
1.00214918e+00
1.00222361e+00
1.00229607e+00
1.00236644e+00
1.00243459e+00
1.00250040e+00
1.00256375e+00
1.00262455e+00
1.00268270e+00
1.00273811e+00
1.00279070e+00
1.00284041e+00
1.00288720e+00
1.00293101e+00
1.00297183e+00
1.00300965e+00
1.00304447e+00
1.00307631e+00
1.00310521e+00
1.00313123e+00
1.00315443e+00
1.00317490e+00
1.00319273e+00
1.00320804e+00
1.00322095e+00
1.00323160e+00
1.00324014e+00
1.00324673e+00
1.00325153e+00
1.00325473e+00
1.00325649e+00
1.00325699e+00
1.00325643e+00
1.00325498e+00
1.00325281e+00
1.00325011e+00
1.00324703e+00
1.00324375e+00
1.00324039e+00
1.00323710e+00
1.00323400e+00
1.00323121e+00
1.00322882e+00
1.00322691e+00
1.00322558e+00
1.00322504e+00
9.97384468e-01
9.97385276e-01
9.97386258e-01
9.97387588e-01
9.97389362e-01
9.97391661e-01
9.97394576e-01
9.97398208e-01
9.97402651e-01
9.97408027e-01
9.97414471e-01
9.97422117e-01
9.97431108e-01
9.97441603e-01
9.97453755e-01
9.97467718e-01
9.97483649e-01
9.97501698e-01
9.97522008e-01
9.97544713e-01
9.97569937e-01
9.97597788e-01
9.97628360e-01
9.97661727e-01
9.97697947e-01
9.97737056e-01
9.97779068e-01
9.97823978e-01
9.97871759e-01
9.97922362e-01
9.97975720e-01
9.98031747e-01
9.98090341e-01
9.98151385e-01
9.98214751e-01
9.98280299e-01
9.98347885e-01
9.98417358e-01
9.98488567e-01
9.98561361e-01
9.98635595e-01
9.98711125e-01
9.98787818e-01
9.98865549e-01
9.98944204e-01
9.99023680e-01
9.99103887e-01
9.99184745e-01
9.99266189e-01
9.99348162e-01
9.99430622e-01
9.99513534e-01
9.99596871e-01
9.99680615e-01
9.99764753e-01
9.99849274e-01
9.99934172e-01
1.00001944e+00
1.00010507e+00
1.00019104e+00
1.00027735e+00
1.00036398e+00
1.00045089e+00
1.00053805e+00
1.00062543e+00
1.00071296e+00
1.00080060e+00
1.00088828e+00
1.00097591e+00
1.00106342e+00
1.00115071e+00
1.00123768e+00
1.00132422e+00
1.00141023e+00
1.00149557e+00
1.00158014e+00
1.00166380e+00
1.00174641e+00
1.00182785e+00
1.00190799e+00
1.00198667e+00
1.00206378e+00
1.00213917e+00
1.00221272e+00
1.00228429e+00
1.00235376e+00
1.00242101e+00
1.00248593e+00
1.00254841e+00
1.00260835e+00
1.00266567e+00
1.00272028e+00
1.00277211e+00
1.00282111e+00
1.00286723e+00
1.00291044e+00
1.00295071e+00
1.00298806e+00
1.00302248e+00
1.00305400e+00
1.00308266e+00
1.00310853e+00
1.00313165e+00
1.00315213e+00
1.00317006e+00
1.00318554e+00
1.00319871e+00
1.00320970e+00
1.00321865e+00
1.00322571e+00
1.00323105e+00
1.00323483e+00
1.00323722e+00
1.00323840e+00
1.00323853e+00
1.00323780e+00
1.00323636e+00
1.00323438e+00
1.00323203e+00
1.00322943e+00
1.00322675e+00
1.00322410e+00
1.00322159e+00
1.00321933e+00
1.00321742e+00
1.00321593e+00
1.00321497e+00
1.00321473e+00
9.97403370e-01
9.97404344e-01
9.97405508e-01
9.97407020e-01
9.97408991e-01
9.97411505e-01
9.97414648e-01
9.97418507e-01
9.97423182e-01
9.97428792e-01
9.97435456e-01
9.97443306e-01
9.97452487e-01
9.97463146e-01
9.97475430e-01
9.97489492e-01
9.97505484e-01
9.97523550e-01
9.97543830e-01
9.97566456e-01
9.97591548e-01
9.97619214e-01
9.97649546e-01
9.97682619e-01
9.97718490e-01
9.97757197e-01
9.97798758e-01
9.97843169e-01
9.97890406e-01
9.97940427e-01
9.97993168e-01
9.98048549e-01
9.98106475e-01
9.98166833e-01
9.98229501e-01
9.98294348e-01
9.98361233e-01
9.98430013e-01
9.98500541e-01
9.98572672e-01
9.98646263e-01
9.98721177e-01
9.98797282e-01
9.98874455e-01
9.98952585e-01
9.99031568e-01
9.99111313e-01
9.99191742e-01
9.99272785e-01
9.99354386e-01
9.99436497e-01
9.99519082e-01
9.99602109e-01
9.99685557e-01
9.99769408e-01
9.99853649e-01
9.99938266e-01
1.00002325e+00
1.00010859e+00
1.00019426e+00
1.00028026e+00
1.00036655e+00
1.00045312e+00
1.00053991e+00
1.00062689e+00
1.00071400e+00
1.00080119e+00
1.00088838e+00
1.00097550e+00
1.00106246e+00
1.00114917e+00
1.00123553e+00
1.00132144e+00
1.00140677e+00
1.00149141e+00
1.00157524e+00
1.00165812e+00
1.00173994e+00
1.00182055e+00
1.00189983e+00
1.00197764e+00
1.00205385e+00
1.00212833e+00
1.00220094e+00
1.00227158e+00
1.00234011e+00
1.00240642e+00
1.00247040e+00
1.00253196e+00
1.00259100e+00
1.00264744e+00
1.00270121e+00
1.00275223e+00
1.00280047e+00
1.00284589e+00
1.00288845e+00
1.00292814e+00
1.00296498e+00
1.00299896e+00
1.00303012e+00
1.00305851e+00
1.00308418e+00
1.00310720e+00
1.00312766e+00
1.00314566e+00
1.00316130e+00
1.00317470e+00
1.00318600e+00
1.00319533e+00
1.00320285e+00
1.00320871e+00
1.00321306e+00
1.00321607e+00
1.00321790e+00
1.00321872e+00
1.00321869e+00
1.00321797e+00
1.00321671e+00
1.00321506e+00
1.00321317e+00
1.00321115e+00
1.00320912e+00
1.00320720e+00
1.00320548e+00
1.00320405e+00
1.00320298e+00
1.00320240e+00
1.00320247e+00
9.97424453e-01
9.97425589e-01
9.97426932e-01
9.97428622e-01
9.97430783e-01
9.97433502e-01
9.97436855e-01
9.97440928e-01
9.97445821e-01
9.97451640e-01
9.97458501e-01
9.97466536e-01
9.97475881e-01
9.97486675e-01
9.97499064e-01
9.97513198e-01
9.97529218e-01
9.97547268e-01
9.97567485e-01
9.97589997e-01
9.97614921e-01
9.97642365e-01
9.97672418e-01
9.97705157e-01
9.97740638e-01
9.97778902e-01
9.97819968e-01
9.97863835e-01
9.97910485e-01
9.97959877e-01
9.98011955e-01
9.98066644e-01
9.98123852e-01
9.98183476e-01
9.98245399e-01
9.98309495e-01
9.98375630e-01
9.98443667e-01
9.98513464e-01
9.98584882e-01
9.98657782e-01
9.98732030e-01
9.98807498e-01
9.98884066e-01
9.98961622e-01
9.99040064e-01
9.99119301e-01
9.99199253e-01
9.99279851e-01
9.99361033e-01
9.99442751e-01
9.99524964e-01
9.99607639e-01
9.99690748e-01
9.99774271e-01
9.99858188e-01
9.99942485e-01
1.00002715e+00
1.00011215e+00
1.00019749e+00
1.00028314e+00
1.00036906e+00
1.00045523e+00
1.00054162e+00
1.00062816e+00