# vtk DataFile Version 2.0
LBM Flow Field - Timestep 1680
ASCII
DATASET STRUCTURED_POINTS
DIMENSIONS 128 128 1
ORIGIN 0.0 0.0 0.0
SPACING 1.0 1.0 1.0
POINT_DATA 16384
SCALARS density double 1
LOOKUP_TABLE default
1.00132509e+00
1.00134495e+00
1.00136997e+00
1.00138937e+00
1.00141465e+00
1.00144564e+00
1.00148067e+00
1.00151952e+00
1.00156248e+00
1.00160911e+00
1.00165904e+00
1.00171188e+00
1.00176718e+00
1.00182449e+00
1.00188331e+00
1.00194312e+00
1.00200339e+00
1.00206360e+00
1.00212319e+00
1.00218165e+00
1.00223844e+00
1.00229306e+00
1.00234504e+00
1.00239393e+00
1.00243930e+00
1.00248078e+00
1.00251803e+00
1.00255077e+00
1.00257873e+00
1.00260170e+00
1.00261952e+00
1.00263206e+00
1.00263920e+00
1.00264089e+00
1.00263708e+00
1.00262773e+00
1.00261283e+00
1.00259238e+00
1.00256637e+00
1.00253481e+00
1.00249768e+00
1.00245497e+00
1.00240669e+00
1.00235281e+00
1.00229332e+00
1.00222821e+00
1.00215750e+00
1.00208119e+00
1.00199934e+00
1.00191201e+00
1.00181931e+00
1.00172139e+00
1.00161844e+00
1.00151069e+00
1.00139845e+00
1.00128204e+00
1.00116185e+00
1.00103832e+00
1.00091190e+00
1.00078309e+00
1.00065243e+00
1.00052044e+00
1.00038768e+00
1.00025470e+00
1.00012204e+00
9.99990237e-01
9.99859806e-01
9.99731238e-01
9.99604999e-01
9.99481525e-01
9.99361225e-01
9.99244475e-01
9.99131624e-01
9.99022988e-01
9.98918858e-01
9.98819499e-01
9.98725149e-01
9.98636026e-01
9.98552324e-01
9.98474218e-01
9.98401864e-01
9.98335398e-01
9.98274936e-01
9.98220576e-01
9.98172394e-01
9.98130446e-01
9.98094764e-01
9.98065354e-01
9.98042196e-01
9.98025243e-01
9.98014415e-01
9.98009601e-01
9.98010657e-01
9.98017402e-01
9.98029623e-01
9.98047070e-01
9.98069458e-01
9.98096468e-01
9.98127751e-01
9.98162927e-01
9.98201591e-01
9.98243315e-01
9.98287655e-01
9.98334154e-01
9.98382347e-01
9.98431768e-01
9.98481959e-01
9.98532467e-01
9.98582860e-01
9.98632727e-01
9.98681682e-01
9.98729371e-01
9.98775474e-01
9.98819709e-01
9.98861834e-01
9.98901643e-01
9.98938968e-01
9.98973660e-01
9.99005661e-01
9.99034938e-01
9.99061397e-01
9.99084909e-01
9.99106174e-01
9.99125123e-01
9.99140336e-01
9.99152260e-01
9.99171413e-01
9.99187452e-01
1.00134528e+00
1.00135863e+00
1.00138039e+00
1.00140053e+00
1.00142665e+00
1.00145690e+00
1.00149169e+00
1.00153039e+00
1.00157312e+00
1.00161936e+00
1.00166889e+00
1.00172126e+00
1.00177607e+00
1.00183283e+00
1.00189107e+00
1.00195026e+00
1.00200990e+00
1.00206946e+00
1.00212839e+00
1.00218618e+00
1.00224231e+00
1.00229628e+00
1.00234763e+00
1.00239591e+00
1.00244070e+00
1.00248164e+00
1.00251840e+00
1.00255067e+00
1.00257822e+00
1.00260083e+00
1.00261833e+00
1.00263058e+00
1.00263750e+00
1.00263899e+00
1.00263502e+00
1.00262554e+00
1.00261055e+00
1.00259003e+00
1.00256397e+00
1.00253237e+00
1.00249522e+00
1.00245252e+00
1.00240424e+00
1.00235037e+00
1.00229091e+00
1.00222584e+00
1.00215517e+00
1.00207892e+00
1.00199714e+00
1.00190989e+00
1.00181728e+00
1.00171947e+00
1.00161664e+00
1.00150904e+00
1.00139695e+00
1.00128072e+00
1.00116072e+00
1.00103738e+00
1.00091117e+00
1.00078259e+00
1.00065215e+00
1.00052041e+00
1.00038789e+00
1.00025517e+00
1.00012277e+00
9.99991236e-01
9.99861073e-01
9.99732775e-01
9.99606804e-01
9.99483598e-01
9.99363560e-01
9.99247066e-01
9.99134460e-01
9.99026056e-01
9.98922143e-01
9.98822980e-01
9.98728803e-01
9.98639826e-01
9.98556240e-01
9.98478216e-01
9.98405907e-01
9.98339446e-01
9.98278947e-01
9.98224506e-01
9.98176199e-01
9.98134078e-01
9.98098176e-01
9.98068500e-01
9.98045031e-01
9.98027722e-01
9.98016494e-01
9.98011241e-01
9.98011818e-01
9.98018051e-01
9.98029729e-01
9.98046606e-01
9.98068402e-01
9.98094803e-01
9.98125464e-01
9.98160013e-01
9.98198048e-01
9.98239150e-01
9.98282879e-01
9.98328783e-01
9.98376405e-01
9.98425284e-01
9.98474965e-01
9.98525004e-01
9.98574969e-01
9.98624453e-01
9.98673074e-01
9.98720478e-01
9.98766349e-01
9.98810401e-01
9.98852392e-01
9.98892108e-01
9.98929396e-01
9.98964100e-01
9.98996158e-01
9.99025465e-01
9.99052105e-01
9.99075874e-01
9.99097218e-01
9.99115781e-01
9.99132147e-01
9.99144795e-01
9.99160927e-01
9.99171246e-01
1.00137223e+00
1.00138223e+00
1.00139570e+00
1.00141815e+00
1.00144473e+00
1.00147401e+00
1.00150823e+00
1.00154678e+00
1.00158905e+00
1.00163480e+00
1.00168379e+00
1.00173557e+00
1.00178973e+00
1.00184581e+00
1.00190331e+00
1.00196174e+00
1.00202060e+00
1.00207934e+00
1.00213745e+00
1.00219441e+00
1.00224972e+00
1.00230288e+00
1.00235343e+00
1.00240094e+00
1.00244500e+00
1.00248525e+00
1.00252135e+00
1.00255303e+00
1.00258002e+00
1.00260213e+00
1.00261919e+00
1.00263105e+00
1.00263762e+00
1.00263883e+00
1.00263461e+00
1.00262493e+00
1.00260977e+00
1.00258912e+00
1.00256296e+00
1.00253129e+00
1.00249409e+00
1.00245135e+00
1.00240305e+00
1.00234918e+00
1.00228972e+00
1.00222466e+00
1.00215401e+00
1.00207779e+00
1.00199604e+00
1.00190882e+00
1.00181626e+00
1.00171849e+00
1.00161572e+00
1.00150818e+00
1.00139615e+00
1.00127999e+00
1.00116007e+00
1.00103682e+00
1.00091072e+00
1.00078225e+00
1.00065195e+00
1.00052034e+00
1.00038799e+00
1.00025544e+00
1.00012324e+00
9.99991910e-01
9.99861971e-01
9.99733908e-01
9.99608185e-01
9.99485234e-01
9.99365456e-01
9.99249222e-01
9.99136870e-01
9.99028712e-01
9.98925027e-01
9.98826070e-01
9.98732072e-01
9.98643240e-01
9.98559760e-01
9.98481798e-01
9.98409502e-01
9.98343001e-01
9.98282408e-01
9.98227813e-01
9.98179292e-01
9.98136898e-01
9.98100662e-01
9.98070592e-01
9.98046671e-01
9.98028854e-01
9.98017067e-01
9.98011204e-01
9.98011128e-01
9.98016668e-01
9.98027619e-01
9.98043740e-01
9.98064757e-01
9.98090364e-01
9.98120222e-01
9.98153965e-01
9.98191199e-01
9.98231511e-01
9.98274469e-01
9.98319627e-01
9.98366533e-01
9.98414735e-01
9.98463781e-01
9.98513230e-01
9.98562659e-01
9.98611660e-01
9.98659853e-01
9.98706888e-01
9.98752446e-01
9.98796243e-01
9.98838032e-01
9.98877599e-01
9.98914777e-01
9.98949441e-01
9.98981482e-01
9.99010763e-01
9.99037439e-01
9.99061557e-01
9.99082692e-01
9.99100574e-01
9.99117713e-01
9.99132800e-01
9.99141594e-01
9.99148965e-01
1.00139607e+00
1.00140669e+00
1.00142193e+00
1.00144313e+00
1.00146749e+00
1.00149681e+00
1.00153084e+00
1.00156871e+00
1.00161030e+00
1.00165545e+00
1.00170375e+00
1.00175476e+00
1.00180810e+00
1.00186331e+00
1.00191991e+00
1.00197740e+00
1.00203528e+00
1.00209303e+00
1.00215013e+00
1.00220609e+00
1.00226040e+00
1.00231258e+00
1.00236217e+00
1.00240876e+00
1.00245194e+00
1.00249135e+00
1.00252667e+00
1.00255761e+00
1.00258394e+00
1.00260545e+00
1.00262196e+00
1.00263334e+00
1.00263949e+00
1.00264033e+00
1.00263580e+00
1.00262585e+00
1.00261047e+00
1.00258964e+00
1.00256333e+00
1.00253153e+00
1.00249422e+00
1.00245139e+00
1.00240302e+00
1.00234908e+00
1.00228957e+00
1.00222446e+00
1.00215376e+00
1.00207749e+00
1.00199569e+00
1.00190844e+00
1.00181583e+00
1.00171803e+00
1.00161523e+00
1.00150766e+00
1.00139562e+00
1.00127946e+00
1.00115955e+00
1.00103633e+00
1.00091027e+00
1.00078187e+00
1.00065165e+00
1.00052016e+00
1.00038794e+00
1.00025554e+00
1.00012351e+00
9.99992379e-01
9.99862657e-01
9.99734829e-01
9.99609355e-01
9.99486662e-01
9.99367148e-01
9.99251178e-01
9.99139084e-01
9.99031170e-01
9.98927711e-01
9.98828954e-01
9.98735122e-01
9.98646417e-01
9.98563018e-01
9.98485086e-01
9.98412764e-01
9.98346176e-01
9.98285430e-01
9.98230616e-01
9.98181807e-01
9.98139055e-01
9.98102391e-01
9.98071825e-01
9.98047340e-01
9.98028894e-01
9.98016418e-01
9.98009808e-01
9.98008934e-01
9.98013629e-01
9.98023694e-01
9.98038894e-01
9.98058964e-01
9.98083604e-01
9.98112482e-01
9.98145240e-01
9.98181494e-01
9.98220837e-01
9.98262844e-01
9.98307080e-01
9.98353098e-01
9.98400453e-01
9.98448700e-01
9.98497404e-01
9.98546144e-01
9.98594519e-01
9.98642150e-01
9.98688689e-01
9.98733815e-01
9.98777244e-01
9.98818730e-01
9.98858058e-01
9.98895043e-01
9.98929548e-01
9.98961506e-01
9.98990808e-01
9.99017334e-01
9.99041225e-01
9.99062640e-01
9.99081023e-01
9.99096382e-01
9.99110396e-01
9.99120674e-01
9.99128847e-01
1.00142746e+00
1.00143830e+00
1.00145382e+00
1.00147279e+00
1.00149669e+00
1.00152603e+00
1.00155913e+00
1.00159615e+00
1.00163710e+00
1.00168146e+00
1.00172884e+00
1.00177891e+00
1.00183125e+00
1.00188539e+00
1.00194088e+00
1.00199722e+00
1.00205392e+00
1.00211047e+00
1.00216637e+00
1.00222111e+00
1.00227422e+00
1.00232523e+00
1.00237368e+00
1.00241916e+00
1.00246128e+00
1.00249970e+00
1.00253408e+00
1.00256416e+00
1.00258970e+00
1.00261048e+00
1.00262634e+00
1.00263715e+00
1.00264279e+00
1.00264318e+00
1.00263827e+00
1.00262799e+00
1.00261233e+00
1.00259126e+00
1.00256474e+00
1.00253277e+00
1.00249531e+00
1.00245235e+00
1.00240385e+00
1.00234980e+00
1.00229018e+00
1.00222496e+00
1.00215416e+00
1.00207778e+00
1.00199587e+00
1.00190851e+00
1.00181581e+00
1.00171791e+00
1.00161501e+00
1.00150736e+00
1.00139525e+00
1.00127903e+00
1.00115908e+00
1.00103585e+00
1.00090979e+00
1.00078142e+00
1.00065126e+00
1.00051985e+00
1.00038774e+00
1.00025549e+00
1.00012363e+00
9.99992700e-01
9.99863203e-01
9.99735622e-01
9.99610412e-01
9.99487996e-01
9.99368766e-01
9.99253079e-01
9.99141262e-01
9.99033610e-01
9.98930390e-01
9.98831842e-01
9.98738181e-01
9.98649601e-01
9.98566273e-01
9.98488353e-01
9.98415976e-01
9.98349262e-01
9.98288316e-01
9.98233225e-01
9.98184057e-01
9.98140865e-01
9.98103680e-01
9.98072512e-01
9.98047347e-01
9.98028146e-01
9.98014842e-01
9.98007339e-01
9.98005509e-01
9.98009192e-01
9.98018197e-01
9.98032296e-01
9.98051231e-01
9.98074711e-01
9.98102414e-01
9.98133989e-01
9.98169063e-01
9.98207237e-01
9.98248096e-01
9.98291214e-01
9.98336153e-01
9.98382476e-01
9.98429744e-01
9.98477531e-01
9.98525420e-01
9.98573015e-01
9.98619940e-01
9.98665847e-01
9.98710419e-01
9.98753369e-01
9.98794443e-01
9.98833430e-01
9.98870151e-01
9.98904431e-01
9.98936170e-01
9.98965377e-01
9.98991901e-01
9.99015506e-01
9.99036554e-01
9.99055395e-01
9.99070551e-01
9.99082805e-01
9.99093679e-01
9.99101927e-01
1.00146581e+00
1.00147557e+00
1.00149000e+00
1.00150881e+00
1.00153268e+00
1.00156075e+00
1.00159288e+00
1.00162928e+00
1.00166935e+00
1.00171266e+00
1.00175898e+00
1.00180793e+00
1.00185907e+00
1.00191196e+00
1.00196614e+00
1.00202113e+00
1.00207644e+00
1.00213158e+00
1.00218606e+00
1.00223939e+00
1.00229110e+00
1.00234073e+00
1.00238785e+00
1.00243204e+00
1.00247294e+00
1.00251019e+00
1.00254349e+00
1.00257256e+00
1.00259716e+00
1.00261710e+00
1.00263220e+00
1.00264232e+00
1.00264736e+00
1.00264723e+00
1.00264186e+00
1.00263119e+00
1.00261519e+00
1.00259382e+00
1.00256706e+00
1.00253486e+00
1.00249721e+00
1.00245407e+00
1.00240542e+00
1.00235121e+00
1.00229144e+00
1.00222607e+00
1.00215512e+00
1.00207859e+00
1.00199653e+00
1.00190902e+00
1.00181616e+00
1.00171811e+00
1.00161507e+00
1.00150729e+00
1.00139506e+00
1.00127874e+00
1.00115871e+00
1.00103541e+00
1.00090932e+00
1.00078095e+00
1.00065082e+00
1.00051947e+00
1.00038746e+00
1.00025534e+00
1.00012365e+00
9.99992925e-01
9.99863658e-01
9.99736333e-01
9.99611401e-01
9.99489279e-01
9.99370350e-01
9.99254966e-01
9.99143444e-01
9.99036072e-01
9.98933106e-01
9.98834777e-01
9.98741293e-01
9.98652836e-01
9.98569572e-01
9.98491647e-01
9.98419191e-01
9.98352317e-01
9.98291125e-01
9.98235698e-01
9.98186104e-01
9.98142393e-01
9.98104595e-01
9.98072723e-01
9.98046763e-01
9.98026681e-01
9.98012414e-01
9.98003869e-01
9.98000927e-01
9.98003434e-01
9.98011205e-01
9.98024024e-01
9.98041638e-01
9.98063768e-01
9.98090101e-01
9.98120298e-01
9.98153994e-01
9.98190803e-01
9.98230320e-01
9.98272128e-01
9.98315801e-01
9.98360909e-01
9.98407024e-01
9.98453726e-01
9.98500605e-01
9.98547269e-01
9.98593346e-01
9.98638491e-01
9.98682387e-01
9.98724746e-01
9.98765311e-01
9.98803856e-01
9.98840209e-01
9.98874220e-01
9.98905715e-01
9.98934611e-01
9.98960983e-01
9.98984683e-01
9.99005351e-01
9.99023415e-01
9.99038929e-01
9.99051332e-01
9.99061289e-01
9.99068540e-01
1.00150931e+00
1.00151869e+00
1.00153241e+00
1.00155090e+00
1.00157380e+00
1.00160087e+00
1.00163240e+00
1.00166784e+00
1.00170671e+00
1.00174890e+00
1.00179404e+00
1.00184167e+00
1.00189142e+00
1.00194286e+00
1.00199554e+00
1.00204897e+00
1.00210270e+00
1.00215623e+00
1.00220909e+00
1.00226080e+00
1.00231092e+00
1.00235898e+00
1.00240457e+00
1.00244730e+00
1.00248680e+00
1.00252273e+00
1.00255479e+00
1.00258271e+00
1.00260625e+00
1.00262523e+00
1.00263946e+00
1.00264881e+00
1.00265316e+00
1.00265242e+00
1.00264652e+00
1.00263540e+00
1.00261900e+00
1.00259730e+00
1.00257024e+00
1.00253778e+00
1.00249990e+00
1.00245656e+00
1.00240770e+00
1.00235331e+00
1.00229336e+00
1.00222781e+00
1.00215667e+00
1.00207995e+00
1.00199770e+00
1.00190999e+00
1.00181694e+00
1.00171870e+00
1.00161547e+00
1.00150751e+00
1.00139512e+00
1.00127865e+00
1.00115850e+00
1.00103510e+00
1.00090895e+00
1.00078054e+00
1.00065040e+00
1.00051910e+00
1.00038717e+00
1.00025517e+00
1.00012363e+00
9.99993099e-01
9.99864060e-01
9.99736994e-01
9.99612344e-01
9.99490521e-01
9.99371902e-01
9.99256830e-01
9.99145612e-01
9.99038527e-01
9.98935821e-01
9.98837715e-01
9.98744406e-01
9.98656067e-01
9.98572854e-01
9.98494905e-01
9.98422342e-01
9.98355273e-01
9.98293791e-01
9.98237975e-01
9.98187890e-01
9.98143585e-01
9.98105090e-01
9.98072417e-01
9.98045556e-01
9.98024476e-01
9.98009118e-01
9.97999396e-01
9.97995196e-01
9.97996372e-01
9.98002749e-01
9.98014117e-01
9.98030237e-01
9.98050838e-01
9.98075619e-01
9.98104252e-01
9.98136384e-01
9.98171642e-01
9.98209632e-01
9.98249948e-01
9.98292176e-01
9.98335896e-01
9.98380690e-01
9.98426145e-01
9.98471860e-01
9.98517448e-01
9.98562542e-01
9.98606799e-01
9.98649899e-01
9.98691554e-01
9.98731512e-01
9.98769539e-01
9.98805428e-01
9.98839044e-01
9.98870271e-01
9.98898917e-01
9.98924910e-01
9.98948398e-01
9.98969108e-01
9.98986730e-01
9.99001810e-01
9.99014226e-01
9.99023675e-01
9.99030635e-01
1.00155792e+00
1.00156708e+00
1.00158051e+00
1.00159823e+00
1.00162022e+00
1.00164663e+00
1.00167718e+00
1.00171137e+00
1.00174909e+00
1.00179004e+00
1.00183376e+00
1.00187991e+00
1.00192811e+00
1.00197792e+00
1.00202890e+00
1.00208059e+00
1.00213253e+00
1.00218426e+00
1.00223530e+00
1.00228521e+00
1.00233354e+00
1.00237986e+00
1.00242375e+00
1.00246485e+00
1.00250279e+00
1.00253724e+00
1.00256792e+00
1.00259455e+00
1.00261692e+00
1.00263482e+00
1.00264808e+00
1.00265656e+00
1.00266015e+00
1.00265873e+00
1.00265224e+00
1.00264061e+00
1.00262378e+00
1.00260168e+00
1.00257429e+00
1.00254155e+00
1.00250340e+00
1.00245982e+00
1.00241074e+00
1.00235613e+00
1.00229596e+00
1.00223020e+00
1.00215884e+00
1.00208191e+00
1.00199943e+00
1.00191149e+00
1.00181820e+00
1.00171973e+00
1.00161627e+00
1.00150809e+00
1.00139550e+00
1.00127884e+00
1.00115852e+00
1.00103499e+00
1.00090873e+00
1.00078025e+00
1.00065009e+00
1.00051879e+00
1.00038692e+00
1.00025501e+00
1.00012362e+00
9.99993265e-01
9.99864442e-01
9.99737624e-01
9.99613249e-01
9.99491721e-01
9.99373408e-01
9.99258644e-01
9.99147727e-01
9.99040924e-01
9.98938473e-01
9.98840582e-01
9.98747436e-01
9.98659201e-01
9.98576020e-01
9.98498023e-01
9.98425323e-01
9.98358021e-01
9.98296204e-01
9.98239948e-01
9.98189312e-01
9.98144343e-01
9.98105072e-01
9.98071512e-01
9.98043654e-01
9.98021471e-01
9.98004908e-01
9.97993885e-01
9.97988296e-01
9.97988003e-01
9.97992839e-01
9.98002605e-01
9.98017072e-01
9.98035981e-01
9.98059043e-01
9.98085943e-01
9.98116341e-01
9.98149875e-01
9.98186166e-01
9.98224822e-01
9.98265438e-01
9.98307608e-01
9.98350923e-01
9.98394981e-01
9.98439387e-01
9.98483761e-01
9.98527741e-01
9.98570986e-01
9.98613179e-01
9.98654027e-01
9.98693271e-01
9.98730688e-01
9.98766063e-01
9.98799205e-01
9.98830011e-01
9.98858391e-01
9.98884131e-01
9.98907177e-01
9.98927649e-01
9.98945264e-01
9.98959920e-01
9.98971915e-01
9.98981322e-01
9.98988213e-01
1.00161203e+00
1.00162084e+00
1.00163375e+00
1.00165072e+00
1.00167199e+00
1.00169747e+00
1.00172681e+00
1.00175984e+00
1.00179631e+00
1.00183578e+00
1.00187794e+00
1.00192247e+00
1.00196894e+00
1.00201694e+00
1.00206604e+00
1.00211580e+00
1.00216577e+00
1.00221551e+00
1.00226456e+00
1.00231248e+00
1.00235885e+00
1.00240324e+00
1.00244527e+00
1.00248457e+00
1.00252080e+00
1.00255364e+00
1.00258280e+00
1.00260803e+00
1.00262910e+00
1.00264582e+00
1.00265802e+00
1.00266555e+00
1.00266829e+00
1.00266614e+00
1.00265900e+00
1.00264681e+00
1.00262949e+00
1.00260697e+00
1.00257921e+00
1.00254614e+00
1.00250771e+00
1.00246386e+00
1.00241454e+00
1.00235969e+00
1.00229928e+00
1.00223328e+00
1.00216168e+00
1.00208449e+00
1.00200175e+00
1.00191355e+00
1.00182000e+00
1.00172125e+00
1.00161754e+00
1.00150910e+00
1.00139626e+00
1.00127938e+00
1.00115886e+00
1.00103516e+00
1.00090875e+00
1.00078017e+00
1.00064995e+00
1.00051863e+00
1.00038678e+00
1.00025495e+00
1.00012367e+00
9.99993467e-01
9.99864838e-01
9.99738249e-01
9.99614130e-01
9.99492879e-01
9.99374857e-01
9.99260386e-01
9.99149755e-01
9.99043220e-01
9.98941007e-01
9.98843313e-01
9.98750313e-01
9.98662159e-01
9.98578985e-01
9.98500911e-01
9.98428041e-01
9.98360469e-01
9.98298274e-01
9.98241526e-01
9.98190283e-01
9.98144587e-01
9.98104470e-01
9.98069943e-01
9.98041002e-01
9.98017621e-01
9.97999751e-01
9.97987318e-01
9.97980222e-01
9.97978335e-01
9.97981498e-01
9.97989524e-01
9.98002195e-01
9.98019264e-01
9.98040456e-01
9.98065468e-01
9.98093975e-01
9.98125629e-01
9.98160064e-01
9.98196902e-01
9.98235753e-01
9.98276221e-01
9.98317910e-01
9.98360428e-01
9.98403389e-01
9.98446419e-01
9.98489162e-01
9.98531278e-01
9.98572453e-01
9.98612398e-01
9.98650840e-01
9.98687544e-01
9.98722316e-01
9.98754960e-01
9.98785289e-01
9.98813229e-01
9.98838698e-01
9.98861471e-01
9.98881530e-01
9.98898911e-01
9.98913388e-01
9.98925062e-01
9.98934245e-01
9.98940881e-01
1.00167126e+00
1.00167962e+00
1.00169197e+00
1.00170826e+00
1.00172867e+00
1.00175307e+00
1.00178125e+00
1.00181301e+00
1.00184799e+00
1.00188588e+00
1.00192638e+00
1.00196911e+00
1.00201368e+00
1.00205971e+00
1.00210676e+00
1.00215442e+00
1.00220225e+00
1.00224982e+00
1.00229670e+00
1.00234246e+00
1.00238669e+00
1.00242900e+00
1.00246901e+00
1.00250637e+00
1.00254074e+00
1.00257182e+00
1.00259934e+00
1.00262305e+00
1.00264272e+00
1.00265817e+00
1.00266921e+00
1.00267572e+00
1.00267754e+00
1.00267459e+00
1.00266676e+00
1.00265395e+00
1.00263611e+00
1.00261314e+00
1.00258498e+00
1.00255156e+00
1.00251282e+00
1.00246868e+00
1.00241909e+00
1.00236398e+00
1.00230331e+00
1.00223705e+00
1.00216518e+00
1.00208772e+00
1.00200470e+00
1.00191621e+00
1.00182236e+00
1.00172332e+00
1.00161931e+00
1.00151059e+00
1.00139747e+00
1.00128033e+00
1.00115958e+00
1.00103567e+00
1.00090909e+00
1.00078037e+00
1.00065005e+00
1.00051868e+00
1.00038682e+00
1.00025503e+00
1.00012383e+00
9.99993753e-01
9.99865289e-01
9.99738899e-01
9.99615009e-01
9.99494009e-01
9.99376249e-01
9.99262044e-01
9.99151673e-01
9.99045380e-01
9.98943379e-01
9.98845856e-01
9.98752973e-01
9.98664871e-01
9.98581673e-01
9.98503489e-01
9.98430413e-01
9.98362531e-01
9.98299914e-01
9.98242628e-01
9.98190724e-01
9.98144244e-01
9.98103216e-01
9.98067654e-01
9.98037553e-01
9.98012891e-01
9.97993624e-01
9.97979684e-01
9.97970978e-01
9.97967387e-01
9.97968762e-01
9.97974926e-01
9.97985674e-01
9.98000772e-01
9.98019957e-01
9.98042943e-01
9.98069417e-01
9.98099048e-01
9.98131485e-01
9.98166362e-01
9.98203306e-01
9.98241933e-01
9.98281860e-01
9.98322705e-01
9.98364093e-01
9.98405657e-01
9.98447046e-01
9.98487924e-01
9.98527978e-01
9.98566916e-01
9.98604471e-01
9.98640392e-01
9.98674464e-01
9.98706516e-01
9.98736363e-01
9.98763831e-01
9.98788862e-01
9.98811351e-01
9.98831108e-01
9.98848113e-01
9.98862352e-01
9.98873817e-01
9.98882707e-01
9.98889012e-01
1.00173535e+00
1.00174326e+00
1.00175499e+00
1.00177052e+00
1.00178996e+00
1.00181325e+00
1.00184021e+00
1.00187053e+00
1.00190392e+00
1.00194014e+00
1.00197882e+00
1.00201960e+00
1.00206213e+00
1.00210602e+00
1.00215087e+00
1.00219626e+00
1.00224178e+00
1.00228701e+00
1.00233155e+00
1.00237499e+00
1.00241693e+00
1.00245699e+00
1.00249483e+00
1.00253010e+00
1.00256248e+00
1.00259168e+00
1.00261744e+00
1.00263952e+00
1.00265769e+00
1.00267177e+00
1.00268159e+00
1.00268699e+00
1.00268785e+00
1.00268403e+00
1.00267545e+00
1.00266200e+00
1.00264359e+00
1.00262014e+00
1.00259156e+00
1.00255777e+00
1.00251869e+00
1.00247425e+00
1.00242437e+00
1.00236899e+00
1.00230805e+00
1.00224151e+00
1.00216936e+00
1.00209161e+00
1.00200829e+00
1.00191949e+00
1.00182533e+00
1.00172597e+00
1.00162164e+00
1.00151260e+00
1.00139919e+00
1.00128176e+00
1.00116074e+00
1.00103659e+00
1.00090981e+00
1.00078092e+00
1.00065047e+00
1.00051901e+00
1.00038711e+00
1.00025531e+00
1.00012416e+00
9.99994175e-01
9.99865839e-01
9.99739611e-01
9.99615912e-01
9.99495124e-01
9.99377591e-01
9.99263616e-01
9.99153468e-01
9.99047380e-01
9.98945555e-01
9.98848166e-01
9.98755364e-01
9.98667278e-01
9.98584021e-01
9.98505689e-01
9.98432368e-01
9.98364135e-01
9.98301054e-01
9.98243184e-01
9.98190571e-01
9.98143254e-01
9.98101259e-01
9.98064599e-01
9.98033272e-01
9.98007258e-01
9.97986516e-01
9.97970986e-01
9.97960582e-01
9.97955191e-01
9.97954677e-01
9.97958874e-01
9.97967589e-01
9.97980599e-01
9.97997659e-01
9.98018495e-01
9.98042812e-01
9.98070291e-01
9.98100600e-01
9.98133388e-01
9.98168296e-01
9.98204955e-01
9.98242995e-01
9.98282046e-01
9.98321741e-01
9.98361724e-01
9.98401649e-01
9.98441186e-01
9.98480020e-01
9.98517858e-01
9.98554431e-01
9.98589495e-01
9.98622811e-01
9.98654181e-01
9.98683454e-01
9.98710451e-01
9.98735016e-01
9.98757088e-01
9.98776539e-01
9.98793225e-01
9.98807141e-01
9.98818324e-01
9.98826923e-01
9.98832944e-01
1.00180402e+00
1.00181143e+00
1.00182249e+00
1.00183719e+00
1.00185563e+00
1.00187774e+00
1.00190333e+00
1.00193213e+00
1.00196387e+00
1.00199826e+00
1.00203497e+00
1.00207369e+00
1.00211403e+00
1.00215564e+00
1.00219812e+00
1.00224109e+00
1.00228414e+00
1.00232689e+00
1.00236893e+00
1.00240989e+00
1.00244939e+00
1.00248707e+00
1.00252260e+00
1.00255564e+00
1.00258591e+00
1.00261312e+00
1.00263701e+00
1.00265735e+00
1.00267393e+00
1.00268656e+00
1.00269507e+00
1.00269930e+00
1.00269913e+00
1.00269441e+00
1.00268503e+00
1.00267090e+00
1.00265190e+00
1.00262793e+00
1.00259891e+00
1.00256473e+00
1.00252530e+00
1.00248054e+00
1.00243037e+00
1.00237470e+00
1.00231347e+00
1.00224665e+00
1.00217421e+00
1.00209615e+00
1.00201252e+00
1.00192340e+00
1.00182890e+00
1.00172921e+00
1.00162454e+00
1.00151518e+00
1.00140144e+00
1.00128370e+00
1.00116240e+00
1.00103798e+00
1.00091097e+00
1.00078188e+00
1.00065126e+00
1.00051969e+00
1.00038770e+00
1.00025587e+00
1.00012472e+00
9.99994783e-01
9.99866531e-01
9.99740421e-01
9.99616868e-01
9.99496247e-01
9.99378893e-01
9.99265101e-01
9.99155130e-01
9.99049202e-01
9.98947508e-01
9.98850209e-01
9.98757445e-01
9.98669332e-01
9.98585972e-01
9.98507450e-01
9.98433844e-01
9.98365218e-01
9.98301631e-01
9.98243133e-01
9.98189767e-01
9.98141566e-01
9.98098555e-01
9.98060745e-01
9.98028135e-01
9.98000708e-01
9.97978428e-01
9.97961238e-01
9.97949061e-01
9.97941792e-01
9.97939305e-01
9.97941445e-01
9.97948032e-01
9.97958857e-01
9.97973689e-01
9.97992269e-01
9.98014318e-01
9.98039535e-01
9.98067602e-01
9.98098187e-01
9.98130943e-01
9.98165519e-01
9.98201558e-01
9.98238702e-01
9.98276596e-01
9.98314892e-01
9.98353250e-01
9.98391345e-01
9.98428866e-01
9.98465519e-01
9.98501027e-01
9.98535141e-01
9.98567632e-01
9.98598277e-01
9.98626894e-01
9.98653336e-01
9.98677435e-01
9.98699054e-01
9.98718109e-01
9.98734467e-01
9.98748057e-01
9.98758917e-01
9.98767209e-01
9.98772912e-01
1.00187695e+00
1.00188381e+00
1.00189417e+00
1.00190797e+00
1.00192534e+00
1.00194620e+00
1.00197034e+00
1.00199753e+00
1.00202750e+00
1.00205995e+00
1.00209459e+00
1.00213110e+00
1.00216913e+00
1.00220831e+00
1.00224829e+00
1.00228869e+00
1.00232913e+00
1.00236924e+00
1.00240865e+00
1.00244699e+00
1.00248391e+00
1.00251907e+00
1.00255216e+00
1.00258286e+00
1.00261089e+00
1.00263599e+00
1.00265791e+00
1.00267643e+00
1.00269133e+00
1.00270244e+00
1.00270957e+00
1.00271258e+00
1.00271131e+00
1.00270564e+00
1.00269543e+00
1.00268058e+00
1.00266095e+00
1.00263645e+00
1.00260697e+00
1.00257238e+00
1.00253260e+00
1.00248751e+00
1.00243703e+00
1.00238106e+00
1.00231955e+00
1.00225243e+00
1.00217969e+00
1.00210133e+00
1.00201738e+00
1.00192793e+00
1.00183309e+00
1.00173306e+00
1.00162805e+00
1.00151834e+00
1.00140426e+00
1.00128620e+00
1.00116458e+00
1.00103989e+00
1.00091261e+00
1.00078330e+00
1.00065249e+00
1.00052076e+00
1.00038866e+00
1.00025675e+00
1.00012557e+00
9.99995626e-01
9.99867410e-01
9.99741368e-01
9.99617908e-01
9.99497401e-01
9.99380172e-01
9.99266509e-01
9.99156660e-01
9.99050837e-01
9.98949220e-01
9.98851960e-01
9.98759182e-01
9.98670994e-01
9.98587484e-01
9.98508728e-01
9.98434792e-01
9.98365731e-01
9.98301596e-01
9.98242430e-01
9.98188269e-01
9.98139143e-01
9.98095073e-01
9.98056070e-01
9.98022131e-01
9.97993243e-01
9.97969372e-01
9.97950467e-01
9.97936456e-01
9.97927246e-01
9.97922718e-01
9.97922728e-01
9.97927109e-01
9.97935667e-01
9.97948185e-01
9.97964420e-01
9.97984108e-01
9.98006967e-01
9.98032694e-01
9.98060974e-01
9.98091478e-01
9.98123869e-01
9.98157805e-01
9.98192941e-01
9.98228934e-01
9.98265444e-01
9.98302140e-01
9.98338701e-01
9.98374817e-01
9.98410198e-01
9.98444564e-01
9.98477654e-01
9.98509236e-01
9.98539092e-01
9.98567012e-01
9.98592826e-01
9.98616391e-01
9.98637543e-01
9.98656161e-01
9.98672135e-01
9.98685378e-01
9.98695901e-01
9.98703853e-01
9.98709202e-01
1.00195377e+00
1.00196005e+00
1.00196966e+00
1.00198252e+00
1.00199876e+00
1.00201829e+00
1.00204092e+00
1.00206640e+00
1.00209449e+00
1.00212491e+00
1.00215737e+00
1.00219155e+00
1.00222714e+00
1.00226377e+00
1.00230112e+00
1.00233882e+00
1.00237652e+00
1.00241386e+00
1.00245049e+00
1.00248608e+00
1.00252030e+00
1.00255282e+00
1.00258335e+00
1.00261160e+00
1.00263729e+00
1.00266019e+00
1.00268004e+00
1.00269665e+00
1.00270980e+00
1.00271930e+00
1.00272500e+00
1.00272672e+00
1.00272432e+00
1.00271765e+00
1.00270657e+00
1.00269097e+00
1.00267070e+00
1.00264565e+00
1.00261568e+00
1.00258067e+00
1.00254052e+00
1.00249510e+00
1.00244430e+00
1.00238804e+00
1.00232623e+00
1.00225883e+00
1.00218579e+00
1.00210711e+00
1.00202284e+00
1.00193306e+00
1.00183789e+00
1.00173751e+00
1.00163214e+00
1.00152208e+00
1.00140766e+00
1.00128927e+00
1.00116733e+00
1.00104233e+00
1.00091478e+00
1.00078522e+00
1.00065419e+00
1.00052227e+00
1.00039002e+00
1.00025800e+00
1.00012673e+00
9.99996748e-01
9.99868518e-01
9.99742489e-01
9.99619066e-01
9.99498612e-01
9.99381448e-01
9.99267852e-01
9.99158063e-01
9.99052285e-01
9.98950685e-01
9.98853404e-01
9.98760558e-01
9.98672240e-01
9.98588529e-01
9.98509490e-01
9.98435177e-01
9.98365639e-01
9.98300915e-01
9.98241042e-01
9.98186050e-01
9.98135963e-01
9.98090799e-01
9.98050566e-01
9.98015263e-01
9.97984875e-01
9.97959373e-01
9.97938711e-01
9.97922822e-01
9.97911621e-01
9.97904999e-01
9.97902823e-01
9.97904939e-01
9.97911165e-01
9.97921300e-01
9.97935116e-01
9.97952368e-01
9.97972788e-01
9.97996093e-01
9.98021983e-01
9.98050147e-01
9.98080264e-01
9.98112006e-01
9.98145044e-01
9.98179044e-01
9.98213679e-01
9.98248624e-01
9.98283564e-01
9.98318193e-01
9.98352217e-01
9.98385360e-01
9.98417357e-01
9.98447960e-01
9.98476948e-01
9.98504112e-01
9.98529257e-01
9.98552221e-01
9.98572853e-01
9.98591008e-01
9.98606561e-01
9.98619418e-01
9.98629579e-01
9.98637169e-01
9.98642147e-01
1.00203413e+00
1.00203980e+00
1.00204860e+00
1.00206047e+00
1.00207553e+00
1.00209366e+00
1.00211470e+00
1.00213840e+00
1.00216453e+00
1.00219281e+00
1.00222299e+00
1.00225474e+00
1.00228777e+00
1.00232175e+00
1.00235634e+00
1.00239122e+00
1.00242605e+00
1.00246051e+00
1.00249426e+00
1.00252698e+00
1.00255838e+00
1.00258815e+00
1.00261601e+00
1.00264170e+00
1.00266496e+00
1.00268556e+00
1.00270327e+00
1.00271789e+00
1.00272921e+00
1.00273706e+00
1.00274126e+00
1.00274164e+00
1.00273806e+00
1.00273035e+00
1.00271838e+00
1.00270200e+00
1.00268106e+00
1.00265543e+00
1.00262497e+00
1.00258954e+00
1.00254900e+00
1.00250324e+00
1.00245213e+00
1.00239557e+00
1.00233347e+00
1.00226577e+00
1.00219244e+00
1.00211346e+00
1.00202888e+00
1.00193877e+00
1.00184326e+00
1.00174253e+00
1.00163682e+00
1.00152642e+00
1.00141165e+00
1.00129292e+00
1.00117066e+00
1.00104535e+00
1.00091751e+00
1.00078767e+00
1.00065640e+00
1.00052427e+00
1.00039184e+00
1.00025966e+00
1.00012827e+00
9.99998190e-01
9.99869893e-01
9.99743820e-01
9.99620374e-01
9.99499911e-01
9.99382746e-01
9.99269151e-01
9.99159356e-01
9.99053554e-01
9.98951907e-01
9.98854542e-01
9.98761565e-01
9.98673059e-01
9.98589093e-01
9.98509719e-01
9.98434984e-01
9.98364925e-01
9.98299573e-01
9.98238957e-01
9.98183100e-01
9.98132021e-01
9.98085734e-01
9.98044244e-01
9.98007549e-01
9.97975635e-01
9.97948474e-01
9.97926025e-01
9.97908227e-01
9.97895001e-01
9.97886248e-01
9.97881846e-01
9.97881651e-01
9.97885497e-01
9.97893196e-01
9.97904538e-01
9.97919293e-01
9.97937210e-01
9.97958024e-01
9.97981453e-01
9.98007203e-01
9.98034969e-01
9.98064440e-01
9.98095298e-01
9.98127226e-01
9.98159903e-01
9.98193015e-01
9.98226253e-01
9.98259314e-01
9.98291905e-01
9.98323746e-01
9.98354574e-01
9.98384133e-01
9.98412187e-01
9.98438524e-01
9.98462943e-01
9.98485261e-01
9.98505317e-01
9.98522964e-01
9.98538060e-01
9.98550501e-01
9.98560269e-01
9.98567470e-01
9.98572064e-01
1.00211763e+00
1.00212264e+00
1.00213060e+00
1.00214144e+00
1.00215526e+00
1.00217194e+00
1.00219132e+00
1.00221317e+00
1.00223725e+00
1.00226332e+00
1.00229112e+00
1.00232035e+00
1.00235072e+00
1.00238194e+00
1.00241368e+00
1.00244563e+00
1.00247750e+00
1.00250895e+00
1.00253971e+00
1.00256947e+00
1.00259794e+00
1.00262486e+00
1.00264997e+00
1.00267301e+00
1.00269376e+00
1.00271198e+00
1.00272747e+00
1.00274003e+00
1.00274946e+00
1.00275559e+00
1.00275824e+00
1.00275725e+00
1.00275244e+00
1.00274367e+00
1.00273076e+00
1.00271358e+00
1.00269195e+00
1.00266573e+00
1.00263476e+00
1.00259889e+00
1.00255797e+00
1.00251186e+00
1.00246044e+00
1.00240358e+00
1.00234120e+00
1.00227321e+00
1.00219959e+00
1.00212031e+00
1.00203542e+00
1.00194500e+00
1.00184917e+00
1.00174811e+00
1.00164206e+00
1.00153131e+00
1.00141620e+00
1.00129714e+00
1.00117455e+00
1.00104893e+00
1.00092079e+00
1.00079067e+00
1.00065915e+00
1.00052678e+00
1.00039413e+00
1.00026176e+00
1.00013021e+00