# vtk DataFile Version 2.0
LBM Flow Field - Timestep 2790
ASCII
DATASET STRUCTURED_POINTS
DIMENSIONS 128 128 1
ORIGIN 0.0 0.0 0.0
SPACING 1.0 1.0 1.0
POINT_DATA 16384
SCALARS density double 1
LOOKUP_TABLE default
9.98436486e-01
9.98424624e-01
9.98412150e-01
9.98413622e-01
9.98415564e-01
9.98416254e-01
9.98418924e-01
9.98423622e-01
9.98428912e-01
9.98435081e-01
9.98442525e-01
9.98451053e-01
9.98460503e-01
9.98470965e-01
9.98482450e-01
9.98494896e-01
9.98508279e-01
9.98522603e-01
9.98537849e-01
9.98553996e-01
9.98571032e-01
9.98588950e-01
9.98607735e-01
9.98627379e-01
9.98647872e-01
9.98669206e-01
9.98691374e-01
9.98714367e-01
9.98738179e-01
9.98762803e-01
9.98788233e-01
9.98814464e-01
9.98841493e-01
9.98869318e-01
9.98897937e-01
9.98927354e-01
9.98957575e-01
9.98988607e-01
9.99020464e-01
9.99053163e-01
9.99086726e-01
9.99121179e-01
9.99156553e-01
9.99192884e-01
9.99230212e-01
9.99268582e-01
9.99308038e-01
9.99348631e-01
9.99390409e-01
9.99433422e-01
9.99477716e-01
9.99523335e-01
9.99570319e-01
9.99618698e-01
9.99668498e-01
9.99719733e-01
9.99772407e-01
9.99826512e-01
9.99882026e-01
9.99938915e-01
9.99997130e-01
1.00005661e+00
1.00011728e+00
1.00017904e+00
1.00024180e+00
1.00030544e+00
1.00036985e+00
1.00043488e+00
1.00050042e+00
1.00056630e+00
1.00063241e+00
1.00069859e+00
1.00076470e+00
1.00083063e+00
1.00089623e+00
1.00096139e+00
1.00102601e+00
1.00108999e+00
1.00115325e+00
1.00121570e+00
1.00127731e+00
1.00133802e+00
1.00139779e+00
1.00145662e+00
1.00151448e+00
1.00157137e+00
1.00162731e+00
1.00168231e+00
1.00173639e+00
1.00178957e+00
1.00184188e+00
1.00189335e+00
1.00194400e+00
1.00199386e+00
1.00204295e+00
1.00209129e+00
1.00213889e+00
1.00218576e+00
1.00223189e+00
1.00227729e+00
1.00232193e+00
1.00236581e+00
1.00240887e+00
1.00245110e+00
1.00249245e+00
1.00253287e+00
1.00257229e+00
1.00261066e+00
1.00264789e+00
1.00268392e+00
1.00271867e+00
1.00275204e+00
1.00278393e+00
1.00281428e+00
1.00284299e+00
1.00286989e+00
1.00289494e+00
1.00291818e+00
1.00293934e+00
1.00295811e+00
1.00297492e+00
1.00299007e+00
1.00300178e+00
1.00301007e+00
1.00301868e+00
1.00302535e+00
1.00301523e+00
1.00300455e+00
9.98424277e-01
9.98420461e-01
9.98412831e-01
9.98412886e-01
9.98413665e-01
9.98415406e-01
9.98418255e-01
9.98422641e-01
9.98427993e-01
9.98434408e-01
9.98441873e-01
9.98450413e-01
9.98459954e-01
9.98470498e-01
9.98482026e-01
9.98494525e-01
9.98507971e-01
9.98522352e-01
9.98537651e-01
9.98553857e-01
9.98570953e-01
9.98588931e-01
9.98607777e-01
9.98627484e-01
9.98648040e-01
9.98669439e-01
9.98691670e-01
9.98714728e-01
9.98738604e-01
9.98763291e-01
9.98788784e-01
9.98815077e-01
9.98842167e-01
9.98870050e-01
9.98898728e-01
9.98928203e-01
9.98958479e-01
9.98989566e-01
9.99021477e-01
9.99054228e-01
9.99087842e-01
9.99122345e-01
9.99157768e-01
9.99194147e-01
9.99231521e-01
9.99269934e-01
9.99309431e-01
9.99350061e-01
9.99391873e-01
9.99434915e-01
9.99479233e-01
9.99524870e-01
9.99571864e-01
9.99620247e-01
9.99670043e-01
9.99721265e-01
9.99773916e-01
9.99827989e-01
9.99883462e-01
9.99940299e-01
9.99998454e-01
1.00005786e+00
1.00011845e+00
1.00018013e+00
1.00024279e+00
1.00030633e+00
1.00037063e+00
1.00043556e+00
1.00050098e+00
1.00056676e+00
1.00063275e+00
1.00069882e+00
1.00076482e+00
1.00083064e+00
1.00089615e+00
1.00096122e+00
1.00102576e+00
1.00108966e+00
1.00115285e+00
1.00121525e+00
1.00127681e+00
1.00133747e+00
1.00139722e+00
1.00145601e+00
1.00151385e+00
1.00157074e+00
1.00162667e+00
1.00168166e+00
1.00173574e+00
1.00178892e+00
1.00184124e+00
1.00189271e+00
1.00194336e+00
1.00199322e+00
1.00204231e+00
1.00209064e+00
1.00213824e+00
1.00218509e+00
1.00223122e+00
1.00227660e+00
1.00232122e+00
1.00236507e+00
1.00240812e+00
1.00245032e+00
1.00249164e+00
1.00253203e+00
1.00257142e+00
1.00260976e+00
1.00264697e+00
1.00268298e+00
1.00271770e+00
1.00275105e+00
1.00278293e+00
1.00281327e+00
1.00284195e+00
1.00286889e+00
1.00289399e+00
1.00291717e+00
1.00293830e+00
1.00295731e+00
1.00297416e+00
1.00298886e+00
1.00300074e+00
1.00301017e+00
1.00301742e+00
1.00302239e+00
1.00301771e+00
1.00301591e+00
9.98409921e-01
9.98410813e-01
9.98413849e-01
9.98410915e-01
9.98409871e-01
9.98413119e-01
9.98416682e-01
9.98420546e-01
9.98425933e-01
9.98432662e-01
9.98440216e-01
9.98448763e-01
9.98458417e-01
9.98469073e-01
9.98480674e-01
9.98493250e-01
9.98506789e-01
9.98521256e-01
9.98536639e-01
9.98552931e-01
9.98570117e-01
9.98588183e-01
9.98607120e-01
9.98626918e-01
9.98647567e-01
9.98669057e-01
9.98691381e-01
9.98714529e-01
9.98738496e-01
9.98763273e-01
9.98788853e-01
9.98815233e-01
9.98842407e-01
9.98870374e-01
9.98899132e-01
9.98928685e-01
9.98959038e-01
9.98990199e-01
9.99022182e-01
9.99055004e-01
9.99088686e-01
9.99123255e-01
9.99158742e-01
9.99195182e-01
9.99232615e-01
9.99271083e-01
9.99310633e-01
9.99351313e-01
9.99393170e-01
9.99436252e-01
9.99480605e-01
9.99526273e-01
9.99573291e-01
9.99621691e-01
9.99671497e-01
9.99722722e-01
9.99775369e-01
9.99829429e-01
9.99884881e-01
9.99941690e-01
9.99999807e-01
1.00005917e+00
1.00011971e+00
1.00018133e+00
1.00024393e+00
1.00030740e+00
1.00037163e+00
1.00043648e+00
1.00050183e+00
1.00056753e+00
1.00063344e+00
1.00069943e+00
1.00076537e+00
1.00083112e+00
1.00089656e+00
1.00096157e+00
1.00102605e+00
1.00108991e+00
1.00115305e+00
1.00121542e+00
1.00127694e+00
1.00133758e+00
1.00139731e+00
1.00145609e+00
1.00151392e+00
1.00157079e+00
1.00162672e+00
1.00168171e+00
1.00173578e+00
1.00178896e+00
1.00184127e+00
1.00189273e+00
1.00194337e+00
1.00199322e+00
1.00204229e+00
1.00209061e+00
1.00213818e+00
1.00218500e+00
1.00223109e+00
1.00227644e+00
1.00232103e+00
1.00236483e+00
1.00240783e+00
1.00244999e+00
1.00249126e+00
1.00253160e+00
1.00257095e+00
1.00260923e+00
1.00264640e+00
1.00268236e+00
1.00271704e+00
1.00275035e+00
1.00278222e+00
1.00281252e+00
1.00284117e+00
1.00286814e+00
1.00289327e+00
1.00291636e+00
1.00293750e+00
1.00295681e+00
1.00297362e+00
1.00298762e+00
1.00300026e+00
1.00301140e+00
1.00301641e+00
1.00301804e+00
1.00302519e+00
1.00302872e+00
9.98407123e-01
9.98406447e-01
9.98406808e-01
9.98406044e-01
9.98407646e-01
9.98409975e-01
9.98413071e-01
9.98417580e-01
9.98423273e-01
9.98429883e-01
9.98437544e-01
9.98446297e-01
9.98456052e-01
9.98466785e-01
9.98478512e-01
9.98491209e-01
9.98504851e-01
9.98519426e-01
9.98534925e-01
9.98551329e-01
9.98568625e-01
9.98586804e-01
9.98605853e-01
9.98625762e-01
9.98646522e-01
9.98668122e-01
9.98690555e-01
9.98713811e-01
9.98737883e-01
9.98762763e-01
9.98788446e-01
9.98814925e-01
9.98842197e-01
9.98870258e-01
9.98899110e-01
9.98928754e-01
9.98959196e-01
9.98990446e-01
9.99022515e-01
9.99055422e-01
9.99089187e-01
9.99123838e-01
9.99159406e-01
9.99195925e-01
9.99233436e-01
9.99271980e-01
9.99311604e-01
9.99352354e-01
9.99394278e-01
9.99437424e-01
9.99481836e-01
9.99527558e-01
9.99574625e-01
9.99623068e-01
9.99672909e-01
9.99724162e-01
9.99776830e-01
9.99830903e-01
9.99886361e-01
9.99943167e-01
1.00000127e+00
1.00006062e+00
1.00012113e+00
1.00018272e+00
1.00024529e+00
1.00030872e+00
1.00037290e+00
1.00043771e+00
1.00050300e+00
1.00056865e+00
1.00063451e+00
1.00070046e+00
1.00076635e+00
1.00083205e+00
1.00089745e+00
1.00096243e+00
1.00102688e+00
1.00109071e+00
1.00115383e+00
1.00121618e+00
1.00127769e+00
1.00133833e+00
1.00139804e+00
1.00145682e+00
1.00151465e+00
1.00157153e+00
1.00162745e+00
1.00168244e+00
1.00173651e+00
1.00178969e+00
1.00184198e+00
1.00189343e+00
1.00194406e+00
1.00199388e+00
1.00204292e+00
1.00209120e+00
1.00213873e+00
1.00218551e+00
1.00223155e+00
1.00227683e+00
1.00232136e+00
1.00236510e+00
1.00240802e+00
1.00245011e+00
1.00249130e+00
1.00253156e+00
1.00257083e+00
1.00260904e+00
1.00264613e+00
1.00268202e+00
1.00271664e+00
1.00274989e+00
1.00278169e+00
1.00281196e+00
1.00284059e+00
1.00286747e+00
1.00289257e+00
1.00291577e+00
1.00293690e+00
1.00295594e+00
1.00297299e+00
1.00298766e+00
1.00299966e+00
1.00300963e+00
1.00301754e+00
1.00302168e+00
1.00302589e+00
1.00302767e+00
9.98403021e-01
9.98401371e-01
9.98399812e-01
9.98401636e-01
9.98403858e-01
9.98405326e-01
9.98408822e-01
9.98413911e-01
9.98419588e-01
9.98426197e-01
9.98434087e-01
9.98443012e-01
9.98452859e-01
9.98463719e-01
9.98475595e-01
9.98488424e-01
9.98502192e-01
9.98516902e-01
9.98532535e-01
9.98549071e-01
9.98566500e-01
9.98584811e-01
9.98603992e-01
9.98624031e-01
9.98644920e-01
9.98666648e-01
9.98689206e-01
9.98712585e-01
9.98736778e-01
9.98761777e-01
9.98787575e-01
9.98814168e-01
9.98841550e-01
9.98869721e-01
9.98898679e-01
9.98928429e-01
9.98958975e-01
9.98990327e-01
9.99022498e-01
9.99055506e-01
9.99089372e-01
9.99124124e-01
9.99159792e-01
9.99196411e-01
9.99234020e-01
9.99272662e-01
9.99312382e-01
9.99353227e-01
9.99395243e-01
9.99438478e-01
9.99482976e-01
9.99528777e-01
9.99575919e-01
9.99624431e-01
9.99674334e-01
9.99725642e-01
9.99778357e-01
9.99832469e-01
9.99887956e-01
9.99944785e-01
1.00000291e+00
1.00006226e+00
1.00012277e+00
1.00018435e+00
1.00024690e+00
1.00031031e+00
1.00037447e+00
1.00043925e+00
1.00050451e+00
1.00057013e+00
1.00063596e+00
1.00070187e+00
1.00076774e+00
1.00083342e+00
1.00089880e+00
1.00096376e+00
1.00102820e+00
1.00109202e+00
1.00115514e+00
1.00121749e+00
1.00127901e+00
1.00133965e+00
1.00139938e+00
1.00145817e+00
1.00151601e+00
1.00157290e+00
1.00162883e+00
1.00168383e+00
1.00173790e+00
1.00179107e+00
1.00184336e+00
1.00189479e+00
1.00194539e+00
1.00199518e+00
1.00204418e+00
1.00209241e+00
1.00213988e+00
1.00218659e+00
1.00223255e+00
1.00227776e+00
1.00232219e+00
1.00236584e+00
1.00240866e+00
1.00245064e+00
1.00249173e+00
1.00253188e+00
1.00257104e+00
1.00260915e+00
1.00264613e+00
1.00268191e+00
1.00271643e+00
1.00274959e+00
1.00278129e+00
1.00281148e+00
1.00284006e+00
1.00286688e+00
1.00289188e+00
1.00291510e+00
1.00293632e+00
1.00295519e+00
1.00297207e+00
1.00298730e+00
1.00299961e+00
1.00300849e+00
1.00301710e+00
1.00302409e+00
1.00302600e+00
1.00302670e+00
9.98396030e-01
9.98395371e-01
9.98395214e-01
9.98396159e-01
9.98397509e-01
9.98400343e-01
9.98404418e-01
9.98409054e-01
9.98414820e-01
9.98421873e-01
9.98429894e-01
9.98438853e-01
9.98448879e-01
9.98459932e-01
9.98471939e-01
9.98484907e-01
9.98498838e-01
9.98513704e-01
9.98529485e-01
9.98546173e-01
9.98563756e-01
9.98582219e-01
9.98601549e-01
9.98621738e-01
9.98642773e-01
9.98664646e-01
9.98687346e-01
9.98710865e-01
9.98735194e-01
9.98760327e-01
9.98786256e-01
9.98812977e-01
9.98840486e-01
9.98868780e-01
9.98897860e-01
9.98927730e-01
9.98958396e-01
9.98989866e-01
9.99022156e-01
9.99055282e-01
9.99089268e-01
9.99124138e-01
9.99159925e-01
9.99196664e-01
9.99234393e-01
9.99273155e-01
9.99312994e-01
9.99353956e-01
9.99396087e-01
9.99439434e-01
9.99484041e-01
9.99529947e-01
9.99577188e-01
9.99625792e-01
9.99675782e-01
9.99727169e-01
9.99779954e-01
9.99834128e-01
9.99889669e-01
9.99946542e-01
1.00000470e+00
1.00006408e+00
1.00012461e+00
1.00018620e+00
1.00024876e+00
1.00031217e+00
1.00037632e+00
1.00044109e+00
1.00050635e+00
1.00057195e+00
1.00063778e+00
1.00070368e+00
1.00076954e+00
1.00083521e+00
1.00090059e+00
1.00096556e+00
1.00103000e+00
1.00109384e+00
1.00115697e+00
1.00121934e+00
1.00128088e+00
1.00134155e+00
1.00140130e+00
1.00146012e+00
1.00151798e+00
1.00157489e+00
1.00163084e+00
1.00168584e+00
1.00173992e+00
1.00179309e+00
1.00184536e+00
1.00189677e+00
1.00194734e+00
1.00199709e+00
1.00204604e+00
1.00209420e+00
1.00214160e+00
1.00218822e+00
1.00223409e+00
1.00227919e+00
1.00232351e+00
1.00236703e+00
1.00240973e+00
1.00245157e+00
1.00249253e+00
1.00253254e+00
1.00257155e+00
1.00260951e+00
1.00264636e+00
1.00268201e+00
1.00271638e+00
1.00274942e+00
1.00278102e+00
1.00281108e+00
1.00283953e+00
1.00286632e+00
1.00289128e+00
1.00291430e+00
1.00293545e+00
1.00295465e+00
1.00297145e+00
1.00298597e+00
1.00299881e+00
1.00300915e+00
1.00301668e+00
1.00302256e+00
1.00302606e+00
1.00302787e+00
9.98389405e-01
9.98388765e-01
9.98389224e-01
9.98389665e-01
9.98391357e-01
9.98394765e-01
9.98398622e-01
9.98403366e-01
9.98409545e-01
9.98416738e-01
9.98424805e-01
9.98433961e-01
9.98444198e-01
9.98455395e-01
9.98467555e-01
9.98480704e-01
9.98494809e-01
9.98509840e-01
9.98525792e-01
9.98542654e-01
9.98560407e-01
9.98579038e-01
9.98598537e-01
9.98618892e-01
9.98640091e-01
9.98662125e-01
9.98684983e-01
9.98708657e-01
9.98733139e-01
9.98758420e-01
9.98784495e-01
9.98811359e-01
9.98839008e-01
9.98867441e-01
9.98896658e-01
9.98926663e-01
9.98957463e-01
9.98989069e-01
9.99021493e-01
9.99054755e-01
9.99088876e-01
9.99123883e-01
9.99159809e-01
9.99196686e-01
9.99234555e-01
9.99273457e-01
9.99313435e-01
9.99354536e-01
9.99396806e-01
9.99440288e-01
9.99485026e-01
9.99531060e-01
9.99578424e-01
9.99627145e-01
9.99677244e-01
9.99728733e-01
9.99781612e-01
9.99835871e-01
9.99891488e-01
9.99948428e-01
1.00000664e+00
1.00006607e+00
1.00012664e+00
1.00018827e+00
1.00025085e+00
1.00031429e+00
1.00037846e+00
1.00044324e+00
1.00050851e+00
1.00057412e+00
1.00063995e+00
1.00070587e+00
1.00077174e+00
1.00083743e+00
1.00090283e+00
1.00096781e+00
1.00103228e+00
1.00109615e+00
1.00115932e+00
1.00122172e+00
1.00128330e+00
1.00134400e+00
1.00140379e+00
1.00146264e+00
1.00152054e+00
1.00157748e+00
1.00163345e+00
1.00168847e+00
1.00174256e+00
1.00179572e+00
1.00184798e+00
1.00189936e+00
1.00194989e+00
1.00199959e+00
1.00204847e+00
1.00209656e+00
1.00214386e+00
1.00219038e+00
1.00223613e+00
1.00228110e+00
1.00232528e+00
1.00236865e+00
1.00241119e+00
1.00245288e+00
1.00249366e+00
1.00253350e+00
1.00257234e+00
1.00261013e+00
1.00264679e+00
1.00268228e+00
1.00271649e+00
1.00274936e+00
1.00278081e+00
1.00281074e+00
1.00283905e+00
1.00286569e+00
1.00289060e+00
1.00291357e+00
1.00293452e+00
1.00295364e+00
1.00297070e+00
1.00298515e+00
1.00299759e+00
1.00300846e+00
1.00301624e+00
1.00302145e+00
1.00302561e+00
1.00302742e+00
9.98383043e-01
9.98381925e-01
9.98381793e-01
9.98382797e-01
9.98385022e-01
9.98387962e-01
9.98391913e-01
9.98397252e-01
9.98403517e-01
9.98410674e-01
9.98418999e-01
9.98428414e-01
9.98438772e-01
9.98450122e-01
9.98462495e-01
9.98475835e-01
9.98490112e-01
9.98505330e-01
9.98521475e-01
9.98538523e-01
9.98556461e-01
9.98575279e-01
9.98594962e-01
9.98615498e-01
9.98636877e-01
9.98659086e-01
9.98682117e-01
9.98705961e-01
9.98730608e-01
9.98756052e-01
9.98782287e-01
9.98809307e-01
9.98837110e-01
9.98865694e-01
9.98895062e-01
9.98925217e-01
9.98956166e-01
9.98987921e-01
9.99020495e-01
9.99053908e-01
9.99088182e-01
9.99123344e-01
9.99159425e-01
9.99196461e-01
9.99234489e-01
9.99273551e-01
9.99313690e-01
9.99354952e-01
9.99397380e-01
9.99441020e-01
9.99485913e-01
9.99532098e-01
9.99579607e-01
9.99628468e-01
9.99678701e-01
9.99730315e-01
9.99783311e-01
9.99837679e-01
9.99893395e-01
9.99950425e-01
1.00000872e+00
1.00006822e+00
1.00012886e+00
1.00019054e+00
1.00025317e+00
1.00031665e+00
1.00038086e+00
1.00044567e+00
1.00051097e+00
1.00057662e+00
1.00064248e+00
1.00070843e+00
1.00077433e+00
1.00084006e+00
1.00090549e+00
1.00097052e+00
1.00103503e+00
1.00109895e+00
1.00116216e+00
1.00122462e+00
1.00128625e+00
1.00134701e+00
1.00140685e+00
1.00146575e+00
1.00152369e+00
1.00158066e+00
1.00163667e+00
1.00169171e+00
1.00174580e+00
1.00179896e+00
1.00185121e+00
1.00190256e+00
1.00195304e+00
1.00200268e+00
1.00205148e+00
1.00209947e+00
1.00214666e+00
1.00219306e+00
1.00223867e+00
1.00228349e+00
1.00232750e+00
1.00237070e+00
1.00241306e+00
1.00245455e+00
1.00249513e+00
1.00253477e+00
1.00257340e+00
1.00261099e+00
1.00264745e+00
1.00268272e+00
1.00271674e+00
1.00274942e+00
1.00278067e+00
1.00281044e+00
1.00283862e+00
1.00286508e+00
1.00288979e+00
1.00291274e+00
1.00293370e+00
1.00295250e+00
1.00296941e+00
1.00298434e+00
1.00299669e+00
1.00300684e+00
1.00301512e+00
1.00302091e+00
1.00302430e+00
1.00302549e+00
9.98375519e-01
9.98374352e-01
9.98374138e-01
9.98375360e-01
9.98377530e-01
9.98380523e-01
9.98384862e-01
9.98390281e-01
9.98396565e-01
9.98404000e-01
9.98412566e-01
9.98422091e-01
9.98432621e-01
9.98444202e-01
9.98456770e-01
9.98470289e-01
9.98484768e-01
9.98500195e-01
9.98516539e-01
9.98533785e-01
9.98551926e-01
9.98570944e-01
9.98590824e-01
9.98611556e-01
9.98633127e-01
9.98655525e-01
9.98678742e-01
9.98702767e-01
9.98727593e-01
9.98753212e-01
9.98779618e-01
9.98806807e-01
9.98834777e-01
9.98863526e-01
9.98893057e-01
9.98923375e-01
9.98954487e-01
9.98986406e-01
9.99019145e-01
9.99052725e-01
9.99087168e-01
9.99122501e-01
9.99158756e-01
9.99195968e-01
9.99234175e-01
9.99273417e-01
9.99313738e-01
9.99355181e-01
9.99397792e-01
9.99441612e-01
9.99486682e-01
9.99533041e-01
9.99580719e-01
9.99629744e-01
9.99680133e-01
9.99731897e-01
9.99785034e-01
9.99839534e-01
9.99895374e-01
9.99952517e-01
1.00001092e+00
1.00007051e+00
1.00013124e+00
1.00019300e+00
1.00025570e+00
1.00031924e+00
1.00038351e+00
1.00044838e+00
1.00051373e+00
1.00057943e+00
1.00064535e+00
1.00071135e+00
1.00077730e+00
1.00084309e+00
1.00090858e+00
1.00097367e+00
1.00103825e+00
1.00110223e+00
1.00116552e+00
1.00122804e+00
1.00128974e+00
1.00135057e+00
1.00141047e+00
1.00146943e+00
1.00152743e+00
1.00158445e+00
1.00164049e+00
1.00169555e+00
1.00174966e+00
1.00180281e+00
1.00185504e+00
1.00190635e+00
1.00195678e+00
1.00200635e+00
1.00205506e+00
1.00210294e+00
1.00215001e+00
1.00219626e+00
1.00224171e+00
1.00228635e+00
1.00233018e+00
1.00237318e+00
1.00241532e+00
1.00245659e+00
1.00249694e+00
1.00253634e+00
1.00257474e+00
1.00261208e+00
1.00264831e+00
1.00268334e+00
1.00271713e+00
1.00274959e+00
1.00278063e+00
1.00281017e+00
1.00283816e+00
1.00286449e+00
1.00288901e+00
1.00291173e+00
1.00293264e+00
1.00295145e+00
1.00296811e+00
1.00298288e+00
1.00299546e+00
1.00300549e+00
1.00301356e+00
1.00301950e+00
1.00302271e+00
1.00302382e+00
9.98367119e-01
9.98366081e-01
9.98366086e-01
9.98367129e-01
9.98369244e-01
9.98372634e-01
9.98377091e-01
9.98382458e-01
9.98389012e-01
9.98396715e-01
9.98405372e-01
9.98415063e-01
9.98425843e-01
9.98437625e-01
9.98450370e-01
9.98464102e-01
9.98478804e-01
9.98494438e-01
9.98510990e-01
9.98528453e-01
9.98546807e-01
9.98566035e-01
9.98586124e-01
9.98607063e-01
9.98628838e-01
9.98651436e-01
9.98674850e-01
9.98699069e-01
9.98724084e-01
9.98749889e-01
9.98776478e-01
9.98803847e-01
9.98831995e-01
9.98860920e-01
9.98890627e-01
9.98921121e-01
9.98952409e-01
9.98984505e-01
9.99017424e-01
9.99051186e-01
9.99085814e-01
9.99121336e-01
9.99157783e-01
9.99195189e-01
9.99233594e-01
9.99273036e-01
9.99313559e-01
9.99355206e-01
9.99398019e-01
9.99442042e-01
9.99487313e-01
9.99533869e-01
9.99581741e-01
9.99630953e-01
9.99681523e-01
9.99733461e-01
9.99786764e-01
9.99841420e-01
9.99897407e-01
9.99954688e-01
1.00001322e+00
1.00007293e+00
1.00013376e+00
1.00019563e+00
1.00025843e+00
1.00032206e+00
1.00038641e+00
1.00045136e+00
1.00051679e+00
1.00058256e+00
1.00064855e+00
1.00071463e+00
1.00078066e+00
1.00084652e+00
1.00091209e+00
1.00097727e+00
1.00104193e+00
1.00110600e+00
1.00116937e+00
1.00123198e+00
1.00129377e+00
1.00135468e+00
1.00141466e+00
1.00147370e+00
1.00153176e+00
1.00158883e+00
1.00164491e+00
1.00170001e+00
1.00175412e+00
1.00180728e+00
1.00185948e+00
1.00191076e+00
1.00196113e+00
1.00201061e+00
1.00205922e+00
1.00210698e+00
1.00215390e+00
1.00219999e+00
1.00224526e+00
1.00228971e+00
1.00233332e+00
1.00237609e+00
1.00241799e+00
1.00245901e+00
1.00249910e+00
1.00253824e+00
1.00257636e+00
1.00261343e+00
1.00264939e+00
1.00268416e+00
1.00271767e+00
1.00274987e+00
1.00278067e+00
1.00280998e+00
1.00283771e+00
1.00286383e+00
1.00288823e+00
1.00291074e+00
1.00293138e+00
1.00295017e+00
1.00296684e+00
1.00298127e+00
1.00299375e+00
1.00300405e+00
1.00301189e+00
1.00301748e+00
1.00302089e+00
1.00302211e+00
9.98358260e-01
9.98357151e-01
9.98357173e-01
9.98358259e-01
9.98360540e-01
9.98364024e-01
9.98368498e-01
9.98374100e-01
9.98380880e-01
9.98388669e-01
9.98397503e-01
9.98407448e-01
9.98418419e-01
9.98430376e-01
9.98443346e-01
9.98457307e-01
9.98472219e-01
9.98488068e-01
9.98504847e-01
9.98522534e-01
9.98541107e-01
9.98560556e-01
9.98580865e-01
9.98602019e-01
9.98624007e-01
9.98646816e-01
9.98670436e-01
9.98694857e-01
9.98720071e-01
9.98746072e-01
9.98772854e-01
9.98800414e-01
9.98828750e-01
9.98857864e-01
9.98887758e-01
9.98918439e-01
9.98949917e-01
9.98982204e-01
9.99015317e-01
9.99049276e-01
9.99084104e-01
9.99119831e-01
9.99156487e-01
9.99194106e-01
9.99232727e-01
9.99272390e-01
9.99313136e-01
9.99355007e-01
9.99398046e-01
9.99442293e-01
9.99487788e-01
9.99534565e-01
9.99582653e-01
9.99632077e-01
9.99682854e-01
9.99734989e-01
9.99788482e-01
9.99843320e-01
9.99899479e-01
9.99956923e-01
1.00001560e+00
1.00007546e+00
1.00013643e+00
1.00019842e+00
1.00026134e+00
1.00032508e+00
1.00038954e+00
1.00045460e+00
1.00052013e+00
1.00058600e+00
1.00065209e+00
1.00071826e+00
1.00078439e+00
1.00085035e+00
1.00091603e+00
1.00098130e+00
1.00104608e+00
1.00111025e+00
1.00117373e+00
1.00123645e+00
1.00129834e+00
1.00135934e+00
1.00141942e+00
1.00147854e+00
1.00153667e+00
1.00159381e+00
1.00164994e+00
1.00170507e+00
1.00175920e+00
1.00181235e+00
1.00186453e+00
1.00191576e+00
1.00196606e+00
1.00201545e+00
1.00206395e+00
1.00211158e+00
1.00215834e+00
1.00220425e+00
1.00224931e+00
1.00229354e+00
1.00233691e+00
1.00237942e+00
1.00242106e+00
1.00246179e+00
1.00250160e+00
1.00254043e+00
1.00257826e+00
1.00261502e+00
1.00265067e+00
1.00268514e+00
1.00271836e+00
1.00275026e+00
1.00278077e+00
1.00280983e+00
1.00283732e+00
1.00286315e+00
1.00288732e+00
1.00290970e+00
1.00293014e+00
1.00294866e+00
1.00296525e+00
1.00297965e+00
1.00299189e+00
1.00300209e+00
1.00300994e+00
1.00301545e+00
1.00301879e+00
1.00301988e+00
9.98348786e-01
9.98347623e-01
9.98347595e-01
9.98348825e-01
9.98351228e-01
9.98354707e-01
9.98359342e-01
9.98365175e-01
9.98372048e-01
9.98379987e-01
9.98389070e-01
9.98399205e-01
9.98410346e-01
9.98422528e-01
9.98435730e-01
9.98449901e-01
9.98465031e-01
9.98481115e-01
9.98498124e-01
9.98516035e-01
9.98534838e-01
9.98554515e-01
9.98575050e-01
9.98596427e-01
9.98618635e-01
9.98641662e-01
9.98665496e-01
9.98690128e-01
9.98715550e-01
9.98741755e-01
9.98768739e-01
9.98796498e-01
9.98825033e-01
9.98854345e-01
9.98884437e-01
9.98915317e-01
9.98946996e-01
9.98979487e-01
9.99012808e-01
9.99046978e-01
9.99082023e-01
9.99117971e-01
9.99154852e-01
9.99192703e-01
9.99231559e-01
9.99271462e-01
9.99312450e-01
9.99354567e-01
9.99397853e-01
9.99442348e-01
9.99488089e-01
9.99535111e-01
9.99583440e-01
9.99633101e-01
9.99684107e-01
9.99736466e-01
9.99790174e-01
9.99845219e-01
9.99901575e-01
9.99959208e-01
1.00001807e+00
1.00007810e+00
1.00013922e+00
1.00020136e+00
1.00026443e+00
1.00032831e+00
1.00039290e+00
1.00045809e+00
1.00052374e+00
1.00058974e+00
1.00065595e+00
1.00072224e+00
1.00078850e+00
1.00085458e+00
1.00092038e+00
1.00098578e+00
1.00105068e+00
1.00111498e+00
1.00117859e+00
1.00124143e+00
1.00130344e+00
1.00136456e+00
1.00142474e+00
1.00148396e+00
1.00154218e+00
1.00159939e+00
1.00165558e+00
1.00171074e+00
1.00176490e+00
1.00181804e+00
1.00187020e+00
1.00192138e+00
1.00197160e+00
1.00202090e+00
1.00206927e+00
1.00211674e+00
1.00216333e+00
1.00220904e+00
1.00225388e+00
1.00229786e+00
1.00234097e+00
1.00238320e+00
1.00242454e+00
1.00246497e+00
1.00250445e+00
1.00254296e+00
1.00258045e+00
1.00261688e+00
1.00265218e+00
1.00268631e+00
1.00271921e+00
1.00275079e+00
1.00278098e+00
1.00280971e+00
1.00283693e+00
1.00286251e+00
1.00288638e+00
1.00290852e+00
1.00292881e+00
1.00294710e+00
1.00296344e+00
1.00297779e+00
1.00298994e+00
1.00299988e+00
1.00300769e+00
1.00301324e+00
1.00301642e+00
1.00301738e+00
9.98338596e-01
9.98337479e-01
9.98337515e-01
9.98338792e-01
9.98341244e-01
9.98344857e-01
9.98349667e-01
9.98355593e-01
9.98362611e-01
9.98370782e-01
9.98380041e-01
9.98390339e-01
9.98401705e-01
9.98414116e-01
9.98427521e-01
9.98441911e-01
9.98457279e-01
9.98473594e-01
9.98490830e-01
9.98508976e-01
9.98528013e-01
9.98547922e-01
9.98568687e-01
9.98590293e-01
9.98612728e-01
9.98635977e-01
9.98660031e-01
9.98684880e-01
9.98710516e-01
9.98736933e-01
9.98764126e-01
9.98792094e-01
9.98820835e-01
9.98850354e-01
9.98880655e-01
9.98911745e-01
9.98943637e-01
9.98976344e-01
9.99009885e-01
9.99044281e-01
9.99079557e-01
9.99115741e-01
9.99152866e-01
9.99190965e-01
9.99230075e-01
9.99270236e-01
9.99311488e-01
9.99353871e-01
9.99397426e-01
9.99442191e-01
9.99488202e-01
9.99535491e-01
9.99584085e-01
9.99634006e-01
9.99685268e-01
9.99737875e-01
9.99791825e-01
9.99847102e-01
9.99903682e-01
9.99961528e-01
1.00002059e+00
1.00008082e+00
1.00014213e+00
1.00020445e+00
1.00026769e+00
1.00033173e+00
1.00039648e+00
1.00046182e+00
1.00052763e+00
1.00059377e+00
1.00066013e+00
1.00072657e+00
1.00079297e+00
1.00085920e+00
1.00092515e+00
1.00099070e+00
1.00105575e+00
1.00112019e+00
1.00118394e+00
1.00124693e+00
1.00130907e+00
1.00137032e+00
1.00143063e+00
1.00148996e+00
1.00154827e+00
1.00160556e+00
1.00166181e+00
1.00171703e+00
1.00177120e+00
1.00182434e+00
1.00187647e+00
1.00192759e+00
1.00197774e+00
1.00202692e+00
1.00207515e+00
1.00212246e+00
1.00216885e+00
1.00221435e+00
1.00225895e+00
1.00230266e+00
1.00234548e+00
1.00238740e+00
1.00242842e+00
1.00246851e+00
1.00250764e+00
1.00254579e+00
1.00258291e+00
1.00261896e+00
1.00265390e+00
1.00268766e+00
1.00272018e+00
1.00275141e+00
1.00278126e+00
1.00280965e+00
1.00283653e+00
1.00286183e+00
1.00288543e+00
1.00290726e+00
1.00292730e+00
1.00294543e+00
1.00296155e+00
1.00297567e+00
1.00298772e+00
1.00299757e+00
1.00300523e+00
1.00301067e+00
1.00301382e+00
1.00301478e+00
9.98327844e-01
9.98326775e-01
9.98326885e-01
9.98328198e-01
9.98330731e-01
9.98334495e-01
9.98339411e-01
9.98345455e-01
9.98352673e-01
9.98361019e-01
9.98370434e-01
9.98380942e-01
9.98392529e-01
9.98405138e-01
9.98418758e-01
9.98433384e-01
9.98448980e-01
9.98465520e-01
9.98482992e-01
9.98501375e-01
9.98520647e-01
9.98540789e-01
9.98561788e-01
9.98583626e-01
9.98606290e-01
9.98629766e-01
9.98654044e-01
9.98679115e-01
9.98704970e-01
9.98731603e-01
9.98759012e-01
9.98787195e-01
9.98816152e-01
9.98845886e-01
9.98876403e-01
9.98907714e-01
9.98939829e-01
9.98972764e-01
9.99006538e-01
9.99041173e-01
9.99076694e-01
9.99113130e-01
9.99150513e-01
9.99188878e-01
9.99228260e-01
9.99268699e-01
9.99310234e-01
9.99352904e-01
9.99396749e-01
9.99441806e-01
9.99488109e-01
9.99535689e-01
9.99584573e-01
9.99634779e-01
9.99686321e-01
9.99739202e-01
9.99793418e-01
9.99848954e-01
9.99905783e-01
9.99963871e-01
1.00002317e+00
1.00008361e+00
1.00014514e+00
1.00020767e+00
1.00027110e+00
1.00033534e+00
1.00040027e+00
1.00046579e+00
1.00053177e+00
1.00059809e+00
1.00066462e+00
1.00073124e+00
1.00079781e+00
1.00086421e+00
1.00093033e+00
1.00099605e+00
1.00106127e+00
1.00112588e+00
1.00118980e+00
1.00125295e+00
1.00131525e+00
1.00137664e+00
1.00143708e+00
1.00149653e+00
1.00155496e+00
1.00161234e+00
1.00166866e+00
1.00172391e+00
1.00177811e+00
1.00183125e+00
1.00188335e+00
1.00193442e+00
1.00198447e+00
1.00203353e+00
1.00208162e+00
1.00212875e+00
1.00217493e+00
1.00222019e+00
1.00226452e+00
1.00230795e+00
1.00235046e+00
1.00239205e+00
1.00243271e+00
1.00247243e+00
1.00251118e+00
1.00254894e+00
1.00258566e+00
1.00262131e+00
1.00265584e+00
1.00268920e+00
1.00272133e+00
1.00275215e+00
1.00278162e+00
1.00280966e+00
1.00283618e+00
1.00286112e+00
1.00288442e+00
1.00290597e+00
1.00292570e+00
1.00294359e+00
1.00295953e+00
1.00297342e+00
1.00298528e+00
1.00299503e+00
1.00300257e+00
1.00300788e+00
1.00301101e+00
1.00301196e+00
9.98316610e-01
9.98315562e-01
9.98315717e-01
9.98317115e-01
9.98319756e-01
9.98323609e-01
9.98328639e-01
9.98334855e-01
9.98342233e-01
9.98350723e-01
9.98360334e-01
9.98371053e-01
9.98382827e-01
9.98395642e-01
9.98409491e-01
9.98424338e-01
9.98440155e-01
9.98456928e-01
9.98474635e-01
9.98493251e-01
9.98512756e-01
9.98533134e-01
9.98554367e-01
9.98576437e-01
9.98599331e-01
9.98623036e-01
9.98647541e-01
9.98672836e-01
9.98698913e-01
9.98725769e-01
9.98753398e-01
9.98781801e-01
9.98810978e-01
9.98840935e-01
9.98871678e-01
9.98903217e-01
9.98935566e-01
9.98968739e-01
9.99002758e-01
9.99037644e-01
9.99073424e-01
9.99110127e-01
9.99147785e-01
9.99186431e-01
9.99226103e-01
9.99266838e-01
9.99308675e-01
9.99351653e-01
9.99395808e-01
9.99441179e-01
9.99487797e-01
9.99535692e-01
9.99584888e-01
9.99635404e-01
9.99687251e-01
9.99740431e-01
9.99794940e-01
9.99850760e-01
9.99907866e-01
9.99966221e-01
1.00002578e+00
1.00008647e+00
1.00014824e+00
1.00021100e+00
1.00027465e+00
1.00033911e+00
1.00040426e+00
1.00046999e+00
1.00053617e+00
1.00060270e+00
1.00066942e+00
1.00073624e+00
1.00080300e+00
1.00086961e+00
1.00093592e+00
1.00100184e+00
1.00106724e+00
1.00113205e+00
1.00119615e+00
1.00125947e+00
1.00132194e+00
1.00138350e+00
1.00144409e+00
1.00150368e+00
1.00156222e+00
1.00161970e+00
1.00167609e+00
1.00173140e+00
1.00178562e+00
1.00183876e+00
1.00189082e+00
1.00194183e+00
1.00199178e+00
1.00204072e+00
1.00208864e+00
1.00213557e+00
1.00218153e+00
1.00222653e+00
1.00227059e+00
1.00231370e+00
1.00235587e+00
1.00239710e+00
1.00243739e+00
1.00247671e+00
1.00251505e+00
1.00255238e+00
1.00258868e+00
1.00262389e+00
1.00265798e+00
1.00269090e+00
1.00272260e+00
1.00275300e+00
1.00278205e+00
1.00280968e+00
1.00283583e+00
1.00286039e+00
1.00288333e+00
1.00290458e+00
1.00292402e+00
1.00294161e+00
1.00295730e+00
1.00297101e+00
1.00298267e+00
1.00299224e+00
1.00299968e+00
1.00300492e+00
1.00300798e+00
1.00300888e+00
9.98304904e-01
9.98303897e-01
9.98304106e-01
9.98305590e-01
9.98308321e-01
9.98312272e-01
9.98317438e-01
9.98323802e-01
9.98331317e-01
9.98339981e-01
9.98349785e-01
9.98360681e-01
9.98372649e-01
9.98385681e-01
9.98399743e-01
9.98414802e-01
9.98430844e-01
9.98447848e-01
9.98465782e-01
9.98484628e-01
9.98504366e-01
9.98524977e-01
9.98546441e-01
9.98568742e-01
9.98591866e-01
9.98615799e-01
9.98640530e-01
9.98666051e-01
9.98692353e-01
9.98719432e-01
9.98747285e-01
9.98775912e-01
9.98805316e-01
9.98835501e-01
9.98866476e-01
9.98898252e-01
9.98930842e-01
9.98964264e-01
9.98998539e-01
9.99033689e-01
9.99069741e-01
9.99106724e-01
9.99144671e-01
9.99183615e-01
9.99223593e-01
9.99264642e-01
9.99306800e-01
9.99350104e-01
9.99394591e-01
9.99440297e-01
9.99487251e-01
9.99535484e-01
9.99585016e-01
9.99635866e-01
9.99688043e-01
9.99741548e-01
9.99796375e-01
9.99852506e-01
9.99909915e-01
9.99968565e-01
1.00002841e+00
1.00008938e+00
1.00015142e+00
1.00021443e+00
1.00027834e+00