# vtk DataFile Version 2.0
LBM Flow Field - Timestep 2550
ASCII
DATASET STRUCTURED_POINTS
DIMENSIONS 128 128 1
ORIGIN 0.0 0.0 0.0
SPACING 1.0 1.0 1.0
POINT_DATA 16384
SCALARS density double 1
LOOKUP_TABLE default
9.99647738e-01
9.99671310e-01
9.99698290e-01
9.99705301e-01
9.99715052e-01
9.99729635e-01
9.99744194e-01
9.99758643e-01
9.99774914e-01
9.99792433e-01
9.99810637e-01
9.99829624e-01
9.99849461e-01
9.99869923e-01
9.99890886e-01
9.99912280e-01
9.99934004e-01
9.99955940e-01
9.99977987e-01
1.00000005e+00
1.00002204e+00
1.00004385e+00
1.00006541e+00
1.00008663e+00
1.00010742e+00
1.00012773e+00
1.00014746e+00
1.00016656e+00
1.00018497e+00
1.00020263e+00
1.00021949e+00
1.00023549e+00
1.00025061e+00
1.00026481e+00
1.00027807e+00
1.00029036e+00
1.00030168e+00
1.00031202e+00
1.00032139e+00
1.00032981e+00
1.00033730e+00
1.00034388e+00
1.00034960e+00
1.00035448e+00
1.00035858e+00
1.00036194e+00
1.00036461e+00
1.00036664e+00
1.00036807e+00
1.00036896e+00
1.00036933e+00
1.00036924e+00
1.00036871e+00
1.00036777e+00
1.00036643e+00
1.00036472e+00
1.00036265e+00
1.00036022e+00
1.00035744e+00
1.00035432e+00
1.00035086e+00
1.00034706e+00
1.00034294e+00
1.00033852e+00
1.00033382e+00
1.00032887e+00
1.00032372e+00
1.00031842e+00
1.00031305e+00
1.00030767e+00
1.00030240e+00
1.00029732e+00
1.00029256e+00
1.00028825e+00
1.00028452e+00
1.00028151e+00
1.00027937e+00
1.00027826e+00
1.00027832e+00
1.00027971e+00
1.00028256e+00
1.00028702e+00
1.00029321e+00
1.00030125e+00
1.00031124e+00
1.00032326e+00
1.00033738e+00
1.00035364e+00
1.00037207e+00
1.00039269e+00
1.00041546e+00
1.00044037e+00
1.00046734e+00
1.00049631e+00
1.00052719e+00
1.00055985e+00
1.00059418e+00
1.00063003e+00
1.00066724e+00
1.00070565e+00
1.00074509e+00
1.00078538e+00
1.00082633e+00
1.00086775e+00
1.00090945e+00
1.00095124e+00
1.00099294e+00
1.00103435e+00
1.00107530e+00
1.00111560e+00
1.00115510e+00
1.00119363e+00
1.00123104e+00
1.00126717e+00
1.00130190e+00
1.00133512e+00
1.00136671e+00
1.00139647e+00
1.00142445e+00
1.00145073e+00
1.00147484e+00
1.00149626e+00
1.00151683e+00
1.00153647e+00
1.00155061e+00
1.00156106e+00
1.00159035e+00
1.00161533e+00
9.99671560e-01
9.99681903e-01
9.99701642e-01
9.99711263e-01
9.99723097e-01
9.99736164e-01
9.99750551e-01
9.99765431e-01
9.99781612e-01
9.99798752e-01
9.99816855e-01
9.99835731e-01
9.99855364e-01
9.99875614e-01
9.99896401e-01
9.99917604e-01
9.99939129e-01
9.99960870e-01
9.99982731e-01
1.00000461e+00
1.00002642e+00
1.00004806e+00
1.00006946e+00
1.00009052e+00
1.00011118e+00
1.00013135e+00
1.00015096e+00
1.00016995e+00
1.00018825e+00
1.00020581e+00
1.00022258e+00
1.00023851e+00
1.00025356e+00
1.00026769e+00
1.00028089e+00
1.00029313e+00
1.00030439e+00
1.00031468e+00
1.00032401e+00
1.00033238e+00
1.00033981e+00
1.00034634e+00
1.00035199e+00
1.00035681e+00
1.00036084e+00
1.00036411e+00
1.00036669e+00
1.00036862e+00
1.00036994e+00
1.00037071e+00
1.00037095e+00
1.00037071e+00
1.00037003e+00
1.00036892e+00
1.00036742e+00
1.00036553e+00
1.00036328e+00
1.00036067e+00
1.00035771e+00
1.00035441e+00
1.00035077e+00
1.00034681e+00
1.00034254e+00
1.00033797e+00
1.00033314e+00
1.00032807e+00
1.00032282e+00
1.00031745e+00
1.00031201e+00
1.00030659e+00
1.00030128e+00
1.00029619e+00
1.00029143e+00
1.00028713e+00
1.00028343e+00
1.00028045e+00
1.00027836e+00
1.00027730e+00
1.00027741e+00
1.00027885e+00
1.00028175e+00
1.00028625e+00
1.00029248e+00
1.00030054e+00
1.00031054e+00
1.00032256e+00
1.00033665e+00
1.00035288e+00
1.00037126e+00
1.00039180e+00
1.00041448e+00
1.00043928e+00
1.00046612e+00
1.00049494e+00
1.00052565e+00
1.00055813e+00
1.00059225e+00
1.00062788e+00
1.00066486e+00
1.00070303e+00
1.00074222e+00
1.00078224e+00
1.00082291e+00
1.00086405e+00
1.00090547e+00
1.00094697e+00
1.00098838e+00
1.00102951e+00
1.00107017e+00
1.00111020e+00
1.00114943e+00
1.00118770e+00
1.00122485e+00
1.00126075e+00
1.00129526e+00
1.00132825e+00
1.00135963e+00
1.00138926e+00
1.00141713e+00
1.00144306e+00
1.00146710e+00
1.00148891e+00
1.00150933e+00
1.00152749e+00
1.00154366e+00
1.00155660e+00
1.00157888e+00
1.00159077e+00
9.99699898e-01
9.99702896e-01
9.99705335e-01
9.99720084e-01
9.99734710e-01
9.99745629e-01
9.99758995e-01
9.99774553e-01
9.99790603e-01
9.99807302e-01
9.99825200e-01
9.99843953e-01
9.99863342e-01
9.99883354e-01
9.99903926e-01
9.99924911e-01
9.99946208e-01
9.99967728e-01
9.99989374e-01
1.00001104e+00
1.00003265e+00
1.00005410e+00
1.00007531e+00
1.00009619e+00
1.00011668e+00
1.00013669e+00
1.00015615e+00
1.00017500e+00
1.00019317e+00
1.00021060e+00
1.00022725e+00
1.00024307e+00
1.00025801e+00
1.00027204e+00
1.00028514e+00
1.00029728e+00
1.00030845e+00
1.00031864e+00
1.00032787e+00
1.00033614e+00
1.00034346e+00
1.00034988e+00
1.00035541e+00
1.00036010e+00
1.00036399e+00
1.00036712e+00
1.00036954e+00
1.00037130e+00
1.00037245e+00
1.00037302e+00
1.00037307e+00
1.00037262e+00
1.00037172e+00
1.00037039e+00
1.00036866e+00
1.00036654e+00
1.00036405e+00
1.00036121e+00
1.00035803e+00
1.00035450e+00
1.00035065e+00
1.00034649e+00
1.00034202e+00
1.00033728e+00
1.00033228e+00
1.00032708e+00
1.00032170e+00
1.00031621e+00
1.00031069e+00
1.00030520e+00
1.00029984e+00
1.00029471e+00
1.00028993e+00
1.00028563e+00
1.00028193e+00
1.00027897e+00
1.00027690e+00
1.00027587e+00
1.00027601e+00
1.00027748e+00
1.00028040e+00
1.00028493e+00
1.00029117e+00
1.00029923e+00
1.00030922e+00
1.00032121e+00
1.00033526e+00
1.00035142e+00
1.00036972e+00
1.00039016e+00
1.00041272e+00
1.00043737e+00
1.00046405e+00
1.00049269e+00
1.00052319e+00
1.00055544e+00
1.00058932e+00
1.00062469e+00
1.00066139e+00
1.00069927e+00
1.00073815e+00
1.00077785e+00
1.00081820e+00
1.00085901e+00
1.00090008e+00
1.00094124e+00
1.00098230e+00
1.00102308e+00
1.00106339e+00
1.00110308e+00
1.00114197e+00
1.00117990e+00
1.00121673e+00
1.00125231e+00
1.00128653e+00
1.00131922e+00
1.00135031e+00
1.00137975e+00
1.00140737e+00
1.00143287e+00
1.00145674e+00
1.00147914e+00
1.00149855e+00
1.00151464e+00
1.00153342e+00
1.00155145e+00
1.00155665e+00
1.00156145e+00
9.99710009e-01
9.99715443e-01
9.99722589e-01
9.99734234e-01
9.99744623e-01
9.99756874e-01
9.99770935e-01
9.99785596e-01
9.99801148e-01
9.99817925e-01
9.99835616e-01
9.99854042e-01
9.99873208e-01
9.99893024e-01
9.99913352e-01
9.99934096e-01
9.99955168e-01
9.99976464e-01
9.99997884e-01
1.00001933e+00
1.00004072e+00
1.00006196e+00
1.00008297e+00
1.00010366e+00
1.00012395e+00
1.00014377e+00
1.00016305e+00
1.00018173e+00
1.00019973e+00
1.00021700e+00
1.00023349e+00
1.00024914e+00
1.00026393e+00
1.00027780e+00
1.00029074e+00
1.00030273e+00
1.00031374e+00
1.00032377e+00
1.00033284e+00
1.00034094e+00
1.00034809e+00
1.00035433e+00
1.00035968e+00
1.00036418e+00
1.00036787e+00
1.00037079e+00
1.00037299e+00
1.00037453e+00
1.00037543e+00
1.00037576e+00
1.00037556e+00
1.00037485e+00
1.00037369e+00
1.00037209e+00
1.00037009e+00
1.00036770e+00
1.00036495e+00
1.00036184e+00
1.00035839e+00
1.00035462e+00
1.00035053e+00
1.00034613e+00
1.00034145e+00
1.00033651e+00
1.00033134e+00
1.00032597e+00
1.00032045e+00
1.00031484e+00
1.00030921e+00
1.00030363e+00
1.00029821e+00
1.00029303e+00
1.00028822e+00
1.00028390e+00
1.00028019e+00
1.00027723e+00
1.00027517e+00
1.00027415e+00
1.00027430e+00
1.00027578e+00
1.00027871e+00
1.00028323e+00
1.00028945e+00
1.00029749e+00
1.00030743e+00
1.00031936e+00
1.00033333e+00
1.00034940e+00
1.00036757e+00
1.00038787e+00
1.00041026e+00
1.00043472e+00
1.00046118e+00
1.00048958e+00
1.00051983e+00
1.00055180e+00
1.00058538e+00
1.00062043e+00
1.00065680e+00
1.00069433e+00
1.00073284e+00
1.00077217e+00
1.00081214e+00
1.00085255e+00
1.00089323e+00
1.00093399e+00
1.00097464e+00
1.00101502e+00
1.00105493e+00
1.00109422e+00
1.00113272e+00
1.00117028e+00
1.00120673e+00
1.00124195e+00
1.00127581e+00
1.00130819e+00
1.00133895e+00
1.00136800e+00
1.00139535e+00
1.00142082e+00
1.00144414e+00
1.00146565e+00
1.00148566e+00
1.00150296e+00
1.00151753e+00
1.00153261e+00
1.00154253e+00
1.00154982e+00
9.99723894e-01
9.99730865e-01
9.99740609e-01
9.99747993e-01
9.99757645e-01
9.99771227e-01
9.99784538e-01
9.99798315e-01
9.99813861e-01
9.99830550e-01
9.99847856e-01
9.99865991e-01
9.99884953e-01
9.99904521e-01
9.99924582e-01
9.99945080e-01
9.99965911e-01
9.99986962e-01
1.00000814e+00
1.00002935e+00
1.00005051e+00
1.00007152e+00
1.00009230e+00
1.00011277e+00
1.00013285e+00
1.00015245e+00
1.00017152e+00
1.00018999e+00
1.00020778e+00
1.00022485e+00
1.00024113e+00
1.00025659e+00
1.00027117e+00
1.00028484e+00
1.00029758e+00
1.00030935e+00
1.00032016e+00
1.00032998e+00
1.00033883e+00
1.00034670e+00
1.00035363e+00
1.00035963e+00
1.00036474e+00
1.00036899e+00
1.00037242e+00
1.00037508e+00
1.00037701e+00
1.00037827e+00
1.00037889e+00
1.00037892e+00
1.00037841e+00
1.00037740e+00
1.00037593e+00
1.00037402e+00
1.00037170e+00
1.00036900e+00
1.00036594e+00
1.00036253e+00
1.00035880e+00
1.00035474e+00
1.00035038e+00
1.00034573e+00
1.00034082e+00
1.00033565e+00
1.00033028e+00
1.00032473e+00
1.00031906e+00
1.00031331e+00
1.00030757e+00
1.00030190e+00
1.00029640e+00
1.00029117e+00
1.00028632e+00
1.00028198e+00
1.00027825e+00
1.00027529e+00
1.00027323e+00
1.00027221e+00
1.00027237e+00
1.00027384e+00
1.00027677e+00
1.00028127e+00
1.00028746e+00
1.00029545e+00
1.00030532e+00
1.00031717e+00
1.00033103e+00
1.00034696e+00
1.00036498e+00
1.00038508e+00
1.00040727e+00
1.00043149e+00
1.00045769e+00
1.00048580e+00
1.00051572e+00
1.00054736e+00
1.00058058e+00
1.00061525e+00
1.00065122e+00
1.00068834e+00
1.00072643e+00
1.00076532e+00
1.00080483e+00
1.00084479e+00
1.00088500e+00
1.00092530e+00
1.00096549e+00
1.00100540e+00
1.00104486e+00
1.00108369e+00
1.00112174e+00
1.00115885e+00
1.00119488e+00
1.00122968e+00
1.00126312e+00
1.00129510e+00
1.00132552e+00
1.00135417e+00
1.00138103e+00
1.00140630e+00
1.00142952e+00
1.00145012e+00
1.00146929e+00
1.00148782e+00
1.00150170e+00
1.00151255e+00
1.00152489e+00
1.00153369e+00
9.99743282e-01
9.99748389e-01
9.99755828e-01
9.99764371e-01
9.99775289e-01
9.99786765e-01
9.99799132e-01
9.99813456e-01
9.99828805e-01
9.99844825e-01
9.99861862e-01
9.99879853e-01
9.99898510e-01
9.99917758e-01
9.99937564e-01
9.99957805e-01
9.99978360e-01
9.99999144e-01
1.00002006e+00
1.00004102e+00
1.00006192e+00
1.00008268e+00
1.00010321e+00
1.00012343e+00
1.00014327e+00
1.00016263e+00
1.00018146e+00
1.00019968e+00
1.00021724e+00
1.00023407e+00
1.00025011e+00
1.00026532e+00
1.00027966e+00
1.00029308e+00
1.00030557e+00
1.00031709e+00
1.00032763e+00
1.00033720e+00
1.00034577e+00
1.00035338e+00
1.00036003e+00
1.00036574e+00
1.00037056e+00
1.00037451e+00
1.00037763e+00
1.00037997e+00
1.00038158e+00
1.00038250e+00
1.00038279e+00
1.00038248e+00
1.00038162e+00
1.00038026e+00
1.00037843e+00
1.00037616e+00
1.00037350e+00
1.00037045e+00
1.00036705e+00
1.00036330e+00
1.00035924e+00
1.00035488e+00
1.00035022e+00
1.00034529e+00
1.00034012e+00
1.00033472e+00
1.00032913e+00
1.00032339e+00
1.00031755e+00
1.00031166e+00
1.00030579e+00
1.00030002e+00
1.00029445e+00
1.00028916e+00
1.00028427e+00
1.00027989e+00
1.00027615e+00
1.00027318e+00
1.00027112e+00
1.00027010e+00
1.00027025e+00
1.00027171e+00
1.00027462e+00
1.00027909e+00
1.00028523e+00
1.00029316e+00
1.00030294e+00
1.00031467e+00
1.00032840e+00
1.00034417e+00
1.00036199e+00
1.00038187e+00
1.00040380e+00
1.00042774e+00
1.00045363e+00
1.00048140e+00
1.00051096e+00
1.00054220e+00
1.00057501e+00
1.00060924e+00
1.00064475e+00
1.00068139e+00
1.00071899e+00
1.00075737e+00
1.00079637e+00
1.00083580e+00
1.00087549e+00
1.00091526e+00
1.00095492e+00
1.00099430e+00
1.00103323e+00
1.00107154e+00
1.00110908e+00
1.00114568e+00
1.00118121e+00
1.00121554e+00
1.00124852e+00
1.00128001e+00
1.00130996e+00
1.00133830e+00
1.00136474e+00
1.00138925e+00
1.00141216e+00
1.00143314e+00
1.00145131e+00
1.00146774e+00
1.00148279e+00
1.00149468e+00
1.00150473e+00
1.00151164e+00
9.99763158e-01
9.99767893e-01
9.99774136e-01
9.99783218e-01
9.99793335e-01
9.99803832e-01
9.99816501e-01
9.99830555e-01
9.99845185e-01
9.99860928e-01
9.99877821e-01
9.99895456e-01
9.99913751e-01
9.99932729e-01
9.99952258e-01
9.99972193e-01
9.99992456e-01
1.00001296e+00
1.00003360e+00
1.00005427e+00
1.00007490e+00
1.00009538e+00
1.00011564e+00
1.00013559e+00
1.00015515e+00
1.00017424e+00
1.00019280e+00
1.00021075e+00
1.00022803e+00
1.00024458e+00
1.00026035e+00
1.00027528e+00
1.00028933e+00
1.00030247e+00
1.00031466e+00
1.00032588e+00
1.00033613e+00
1.00034538e+00
1.00035364e+00
1.00036093e+00
1.00036725e+00
1.00037263e+00
1.00037710e+00
1.00038070e+00
1.00038347e+00
1.00038545e+00
1.00038668e+00
1.00038723e+00
1.00038713e+00
1.00038643e+00
1.00038518e+00
1.00038343e+00
1.00038120e+00
1.00037854e+00
1.00037548e+00
1.00037205e+00
1.00036827e+00
1.00036416e+00
1.00035975e+00
1.00035504e+00
1.00035007e+00
1.00034484e+00
1.00033939e+00
1.00033373e+00
1.00032791e+00
1.00032197e+00
1.00031594e+00
1.00030990e+00
1.00030390e+00
1.00029802e+00
1.00029236e+00
1.00028701e+00
1.00028207e+00
1.00027766e+00
1.00027390e+00
1.00027092e+00
1.00026885e+00
1.00026782e+00
1.00026796e+00
1.00026940e+00
1.00027228e+00
1.00027670e+00
1.00028279e+00
1.00029062e+00
1.00030031e+00
1.00031190e+00
1.00032546e+00
1.00034103e+00
1.00035863e+00
1.00037825e+00
1.00039989e+00
1.00042350e+00
1.00044903e+00
1.00047641e+00
1.00050556e+00
1.00053635e+00
1.00056868e+00
1.00060242e+00
1.00063741e+00
1.00067351e+00
1.00071055e+00
1.00074837e+00
1.00078679e+00
1.00082563e+00
1.00086473e+00
1.00090390e+00
1.00094296e+00
1.00098174e+00
1.00102008e+00
1.00105781e+00
1.00109478e+00
1.00113082e+00
1.00116579e+00
1.00119956e+00
1.00123203e+00
1.00126303e+00
1.00129242e+00
1.00132021e+00
1.00134634e+00
1.00137042e+00
1.00139248e+00
1.00141306e+00
1.00143142e+00
1.00144681e+00
1.00146094e+00
1.00147326e+00
1.00148210e+00
1.00148858e+00
9.99783507e-01
9.99788507e-01
9.99795247e-01
9.99803315e-01
9.99812463e-01
9.99823442e-01
9.99835820e-01
9.99848924e-01
9.99863327e-01
9.99878998e-01
9.99895443e-01
9.99912652e-01
9.99930691e-01
9.99949380e-01
9.99968562e-01
9.99988180e-01
1.00000815e+00
1.00002834e+00
1.00004867e+00
1.00006905e+00
1.00008937e+00
1.00010956e+00
1.00012952e+00
1.00014917e+00
1.00016844e+00
1.00018723e+00
1.00020549e+00
1.00022314e+00
1.00024011e+00
1.00025635e+00
1.00027180e+00
1.00028642e+00
1.00030015e+00
1.00031295e+00
1.00032481e+00
1.00033570e+00
1.00034559e+00
1.00035449e+00
1.00036240e+00
1.00036931e+00
1.00037526e+00
1.00038026e+00
1.00038434e+00
1.00038755e+00
1.00038991e+00
1.00039148e+00
1.00039230e+00
1.00039242e+00
1.00039190e+00
1.00039077e+00
1.00038909e+00
1.00038690e+00
1.00038424e+00
1.00038115e+00
1.00037767e+00
1.00037382e+00
1.00036963e+00
1.00036513e+00
1.00036033e+00
1.00035527e+00
1.00034995e+00
1.00034440e+00
1.00033865e+00
1.00033272e+00
1.00032665e+00
1.00032048e+00
1.00031427e+00
1.00030806e+00
1.00030192e+00
1.00029593e+00
1.00029018e+00
1.00028475e+00
1.00027976e+00
1.00027531e+00
1.00027153e+00
1.00026853e+00
1.00026644e+00
1.00026539e+00
1.00026551e+00
1.00026693e+00
1.00026976e+00
1.00027413e+00
1.00028013e+00
1.00028787e+00
1.00029742e+00
1.00030885e+00
1.00032222e+00
1.00033756e+00
1.00035490e+00
1.00037423e+00
1.00039553e+00
1.00041878e+00
1.00044391e+00
1.00047085e+00
1.00049952e+00
1.00052982e+00
1.00056162e+00
1.00059480e+00
1.00062922e+00
1.00066472e+00
1.00070115e+00
1.00073834e+00
1.00077611e+00
1.00081431e+00
1.00085275e+00
1.00089126e+00
1.00092966e+00
1.00096780e+00
1.00100548e+00
1.00104257e+00
1.00107889e+00
1.00111431e+00
1.00114868e+00
1.00118185e+00
1.00121370e+00
1.00124415e+00
1.00127305e+00
1.00130021e+00
1.00132570e+00
1.00134950e+00
1.00137117e+00
1.00139069e+00
1.00140862e+00
1.00142433e+00
1.00143743e+00
1.00144870e+00
1.00145790e+00
1.00146454e+00
9.99806239e-01
9.99810962e-01
9.99817435e-01
9.99824896e-01
9.99833934e-01
9.99844653e-01
9.99856277e-01
9.99869133e-01
9.99883402e-01
9.99898567e-01
9.99914573e-01
9.99931533e-01
9.99949254e-01
9.99967557e-01
9.99986404e-01
1.00000571e+00
1.00002535e+00
1.00004521e+00
1.00006522e+00
1.00008528e+00
1.00010528e+00
1.00012515e+00
1.00014479e+00
1.00016412e+00
1.00018306e+00
1.00020153e+00
1.00021946e+00
1.00023677e+00
1.00025341e+00
1.00026931e+00
1.00028441e+00
1.00029867e+00
1.00031204e+00
1.00032448e+00
1.00033597e+00
1.00034647e+00
1.00035598e+00
1.00036448e+00
1.00037199e+00
1.00037849e+00
1.00038403e+00
1.00038860e+00
1.00039226e+00
1.00039502e+00
1.00039694e+00
1.00039806e+00
1.00039842e+00
1.00039808e+00
1.00039709e+00
1.00039549e+00
1.00039334e+00
1.00039068e+00
1.00038755e+00
1.00038400e+00
1.00038006e+00
1.00037576e+00
1.00037114e+00
1.00036621e+00
1.00036101e+00
1.00035556e+00
1.00034988e+00
1.00034399e+00
1.00033792e+00
1.00033170e+00
1.00032537e+00
1.00031897e+00
1.00031255e+00
1.00030617e+00
1.00029988e+00
1.00029377e+00
1.00028792e+00
1.00028241e+00
1.00027736e+00
1.00027287e+00
1.00026905e+00
1.00026603e+00
1.00026391e+00
1.00026284e+00
1.00026293e+00
1.00026431e+00
1.00026709e+00
1.00027138e+00
1.00027728e+00
1.00028489e+00
1.00029429e+00
1.00030554e+00
1.00031869e+00
1.00033377e+00
1.00035081e+00
1.00036981e+00
1.00039074e+00
1.00041358e+00
1.00043826e+00
1.00046472e+00
1.00049288e+00
1.00052262e+00
1.00055385e+00
1.00058642e+00
1.00062020e+00
1.00065505e+00
1.00069080e+00
1.00072730e+00
1.00076438e+00
1.00080187e+00
1.00083960e+00
1.00087739e+00
1.00091508e+00
1.00095250e+00
1.00098948e+00
1.00102586e+00
1.00106150e+00
1.00109623e+00
1.00112993e+00
1.00116246e+00
1.00119368e+00
1.00122346e+00
1.00125177e+00
1.00127844e+00
1.00130326e+00
1.00132636e+00
1.00134771e+00
1.00136681e+00
1.00138385e+00
1.00139916e+00
1.00141204e+00
1.00142261e+00
1.00143144e+00
1.00143775e+00
9.99830764e-01
9.99834949e-01
9.99840848e-01
9.99848257e-01
9.99857109e-01
9.99867091e-01
9.99878382e-01
9.99891131e-01
9.99904880e-01
9.99919565e-01
9.99935330e-01
9.99951954e-01
9.99969249e-01
9.99987200e-01
1.00000573e+00
1.00002468e+00
1.00004396e+00
1.00006348e+00
1.00008315e+00
1.00010287e+00
1.00012253e+00
1.00014205e+00
1.00016135e+00
1.00018034e+00
1.00019893e+00
1.00021705e+00
1.00023462e+00
1.00025158e+00
1.00026785e+00
1.00028337e+00
1.00029810e+00
1.00031197e+00
1.00032494e+00
1.00033698e+00
1.00034806e+00
1.00035815e+00
1.00036723e+00
1.00037530e+00
1.00038236e+00
1.00038842e+00
1.00039350e+00
1.00039761e+00
1.00040079e+00
1.00040308e+00
1.00040452e+00
1.00040514e+00
1.00040501e+00
1.00040417e+00
1.00040268e+00
1.00040058e+00
1.00039792e+00
1.00039476e+00
1.00039113e+00
1.00038709e+00
1.00038266e+00
1.00037789e+00
1.00037281e+00
1.00036744e+00
1.00036181e+00
1.00035595e+00
1.00034988e+00
1.00034363e+00
1.00033723e+00
1.00033071e+00
1.00032411e+00
1.00031747e+00
1.00031083e+00
1.00030426e+00
1.00029782e+00
1.00029157e+00
1.00028561e+00
1.00028003e+00
1.00027491e+00
1.00027037e+00
1.00026651e+00
1.00026345e+00
1.00026130e+00
1.00026020e+00
1.00026024e+00
1.00026157e+00
1.00026427e+00
1.00026847e+00
1.00027426e+00
1.00028173e+00
1.00029095e+00
1.00030198e+00
1.00031489e+00
1.00032968e+00
1.00034640e+00
1.00036503e+00
1.00038555e+00
1.00040794e+00
1.00043213e+00
1.00045806e+00
1.00048565e+00
1.00051480e+00
1.00054539e+00
1.00057731e+00
1.00061041e+00
1.00064455e+00
1.00067957e+00
1.00071533e+00
1.00075166e+00
1.00078838e+00
1.00082534e+00
1.00086236e+00
1.00089928e+00
1.00093593e+00
1.00097215e+00
1.00100778e+00
1.00104267e+00
1.00107668e+00
1.00110965e+00
1.00114148e+00
1.00117203e+00
1.00120116e+00
1.00122875e+00
1.00125480e+00
1.00127913e+00
1.00130154e+00
1.00132216e+00
1.00134095e+00
1.00135750e+00
1.00137196e+00
1.00138450e+00
1.00139489e+00
1.00140309e+00
1.00140882e+00
9.99856503e-01
9.99860440e-01
9.99865993e-01
9.99873069e-01
9.99881443e-01
9.99891074e-01
9.99902155e-01
9.99914414e-01
9.99927694e-01
9.99942123e-01
9.99957524e-01
9.99973696e-01
9.99990630e-01
1.00000825e+00
1.00002639e+00
1.00004496e+00
1.00006389e+00
1.00008306e+00
1.00010236e+00
1.00012171e+00
1.00014102e+00
1.00016018e+00
1.00017912e+00
1.00019773e+00
1.00021596e+00
1.00023370e+00
1.00025089e+00
1.00026746e+00
1.00028333e+00
1.00029846e+00
1.00031277e+00
1.00032623e+00
1.00033877e+00
1.00035038e+00
1.00036101e+00
1.00037065e+00
1.00037927e+00
1.00038688e+00
1.00039346e+00
1.00039904e+00
1.00040362e+00
1.00040724e+00
1.00040991e+00
1.00041169e+00
1.00041261e+00
1.00041271e+00
1.00041205e+00
1.00041068e+00
1.00040865e+00
1.00040602e+00
1.00040283e+00
1.00039913e+00
1.00039498e+00
1.00039042e+00
1.00038548e+00
1.00038021e+00
1.00037464e+00
1.00036880e+00
1.00036273e+00
1.00035644e+00
1.00034998e+00
1.00034335e+00
1.00033661e+00
1.00032978e+00
1.00032289e+00
1.00031599e+00
1.00030913e+00
1.00030237e+00
1.00029576e+00
1.00028938e+00
1.00028331e+00
1.00027763e+00
1.00027244e+00
1.00026783e+00
1.00026392e+00
1.00026082e+00
1.00025863e+00
1.00025748e+00
1.00025748e+00
1.00025873e+00
1.00026135e+00
1.00026544e+00
1.00027110e+00
1.00027840e+00
1.00028742e+00
1.00029822e+00
1.00031084e+00
1.00032533e+00
1.00034168e+00
1.00035991e+00
1.00037998e+00
1.00040188e+00
1.00042554e+00
1.00045091e+00
1.00047789e+00
1.00050639e+00
1.00053630e+00
1.00056751e+00
1.00059987e+00
1.00063326e+00
1.00066751e+00
1.00070247e+00
1.00073799e+00
1.00077390e+00
1.00081003e+00
1.00084623e+00
1.00088233e+00
1.00091816e+00
1.00095357e+00
1.00098839e+00
1.00102249e+00
1.00105572e+00
1.00108794e+00
1.00111901e+00
1.00114882e+00
1.00117727e+00
1.00120419e+00
1.00122950e+00
1.00125319e+00
1.00127508e+00
1.00129502e+00
1.00131312e+00
1.00132927e+00
1.00134322e+00
1.00135516e+00
1.00136510e+00
1.00137286e+00
1.00137826e+00
9.99883540e-01
9.99887214e-01
9.99892505e-01
9.99899137e-01
9.99907116e-01
9.99916512e-01
9.99927168e-01
9.99938945e-01
9.99951933e-01
9.99965999e-01
9.99980934e-01
9.99996730e-01
1.00001332e+00
1.00003053e+00
1.00004828e+00
1.00006648e+00
1.00008503e+00
1.00010381e+00
1.00012274e+00
1.00014172e+00
1.00016064e+00
1.00017942e+00
1.00019797e+00
1.00021620e+00
1.00023403e+00
1.00025137e+00
1.00026816e+00
1.00028431e+00
1.00029977e+00
1.00031446e+00
1.00032834e+00
1.00034135e+00
1.00035344e+00
1.00036458e+00
1.00037474e+00
1.00038390e+00
1.00039203e+00
1.00039914e+00
1.00040521e+00
1.00041028e+00
1.00041434e+00
1.00041742e+00
1.00041956e+00
1.00042080e+00
1.00042117e+00
1.00042072e+00
1.00041950e+00
1.00041757e+00
1.00041498e+00
1.00041179e+00
1.00040804e+00
1.00040379e+00
1.00039909e+00
1.00039398e+00
1.00038852e+00
1.00038273e+00
1.00037666e+00
1.00037034e+00
1.00036380e+00
1.00035707e+00
1.00035019e+00
1.00034318e+00
1.00033608e+00
1.00032892e+00
1.00032174e+00
1.00031458e+00
1.00030749e+00
1.00030052e+00
1.00029374e+00
1.00028722e+00
1.00028103e+00
1.00027525e+00
1.00026998e+00
1.00026531e+00
1.00026134e+00
1.00025819e+00
1.00025595e+00
1.00025474e+00
1.00025467e+00
1.00025584e+00
1.00025836e+00
1.00026233e+00
1.00026783e+00
1.00027494e+00
1.00028374e+00
1.00029428e+00
1.00030660e+00
1.00032073e+00
1.00033670e+00
1.00035449e+00
1.00037408e+00
1.00039545e+00
1.00041855e+00
1.00044330e+00
1.00046963e+00
1.00049744e+00
1.00052664e+00
1.00055709e+00
1.00058867e+00
1.00062125e+00
1.00065467e+00
1.00068879e+00
1.00072346e+00
1.00075850e+00
1.00079377e+00
1.00082909e+00
1.00086432e+00
1.00089928e+00
1.00093383e+00
1.00096781e+00
1.00100108e+00
1.00103348e+00
1.00106490e+00
1.00109519e+00
1.00112422e+00
1.00115190e+00
1.00117813e+00
1.00120275e+00
1.00122569e+00
1.00124694e+00
1.00126634e+00
1.00128375e+00
1.00129928e+00
1.00131281e+00
1.00132422e+00
1.00133360e+00
1.00134098e+00
1.00134604e+00
9.99911903e-01
9.99915224e-01
9.99920137e-01
9.99926426e-01
9.99934092e-01
9.99943090e-01
9.99953306e-01
9.99964759e-01
9.99977377e-01
9.99990977e-01
1.00000553e+00
1.00002096e+00
1.00003713e+00
1.00005393e+00
1.00007129e+00
1.00008910e+00
1.00010725e+00
1.00012563e+00
1.00014417e+00
1.00016275e+00
1.00018127e+00
1.00019965e+00
1.00021780e+00
1.00023562e+00
1.00025303e+00
1.00026995e+00
1.00028631e+00
1.00030203e+00
1.00031704e+00
1.00033128e+00
1.00034470e+00
1.00035724e+00
1.00036885e+00
1.00037950e+00
1.00038916e+00
1.00039781e+00
1.00040542e+00
1.00041200e+00
1.00041755e+00
1.00042207e+00
1.00042558e+00
1.00042811e+00
1.00042968e+00
1.00043035e+00
1.00043015e+00
1.00042912e+00
1.00042732e+00
1.00042481e+00
1.00042164e+00
1.00041786e+00
1.00041353e+00
1.00040871e+00
1.00040344e+00
1.00039778e+00
1.00039176e+00
1.00038544e+00
1.00037886e+00
1.00037204e+00
1.00036503e+00
1.00035785e+00
1.00035055e+00
1.00034314e+00
1.00033568e+00
1.00032818e+00
1.00032070e+00
1.00031327e+00
1.00030594e+00
1.00029876e+00
1.00029181e+00
1.00028513e+00
1.00027881e+00
1.00027293e+00
1.00026757e+00
1.00026283e+00
1.00025880e+00
1.00025558e+00
1.00025328e+00
1.00025200e+00
1.00025185e+00
1.00025293e+00
1.00025533e+00
1.00025915e+00
1.00026448e+00
1.00027139e+00
1.00027994e+00
1.00029019e+00
1.00030218e+00
1.00031594e+00
1.00033149e+00
1.00034881e+00
1.00036789e+00
1.00038870e+00
1.00041118e+00
1.00043529e+00
1.00046093e+00
1.00048801e+00
1.00051644e+00
1.00054609e+00
1.00057685e+00
1.00060858e+00
1.00064113e+00
1.00067437e+00
1.00070813e+00
1.00074227e+00
1.00077662e+00
1.00081103e+00
1.00084534e+00
1.00087939e+00
1.00091304e+00
1.00094613e+00
1.00097851e+00
1.00101005e+00
1.00104062e+00
1.00107008e+00
1.00109832e+00
1.00112521e+00
1.00115066e+00
1.00117458e+00
1.00119682e+00
1.00121734e+00
1.00123610e+00
1.00125295e+00
1.00126784e+00
1.00128079e+00
1.00129173e+00
1.00130064e+00
1.00130754e+00
1.00131218e+00
9.99941328e-01
9.99944294e-01
9.99948838e-01
9.99954808e-01
9.99962116e-01
9.99970697e-01
9.99980556e-01
9.99991643e-01
1.00000381e+00
1.00001701e+00
1.00003119e+00
1.00004620e+00
1.00006193e+00
1.00007834e+00
1.00009529e+00
1.00011268e+00
1.00013042e+00
1.00014840e+00
1.00016652e+00
1.00018468e+00
1.00020279e+00
1.00022075e+00
1.00023847e+00
1.00025586e+00
1.00027284e+00
1.00028933e+00
1.00030523e+00
1.00032050e+00
1.00033504e+00
1.00034881e+00
1.00036174e+00
1.00037378e+00
1.00038489e+00
1.00039503e+00
1.00040417e+00
1.00041228e+00
1.00041936e+00
1.00042539e+00
1.00043037e+00
1.00043433e+00
1.00043727e+00
1.00043922e+00
1.00044022e+00
1.00044029e+00
1.00043949e+00
1.00043787e+00
1.00043548e+00
1.00043237e+00
1.00042859e+00
1.00042422e+00
1.00041930e+00
1.00041388e+00
1.00040803e+00
1.00040180e+00
1.00039523e+00
1.00038836e+00
1.00038125e+00
1.00037393e+00
1.00036643e+00
1.00035880e+00
1.00035106e+00
1.00034326e+00
1.00033542e+00
1.00032759e+00
1.00031979e+00
1.00031209e+00
1.00030452e+00
1.00029713e+00
1.00028999e+00
1.00028316e+00
1.00027670e+00
1.00027071e+00
1.00026526e+00
1.00026043e+00
1.00025633e+00
1.00025304e+00
1.00025067e+00
1.00024931e+00
1.00024907e+00
1.00025003e+00
1.00025231e+00
1.00025597e+00
1.00026110e+00
1.00026778e+00
1.00027606e+00
1.00028600e+00
1.00029764e+00
1.00031100e+00
1.00032609e+00
1.00034292e+00
1.00036145e+00
1.00038166e+00
1.00040351e+00
1.00042693e+00
1.00045184e+00
1.00047816e+00
1.00050578e+00
1.00053460e+00
1.00056450e+00
1.00059533e+00
1.00062698e+00
1.00065928e+00
1.00069210e+00
1.00072529e+00
1.00075869e+00
1.00079214e+00
1.00082549e+00
1.00085860e+00
1.00089130e+00
1.00092346e+00
1.00095493e+00
1.00098558e+00
1.00101526e+00
1.00104385e+00
1.00107126e+00
1.00109734e+00
1.00112199e+00
1.00114513e+00
1.00116667e+00
1.00118649e+00
1.00120454e+00
1.00122077e+00
1.00123508e+00
1.00124744e+00
1.00125785e+00
1.00126630e+00
1.00127273e+00
1.00127694e+00
9.99971649e-01
9.99974301e-01
9.99978498e-01
9.99984103e-01
9.99991032e-01
9.99999255e-01
1.00000874e+00
1.00001940e+00
1.00003116e+00
1.00004398e+00
1.00005772e+00
1.00007229e+00
1.00008763e+00
1.00010361e+00
1.00012013e+00
1.00013709e+00
1.00015441e+00
1.00017196e+00
1.00018965e+00
1.00020738e+00
1.00022506e+00
1.00024258e+00
1.00025986e+00
1.00027681e+00
1.00029334e+00
1.00030936e+00
1.00032480e+00
1.00033959e+00
1.00035365e+00
1.00036692e+00
1.00037935e+00
1.00039088e+00
1.00040146e+00
1.00041107e+00
1.00041966e+00
1.00042723e+00
1.00043374e+00
1.00043920e+00
1.00044362e+00
1.00044699e+00
1.00044934e+00
1.00045070e+00
1.00045109e+00
1.00045056e+00
1.00044916e+00
1.00044693e+00
1.00044392e+00
1.00044019e+00
1.00043581e+00
1.00043083e+00
1.00042530e+00
1.00041929e+00
1.00041285e+00
1.00040604e+00
1.00039890e+00
1.00039148e+00
1.00038384e+00
1.00037600e+00
1.00036802e+00
1.00035993e+00
1.00035176e+00
1.00034355e+00
1.00033533e+00
1.00032716e+00
1.00031905e+00
1.00031107e+00
1.00030325e+00
1.00029565e+00
1.00028832e+00
1.00028133e+00
1.00027474e+00
1.00026863e+00
1.00026307e+00
1.00025816e+00
1.00025397e+00
1.00025061e+00
1.00024815e+00
1.00024670e+00
1.00024635e+00
1.00024720e+00
1.00024932e+00
1.00025280e+00
1.00025773e+00
1.00026415e+00
1.00027215e+00
1.00028176e+00
1.00029301e+00
1.00030595e+00
1.00032056e+00
1.00033686e+00
1.00035481e+00
1.00037440e+00
1.00039558e+00
1.00041827e+00
1.00044242e+00
1.00046794e+00
1.00049473e+00
1.00052268e+00
1.00055167e+00
1.00058158e+00
1.00061227e+00
1.00064361e+00
1.00067546e+00
1.00070765e+00
1.00074006e+00
1.00077252e+00
1.00080488e+00
1.00083700e+00
1.00086872e+00
1.00089992e+00
1.00093044e+00
1.00096015e+00
1.00098892e+00
1.00101663e+00
1.00104315e+00
1.00106839e+00
1.00109224e+00
1.00111458e+00
1.00113536e+00
1.00115447e+00
1.00117183e+00
1.00118739e+00
1.00120110e+00
1.00121289e+00
1.00122276e+00
1.00123070e+00
1.00123667e+00
1.00124048e+00
1.00000275e+00
1.00000507e+00
1.00000892e+00
1.00001417e+00
1.00002073e+00
1.00002859e+00
1.00003767e+00
1.00004792e+00
1.00005929e+00
1.00007168e+00
1.00008499e+00
1.00009914e+00
1.00011404e+00
1.00012958e+00
1.00014567e+00
1.00016220e+00
1.00017907e+00
1.00019618e+00
1.00021343e+00
1.00023072e+00
1.00024794e+00
1.00026502e+00
1.00028184e+00
1.00029833e+00
1.00031438e+00
1.00032993e+00
1.00034489e+00
1.00035918e+00
1.00037274e+00
1.00038550e+00
1.00039741e+00
1.00040841e+00
1.00041845e+00
1.00042751e+00
1.00043554e+00
1.00044254e+00
1.00044848e+00
1.00045336e+00
1.00045718e+00
1.00045996e+00
1.00046171e+00
1.00046246e+00
1.00046224e+00
1.00046110e+00
1.00045908e+00
1.00045623e+00
1.00045260e+00
1.00044825e+00
1.00044325e+00
1.00043765e+00
1.00043152e+00
1.00042490e+00
1.00041787e+00
1.00041047e+00
1.00040277e+00
1.00039480e+00
1.00038662e+00
1.00037828e+00
1.00036981e+00
1.00036125e+00
1.00035264e+00
1.00034403e+00
1.00033544e+00
1.00032692e+00
1.00031851e+00