# vtk DataFile Version 2.0
LBM Flow Field - Timestep 1410
ASCII
DATASET STRUCTURED_POINTS
DIMENSIONS 128 128 1
ORIGIN 0.0 0.0 0.0
SPACING 1.0 1.0 1.0
POINT_DATA 16384
SCALARS density double 1
LOOKUP_TABLE default
1.00240273e+00
1.00239176e+00
1.00238053e+00
1.00238036e+00
1.00238097e+00
1.00238082e+00
1.00238212e+00
1.00238517e+00
1.00238900e+00
1.00239394e+00
1.00240042e+00
1.00240838e+00
1.00241775e+00
1.00242867e+00
1.00244121e+00
1.00245536e+00
1.00247112e+00
1.00248849e+00
1.00250746e+00
1.00252793e+00
1.00254983e+00
1.00257301e+00
1.00259731e+00
1.00262249e+00
1.00264828e+00
1.00267437e+00
1.00270037e+00
1.00272587e+00
1.00275038e+00
1.00277338e+00
1.00279431e+00
1.00281256e+00
1.00282751e+00
1.00283853e+00
1.00284497e+00
1.00284620e+00
1.00284160e+00
1.00283059e+00
1.00281265e+00
1.00278729e+00
1.00275410e+00
1.00271276e+00
1.00266301e+00
1.00260468e+00
1.00253771e+00
1.00246212e+00
1.00237802e+00
1.00228561e+00
1.00218518e+00
1.00207708e+00
1.00196178e+00
1.00183976e+00
1.00171160e+00
1.00157792e+00
1.00143939e+00
1.00129669e+00
1.00115057e+00
1.00100176e+00
1.00085101e+00
1.00069907e+00
1.00054670e+00
1.00039460e+00
1.00024349e+00
1.00009402e+00
9.99946824e-01
9.99802463e-01
9.99661462e-01
9.99524286e-01
9.99391340e-01
9.99262968e-01
9.99139458e-01
9.99021041e-01
9.98907898e-01
9.98800162e-01
9.98697930e-01
9.98601264e-01
9.98510205e-01
9.98424775e-01
9.98344987e-01
9.98270847e-01
9.98202366e-01
9.98139552e-01
9.98082418e-01
9.98030980e-01
9.97985249e-01
9.97945230e-01
9.97910911e-01
9.97882259e-01
9.97859206e-01
9.97841643e-01
9.97829410e-01
9.97822286e-01
9.97819989e-01
9.97822165e-01
9.97828396e-01
9.97838194e-01
9.97851015e-01
9.97866264e-01
9.97883313e-01
9.97901508e-01
9.97920195e-01
9.97938736e-01
9.97956523e-01
9.97973002e-01
9.97987684e-01
9.98000161e-01
9.98010113e-01
9.98017316e-01
9.98021640e-01
9.98023056e-01
9.98021622e-01
9.98017470e-01
9.98010805e-01
9.98001907e-01
9.97991078e-01
9.97978633e-01
9.97964944e-01
9.97950419e-01
9.97935338e-01
9.97920014e-01
9.97904937e-01
9.97890565e-01
9.97876618e-01
9.97863568e-01
9.97852668e-01
9.97843386e-01
9.97827616e-01
9.97814218e-01
1.00239143e+00
1.00238637e+00
1.00237887e+00
1.00237777e+00
1.00237708e+00
1.00237747e+00
1.00237887e+00
1.00238172e+00
1.00238558e+00
1.00239070e+00
1.00239717e+00
1.00240509e+00
1.00241446e+00
1.00242537e+00
1.00243784e+00
1.00245192e+00
1.00246760e+00
1.00248489e+00
1.00250373e+00
1.00252408e+00
1.00254583e+00
1.00256884e+00
1.00259294e+00
1.00261791e+00
1.00264348e+00
1.00266932e+00
1.00269507e+00
1.00272029e+00
1.00274451e+00
1.00276722e+00
1.00278785e+00
1.00280582e+00
1.00282050e+00
1.00283126e+00
1.00283747e+00
1.00283849e+00
1.00283372e+00
1.00282259e+00
1.00280456e+00
1.00277916e+00
1.00274599e+00
1.00270471e+00
1.00265508e+00
1.00259693e+00
1.00253018e+00
1.00245487e+00
1.00237109e+00
1.00227905e+00
1.00217903e+00
1.00207140e+00
1.00195659e+00
1.00183511e+00
1.00170752e+00
1.00157444e+00
1.00143653e+00
1.00129448e+00
1.00114902e+00
1.00100088e+00
1.00085080e+00
1.00069954e+00
1.00054782e+00
1.00039637e+00
1.00024587e+00
1.00009698e+00
9.99950308e-01
9.99806433e-01
9.99665864e-01
9.99529064e-01
9.99396434e-01
9.99268319e-01
9.99145009e-01
9.99026737e-01
9.98913689e-01
9.98806004e-01
9.98703785e-01
9.98607103e-01
9.98516005e-01
9.98430522e-01
9.98350675e-01
9.98276477e-01
9.98207941e-01
9.98145084e-01
9.98087919e-01
9.98036461e-01
9.97990723e-01
9.97950706e-01
9.97916394e-01
9.97887747e-01
9.97864692e-01
9.97847112e-01
9.97834839e-01
9.97827648e-01
9.97825249e-01
9.97827285e-01
9.97833335e-01
9.97842911e-01
9.97855471e-01
9.97870427e-01
9.97887154e-01
9.97905010e-01
9.97923352e-01
9.97941552e-01
9.97959015e-01
9.97975199e-01
9.97989626e-01
9.98001898e-01
9.98011703e-01
9.98018820e-01
9.98023126e-01
9.98024589e-01
9.98023262e-01
9.98019279e-01
9.98012840e-01
9.98004208e-01
9.97993675e-01
9.97981576e-01
9.97968250e-01
9.97954080e-01
9.97939371e-01
9.97924506e-01
9.97909765e-01
9.97895654e-01
9.97882052e-01
9.97869519e-01
9.97857773e-01
9.97848284e-01
9.97835444e-01
9.97826774e-01
1.00237614e+00
1.00237449e+00
1.00237474e+00
1.00237100e+00
1.00236887e+00
1.00237028e+00
1.00237218e+00
1.00237457e+00
1.00237847e+00
1.00238385e+00
1.00239036e+00
1.00239824e+00
1.00240767e+00
1.00241863e+00
1.00243111e+00
1.00244519e+00
1.00246089e+00
1.00247817e+00
1.00249700e+00
1.00251732e+00
1.00253903e+00
1.00256200e+00
1.00258605e+00
1.00261095e+00
1.00263644e+00
1.00266220e+00
1.00268785e+00
1.00271297e+00
1.00273708e+00
1.00275969e+00
1.00278022e+00
1.00279808e+00
1.00281268e+00
1.00282336e+00
1.00282952e+00
1.00283051e+00
1.00282573e+00
1.00281462e+00
1.00279665e+00
1.00277135e+00
1.00273830e+00
1.00269719e+00
1.00264776e+00
1.00258985e+00
1.00252338e+00
1.00244839e+00
1.00236497e+00
1.00227333e+00
1.00217375e+00
1.00206659e+00
1.00195229e+00
1.00183136e+00
1.00170435e+00
1.00157188e+00
1.00143461e+00
1.00129322e+00
1.00114843e+00
1.00100097e+00
1.00085159e+00
1.00070101e+00
1.00054996e+00
1.00039915e+00
1.00024926e+00
1.00010095e+00
9.99954801e-01
9.99811391e-01
9.99671227e-01
9.99534764e-01
9.99402402e-01
9.99274486e-01
9.99151305e-01
9.99033098e-01
9.98920055e-01
9.98812321e-01
9.98710007e-01
9.98613194e-01
9.98521937e-01
9.98436277e-01
9.98356243e-01
9.98281858e-01
9.98213143e-01
9.98150118e-01
9.98092804e-01
9.98041218e-01
9.97995373e-01
9.97955269e-01
9.97920890e-01
9.97892192e-01
9.97869096e-01
9.97851481e-01
9.97839174e-01
9.97831942e-01
9.97829492e-01
9.97831462e-01
9.97837429e-01
9.97846904e-01
9.97859347e-01
9.97874170e-01
9.97890755e-01
9.97908467e-01
9.97926669e-01
9.97944744e-01
9.97962106e-01
9.97978222e-01
9.97992625e-01
9.98004922e-01
9.98014807e-01
9.98022067e-01
9.98026580e-01
9.98028310e-01
9.98027309e-01
9.98023711e-01
9.98017712e-01
9.98009548e-01
9.97999515e-01
9.97987964e-01
9.97975202e-01
9.97961540e-01
9.97947386e-01
9.97933158e-01
9.97918944e-01
9.97905021e-01
9.97892099e-01
9.97880483e-01
9.97868276e-01
9.97856932e-01
9.97850183e-01
9.97844134e-01
1.00236564e+00
1.00236259e+00
1.00236113e+00
1.00235894e+00
1.00235870e+00
1.00235930e+00
1.00236081e+00
1.00236371e+00
1.00236787e+00
1.00237319e+00
1.00237984e+00
1.00238795e+00
1.00239751e+00
1.00240858e+00
1.00242123e+00
1.00243547e+00
1.00245130e+00
1.00246872e+00
1.00248770e+00
1.00250816e+00
1.00253001e+00
1.00255310e+00
1.00257727e+00
1.00260228e+00
1.00262786e+00
1.00265370e+00
1.00267941e+00
1.00270459e+00
1.00272875e+00
1.00275139e+00
1.00277195e+00
1.00278984e+00
1.00280445e+00
1.00281517e+00
1.00282135e+00
1.00282238e+00
1.00281766e+00
1.00280663e+00
1.00278876e+00
1.00276357e+00
1.00273068e+00
1.00268976e+00
1.00264055e+00
1.00258290e+00
1.00251674e+00
1.00244209e+00
1.00235906e+00
1.00226785e+00
1.00216875e+00
1.00206211e+00
1.00194838e+00
1.00182805e+00
1.00170169e+00
1.00156990e+00
1.00143334e+00
1.00129270e+00
1.00114867e+00
1.00100198e+00
1.00085337e+00
1.00070354e+00
1.00055323e+00
1.00040313e+00
1.00025391e+00
1.00010619e+00
9.99960593e-01
9.99817655e-01
9.99677883e-01
9.99541728e-01
9.99409589e-01
9.99281809e-01
9.99158682e-01
9.99040448e-01
9.98927305e-01
9.98819408e-01
9.98716877e-01
9.98619802e-01
9.98528252e-01
9.98442279e-01
9.98361922e-01
9.98287215e-01
9.98218187e-01
9.98154867e-01
9.98097281e-01
9.98045450e-01
9.97999389e-01
9.97959099e-01
9.97924561e-01
9.97895729e-01
9.97872520e-01
9.97854808e-01
9.97842416e-01
9.97835107e-01
9.97832584e-01
9.97834482e-01
9.97840377e-01
9.97849782e-01
9.97862158e-01
9.97876922e-01
9.97893461e-01
9.97911149e-01
9.97929357e-01
9.97947475e-01
9.97964929e-01
9.97981193e-01
9.97995807e-01
9.98008385e-01
9.98018626e-01
9.98026315e-01
9.98031330e-01
9.98033636e-01
9.98033279e-01
9.98030378e-01
9.98025121e-01
9.98017750e-01
9.98008539e-01
9.97997795e-01
9.97985861e-01
9.97973063e-01
9.97959705e-01
9.97946138e-01
9.97932745e-01
9.97919680e-01
9.97907040e-01
9.97895386e-01
9.97884979e-01
9.97874852e-01
9.97867181e-01
9.97860247e-01
1.00235109e+00
1.00234743e+00
1.00234438e+00
1.00234395e+00
1.00234418e+00
1.00234415e+00
1.00234596e+00
1.00234936e+00
1.00235361e+00
1.00235902e+00
1.00236598e+00
1.00237437e+00
1.00238416e+00
1.00239549e+00
1.00240842e+00
1.00242295e+00
1.00243906e+00
1.00245678e+00
1.00247604e+00
1.00249679e+00
1.00251892e+00
1.00254229e+00
1.00256672e+00
1.00259198e+00
1.00261780e+00
1.00264385e+00
1.00266977e+00
1.00269512e+00
1.00271944e+00
1.00274222e+00
1.00276290e+00
1.00278090e+00
1.00279561e+00
1.00280642e+00
1.00281269e+00
1.00281381e+00
1.00280919e+00
1.00279827e+00
1.00278052e+00
1.00275549e+00
1.00272277e+00
1.00268206e+00
1.00263310e+00
1.00257573e+00
1.00250990e+00
1.00243563e+00
1.00235303e+00
1.00226229e+00
1.00216372e+00
1.00205767e+00
1.00194457e+00
1.00182493e+00
1.00169931e+00
1.00156830e+00
1.00143256e+00
1.00129276e+00
1.00114960e+00
1.00100379e+00
1.00085605e+00
1.00070709e+00
1.00055762e+00
1.00040831e+00
1.00025982e+00
1.00011278e+00
9.99967767e-01
9.99825330e-01
9.99685962e-01
9.99550108e-01
9.99418165e-01
9.99290476e-01
9.99167336e-01
9.99048994e-01
9.98935654e-01
9.98827482e-01
9.98724611e-01
9.98627143e-01
9.98535162e-01
9.98448733e-01
9.98367910e-01
9.98292738e-01
9.98223259e-01
9.98159510e-01
9.98101524e-01
9.98049329e-01
9.98002941e-01
9.97962363e-01
9.97927576e-01
9.97898530e-01
9.97875140e-01
9.97857275e-01
9.97844754e-01
9.97837337e-01
9.97834721e-01
9.97836543e-01
9.97842375e-01
9.97851734e-01
9.97864083e-01
9.97878845e-01
9.97895416e-01
9.97913174e-01
9.97931503e-01
9.97949802e-01
9.97967505e-01
9.97984097e-01
9.97999123e-01
9.98012203e-01
9.98023040e-01
9.98031418e-01
9.98037211e-01
9.98040379e-01
9.98040963e-01
9.98039068e-01
9.98034864e-01
9.98028590e-01
9.98020510e-01
9.98010889e-01
9.98000055e-01
9.97988377e-01
9.97976123e-01
9.97963506e-01
9.97950976e-01
9.97938946e-01
9.97927221e-01
9.97915756e-01
9.97906036e-01
9.97897549e-01
9.97889236e-01
9.97882126e-01
1.00233146e+00
1.00232842e+00
1.00232624e+00
1.00232521e+00
1.00232483e+00
1.00232586e+00
1.00232817e+00
1.00233132e+00
1.00233578e+00
1.00234172e+00
1.00234897e+00
1.00235760e+00
1.00236777e+00
1.00237951e+00
1.00239281e+00
1.00240772e+00
1.00242425e+00
1.00244238e+00
1.00246206e+00
1.00248322e+00
1.00250576e+00
1.00252954e+00
1.00255435e+00
1.00257999e+00
1.00260616e+00
1.00263255e+00
1.00265877e+00
1.00268441e+00
1.00270898e+00
1.00273199e+00
1.00275288e+00
1.00277107e+00
1.00278595e+00
1.00279691e+00
1.00280333e+00
1.00280459e+00
1.00280011e+00
1.00278934e+00
1.00277176e+00
1.00274691e+00
1.00271441e+00
1.00267393e+00
1.00262525e+00
1.00256821e+00
1.00250275e+00
1.00242890e+00
1.00234677e+00
1.00225657e+00
1.00215859e+00
1.00205319e+00
1.00194080e+00
1.00182193e+00
1.00169713e+00
1.00156700e+00
1.00143218e+00
1.00129333e+00
1.00115114e+00
1.00100631e+00
1.00085955e+00
1.00071156e+00
1.00056301e+00
1.00041458e+00
1.00026691e+00
1.00012060e+00
9.99976227e-01
9.99834325e-01
9.99695378e-01
9.99559826e-01
9.99428061e-01
9.99300428e-01
9.99177226e-01
9.99058708e-01
9.98945091e-01
9.98836550e-01
9.98733232e-01
9.98635258e-01
9.98542725e-01
9.98455714e-01
9.98374296e-01
9.98298532e-01
9.98228474e-01
9.98164173e-01
9.98105670e-01
9.98052999e-01
9.98006181e-01
9.97965222e-01
9.97930100e-01
9.97900767e-01
9.97877133e-01
9.97859065e-01
9.97846376e-01
9.97838824e-01
9.97836104e-01
9.97837851e-01
9.97843639e-01
9.97852984e-01
9.97865355e-01
9.97880181e-01
9.97896864e-01
9.97914794e-01
9.97933363e-01
9.97951979e-01
9.97970087e-01
9.97987178e-01
9.98002807e-01
9.98016596e-01
9.98028247e-01
9.98037548e-01
9.98044368e-01
9.98048656e-01
9.98050439e-01
9.98049820e-01
9.98046954e-01
9.98042041e-01
9.98035339e-01
9.98027134e-01
9.98017693e-01
9.98007305e-01
9.97996330e-01
9.97985063e-01
9.97973643e-01
9.97962382e-01
9.97951760e-01
9.97941632e-01
9.97932098e-01
9.97923783e-01
9.97916261e-01
9.97909745e-01
1.00230913e+00
1.00230601e+00
1.00230423e+00
1.00230286e+00
1.00230272e+00
1.00230427e+00
1.00230657e+00
1.00230996e+00
1.00231492e+00
1.00232121e+00
1.00232876e+00
1.00233783e+00
1.00234848e+00
1.00236067e+00
1.00237445e+00
1.00238987e+00
1.00240692e+00
1.00242557e+00
1.00244578e+00
1.00246747e+00
1.00249053e+00
1.00251482e+00
1.00254014e+00
1.00256626e+00
1.00259289e+00
1.00261971e+00
1.00264634e+00
1.00267235e+00
1.00269728e+00
1.00272060e+00
1.00274178e+00
1.00276022e+00
1.00277534e+00
1.00278651e+00
1.00279313e+00
1.00279459e+00
1.00279030e+00
1.00277972e+00
1.00276234e+00
1.00273772e+00
1.00270547e+00
1.00266527e+00
1.00261691e+00
1.00256023e+00
1.00249519e+00
1.00242180e+00
1.00234020e+00
1.00225060e+00
1.00215328e+00
1.00204860e+00
1.00193701e+00
1.00181899e+00
1.00169510e+00
1.00156594e+00
1.00143213e+00
1.00129433e+00
1.00115322e+00
1.00100948e+00
1.00086380e+00
1.00071686e+00
1.00056933e+00
1.00042186e+00
1.00027508e+00
1.00012956e+00
9.99985880e-01
9.99844547e-01
9.99706041e-01
9.99570795e-01
9.99439197e-01
9.99311592e-01
9.99188283e-01
9.99069533e-01
9.98955566e-01
9.98846573e-01
9.98742717e-01
9.98644134e-01
9.98550940e-01
9.98463236e-01
9.98381109e-01
9.98304637e-01
9.98233888e-01
9.98168925e-01
9.98109800e-01
9.98056555e-01
9.98009218e-01
9.97967795e-01
9.97932268e-01
9.97902585e-01
9.97878657e-01
9.97860346e-01
9.97847463e-01
9.97839762e-01
9.97836936e-01
9.97838620e-01
9.97844386e-01
9.97853757e-01
9.97866204e-01
9.97881162e-01
9.97898043e-01
9.97916244e-01
9.97935167e-01
9.97954232e-01
9.97972892e-01
9.97990645e-01
9.98007052e-01
9.98021741e-01
9.98034413e-01
9.98044851e-01
9.98052921e-01
9.98058563e-01
9.98061789e-01
9.98062685e-01
9.98061397e-01
9.98058104e-01
9.98053027e-01
9.98046442e-01
9.98038625e-01
9.98029811e-01
9.98020289e-01
9.98010425e-01
9.98000415e-01
9.97990326e-01
9.97980600e-01
9.97971589e-01
9.97962899e-01
9.97954901e-01
9.97947928e-01
9.97941563e-01
1.00228394e+00
1.00228041e+00
1.00227824e+00
1.00227734e+00
1.00227769e+00
1.00227902e+00
1.00228156e+00
1.00228563e+00
1.00229091e+00
1.00229745e+00
1.00230555e+00
1.00231519e+00
1.00232632e+00
1.00233904e+00
1.00235343e+00
1.00236946e+00
1.00238712e+00
1.00240639e+00
1.00242724e+00
1.00244957e+00
1.00247326e+00
1.00249816e+00
1.00252408e+00
1.00255078e+00
1.00257797e+00
1.00260532e+00
1.00263245e+00
1.00265892e+00
1.00268427e+00
1.00270799e+00
1.00272952e+00
1.00274829e+00
1.00276370e+00
1.00277514e+00
1.00278201e+00
1.00278371e+00
1.00277966e+00
1.00276932e+00
1.00275219e+00
1.00272783e+00
1.00269586e+00
1.00265599e+00
1.00260799e+00
1.00255173e+00
1.00248714e+00
1.00241428e+00
1.00233327e+00
1.00224433e+00
1.00214773e+00
1.00204385e+00
1.00193313e+00
1.00181605e+00
1.00169317e+00
1.00156507e+00
1.00143237e+00
1.00129572e+00
1.00115578e+00
1.00101322e+00
1.00086871e+00
1.00072292e+00
1.00057650e+00
1.00043007e+00
1.00028423e+00
1.00013957e+00
9.99996625e-01
9.99855897e-01
9.99717852e-01
9.99582917e-01
9.99451477e-01
9.99323879e-01
9.99200429e-01
9.99081397e-01
9.98967020e-01
9.98857504e-01
9.98753028e-01
9.98653748e-01
9.98559799e-01
9.98471303e-01
9.98388367e-01
9.98311085e-01
9.98239546e-01
9.98173824e-01
9.98113984e-01
9.98060079e-01
9.98012142e-01
9.97970184e-01
9.97934189e-01
9.97904106e-01
9.97879841e-01
9.97861257e-01
9.97848160e-01
9.97840302e-01
9.97837376e-01
9.97839014e-01
9.97844791e-01
9.97854232e-01
9.97866813e-01
9.97881976e-01
9.97899141e-01
9.97917714e-01
9.97937107e-01
9.97956750e-01
9.97976104e-01
9.97994676e-01
9.98012031e-01
9.98027799e-01
9.98041684e-01
9.98053462e-01
9.98062989e-01
9.98070197e-01
9.98075090e-01
9.98077726e-01
9.98078228e-01
9.98076774e-01
9.98073563e-01
9.98068806e-01
9.98062774e-01
9.98055753e-01
9.98047947e-01
9.98039577e-01
9.98031000e-01
9.98022429e-01
9.98013860e-01
9.98005619e-01
9.97997928e-01
9.97990744e-01
9.97984027e-01
9.97977683e-01
1.00225495e+00
1.00225146e+00
1.00224925e+00
1.00224857e+00
1.00224905e+00
1.00225060e+00
1.00225364e+00
1.00225805e+00
1.00226367e+00
1.00227079e+00
1.00227947e+00
1.00228963e+00
1.00230137e+00
1.00231477e+00
1.00232983e+00
1.00234654e+00
1.00236491e+00
1.00238492e+00
1.00240650e+00
1.00242955e+00
1.00245397e+00
1.00247959e+00
1.00250620e+00
1.00253357e+00
1.00256140e+00
1.00258936e+00
1.00261706e+00
1.00264407e+00
1.00266991e+00
1.00269408e+00
1.00271603e+00
1.00273518e+00
1.00275094e+00
1.00276271e+00
1.00276988e+00
1.00277186e+00
1.00276808e+00
1.00275802e+00
1.00274118e+00
1.00271713e+00
1.00268550e+00
1.00264599e+00
1.00259841e+00
1.00254260e+00
1.00247854e+00
1.00240626e+00
1.00232590e+00
1.00223768e+00
1.00214188e+00
1.00203888e+00
1.00192911e+00
1.00181306e+00
1.00169127e+00
1.00156432e+00
1.00143282e+00
1.00129741e+00
1.00115874e+00
1.00101746e+00
1.00087422e+00
1.00072966e+00
1.00058442e+00
1.00043910e+00
1.00029428e+00
1.00015053e+00
1.00000836e+00
9.99868272e-01
9.99730711e-01
9.99596098e-01
9.99464816e-01
9.99337209e-01
9.99213590e-01
9.99094238e-01
9.98979401e-01
9.98869303e-01
9.98764139e-01
9.98664086e-01
9.98569302e-01
9.98479929e-01
9.98396095e-01
9.98317917e-01
9.98245499e-01
9.98178933e-01
9.98118300e-01
9.98063659e-01
9.98015054e-01
9.97972502e-01
9.97935987e-01
9.97905460e-01
9.97880828e-01
9.97861949e-01
9.97848628e-01
9.97840616e-01
9.97837603e-01
9.97839220e-01
9.97845046e-01
9.97854607e-01
9.97867384e-01
9.97882828e-01
9.97900364e-01
9.97919410e-01
9.97939385e-01
9.97959730e-01
9.97979914e-01
9.97999452e-01
9.98017913e-01
9.98034928e-01
9.98050199e-01
9.98063500e-01
9.98074676e-01
9.98083645e-01
9.98090395e-01
9.98094974e-01
9.98097475e-01
9.98098046e-01
9.98096877e-01
9.98094166e-01
9.98090121e-01
9.98085000e-01
9.98079057e-01
9.98072460e-01
9.98065435e-01
9.98058291e-01
9.98051102e-01
9.98043943e-01
9.98037129e-01
9.98030675e-01
9.98024399e-01
9.98018391e-01
1.00222252e+00
1.00221918e+00
1.00221722e+00
1.00221653e+00
1.00221714e+00
1.00221922e+00
1.00222264e+00
1.00222733e+00
1.00223354e+00
1.00224130e+00
1.00225051e+00
1.00226131e+00
1.00227379e+00
1.00228793e+00
1.00230372e+00
1.00232122e+00
1.00234041e+00
1.00236122e+00
1.00238361e+00
1.00240749e+00
1.00243271e+00
1.00245912e+00
1.00248651e+00
1.00251463e+00
1.00254317e+00
1.00257181e+00
1.00260014e+00
1.00262775e+00
1.00265415e+00
1.00267883e+00
1.00270124e+00
1.00272082e+00
1.00273697e+00
1.00274910e+00
1.00275661e+00
1.00275892e+00
1.00275546e+00
1.00274572e+00
1.00272921e+00
1.00270551e+00
1.00267426e+00
1.00263517e+00
1.00258805e+00
1.00253276e+00
1.00246928e+00
1.00239765e+00
1.00231801e+00
1.00223058e+00
1.00213566e+00
1.00203362e+00
1.00192488e+00
1.00180994e+00
1.00168933e+00
1.00156362e+00
1.00143342e+00
1.00129934e+00
1.00116203e+00
1.00102210e+00
1.00088021e+00
1.00073697e+00
1.00059298e+00
1.00044884e+00
1.00030511e+00
1.00016232e+00
1.00002098e+00
9.99881560e-01
9.99744508e-01
9.99610233e-01
9.99479111e-01
9.99351489e-01
9.99227685e-01
9.99107986e-01
9.98992654e-01
9.98881927e-01
9.98776023e-01
9.98675138e-01
9.98579454e-01
9.98489135e-01
9.98404333e-01
9.98325185e-01
9.98251817e-01
9.98184339e-01
9.98122844e-01
9.98067407e-01
9.98018078e-01
9.97974882e-01
9.97937807e-01
9.97906805e-01
9.97881782e-01
9.97862595e-01
9.97849050e-01
9.97840891e-01
9.97837811e-01
9.97839440e-01
9.97845357e-01
9.97855092e-01
9.97868131e-01
9.97883932e-01
9.97901927e-01
9.97921543e-01
9.97942210e-01
9.97963377e-01
9.97984520e-01
9.98005161e-01
9.98024873e-01
9.98043289e-01
9.98060106e-01
9.98075092e-01
9.98088086e-01
9.98098990e-01
9.98107771e-01
9.98114461e-01
9.98119138e-01
9.98121914e-01
9.98122942e-01
9.98122425e-01
9.98120548e-01
9.98117490e-01
9.98113491e-01
9.98108797e-01
9.98103531e-01
9.98097865e-01
9.98092059e-01
9.98086194e-01
9.98080309e-01
9.98074542e-01
9.98068885e-01
9.98063292e-01
1.00218711e+00
1.00218378e+00
1.00218193e+00
1.00218144e+00
1.00218238e+00
1.00218481e+00
1.00218858e+00
1.00219383e+00
1.00220065e+00
1.00220897e+00
1.00221886e+00
1.00223043e+00
1.00224367e+00
1.00225859e+00
1.00227524e+00
1.00229361e+00
1.00231367e+00
1.00233537e+00
1.00235865e+00
1.00238342e+00
1.00240952e+00
1.00243679e+00
1.00246502e+00
1.00249394e+00
1.00252326e+00
1.00255263e+00
1.00258166e+00
1.00260991e+00
1.00263690e+00
1.00266213e+00
1.00268506e+00
1.00270510e+00
1.00272169e+00
1.00273422e+00
1.00274211e+00
1.00274478e+00
1.00274168e+00
1.00273230e+00
1.00271616e+00
1.00269286e+00
1.00266204e+00
1.00262342e+00
1.00257682e+00
1.00252211e+00
1.00245927e+00
1.00238836e+00
1.00230951e+00
1.00222295e+00
1.00212898e+00
1.00202798e+00
1.00192036e+00
1.00180661e+00
1.00168727e+00
1.00156289e+00
1.00143407e+00
1.00130141e+00
1.00116554e+00
1.00102706e+00
1.00088659e+00
1.00074474e+00
1.00060208e+00
1.00045919e+00
1.00031659e+00
1.00017482e+00
1.00003435e+00
9.99895641e-01
9.99759128e-01
9.99625210e-01
9.99494261e-01
9.99366628e-01
9.99242632e-01
9.99122572e-01
9.99006722e-01
9.98895339e-01
9.98788658e-01
9.98686900e-01
9.98590268e-01
9.98498953e-01
9.98413129e-01
9.98332957e-01
9.98258584e-01
9.98190139e-01
9.98127732e-01
9.98071450e-01
9.98021356e-01
9.97977479e-01
9.97939815e-01
9.97908316e-01
9.97882890e-01
9.97863394e-01
9.97849629e-01
9.97841342e-01
9.97838220e-01
9.97839897e-01
9.97845953e-01
9.97855919e-01
9.97869288e-01
9.97885522e-01
9.97904063e-01
9.97924345e-01
9.97945807e-01
9.97967906e-01
9.97990127e-01
9.98011997e-01
9.98033091e-01
9.98053043e-01
9.98071547e-01
9.98088364e-01
9.98103319e-01
9.98116305e-01
9.98127270e-01
9.98136216e-01
9.98143204e-01
9.98148331e-01
9.98151714e-01
9.98153509e-01
9.98153901e-01
9.98153062e-01
9.98151155e-01
9.98148394e-01
9.98144965e-01
9.98140977e-01
9.98136599e-01
9.98131987e-01
9.98127161e-01
9.98122208e-01
9.98117135e-01
9.98111910e-01
1.00214875e+00
1.00214545e+00
1.00214366e+00
1.00214347e+00
1.00214476e+00
1.00214750e+00
1.00215178e+00
1.00215765e+00
1.00216504e+00
1.00217401e+00
1.00218469e+00
1.00219706e+00
1.00221111e+00
1.00222692e+00
1.00224448e+00
1.00226378e+00
1.00228478e+00
1.00230744e+00
1.00233169e+00
1.00235740e+00
1.00238444e+00
1.00241263e+00
1.00244175e+00
1.00247153e+00
1.00250166e+00
1.00253181e+00
1.00256156e+00
1.00259049e+00
1.00261812e+00
1.00264393e+00
1.00266739e+00
1.00268794e+00
1.00270498e+00
1.00271794e+00
1.00272625e+00
1.00272932e+00
1.00272661e+00
1.00271763e+00
1.00270191e+00
1.00267905e+00
1.00264871e+00
1.00261062e+00
1.00256460e+00
1.00251053e+00
1.00244840e+00
1.00237828e+00
1.00230030e+00
1.00221469e+00
1.00212176e+00
1.00202187e+00
1.00191546e+00
1.00180299e+00
1.00168500e+00
1.00156204e+00
1.00143468e+00
1.00130353e+00
1.00116917e+00
1.00103222e+00
1.00089325e+00
1.00075286e+00
1.00061160e+00
1.00047001e+00
1.00032861e+00
1.00018790e+00
1.00004834e+00
9.99910387e-01
9.99774445e-01
9.99640912e-01
9.99510156e-01
9.99382526e-01
9.99258347e-01
9.99137926e-01
9.99021553e-01
9.98909501e-01
9.98802026e-01
9.98699372e-01
9.98601765e-01
9.98509422e-01
9.98422542e-01
9.98341310e-01
9.98265896e-01
9.98196448e-01
9.98133093e-01
9.98075936e-01
9.98025048e-01
9.97980468e-01
9.97942197e-01
9.97910191e-01
9.97884359e-01
9.97864558e-01
9.97850588e-01
9.97842193e-01
9.97839063e-01
9.97840829e-01
9.97847073e-01
9.97857329e-01
9.97871094e-01
9.97887837e-01
9.97907006e-01
9.97928044e-01
9.97950398e-01
9.97973532e-01
9.97996938e-01
9.98020149e-01
9.98042742e-01
9.98064348e-01
9.98084660e-01
9.98103430e-01
9.98120471e-01
9.98135658e-01
9.98148926e-01
9.98160256e-01
9.98169673e-01
9.98177253e-01
9.98183102e-01
9.98187330e-01
9.98190081e-01
9.98191533e-01
9.98191829e-01
9.98191102e-01
9.98189541e-01
9.98187303e-01
9.98184452e-01
9.98181110e-01
9.98177389e-01
9.98173319e-01
9.98168838e-01
9.98164011e-01
1.00210747e+00
1.00210432e+00
1.00210271e+00
1.00210275e+00
1.00210438e+00
1.00210758e+00
1.00211241e+00
1.00211884e+00
1.00212689e+00
1.00213665e+00
1.00214813e+00
1.00216131e+00
1.00217628e+00
1.00219303e+00
1.00221155e+00
1.00223183e+00
1.00225384e+00
1.00227752e+00
1.00230277e+00
1.00232948e+00
1.00235750e+00
1.00238665e+00
1.00241670e+00
1.00244737e+00
1.00247835e+00
1.00250930e+00
1.00253981e+00
1.00256944e+00
1.00259772e+00
1.00262414e+00
1.00264816e+00
1.00266922e+00
1.00268675e+00
1.00270018e+00
1.00270892e+00
1.00271241e+00
1.00271014e+00
1.00270160e+00
1.00268634e+00
1.00266398e+00
1.00263417e+00
1.00259666e+00
1.00255128e+00
1.00249792e+00
1.00243658e+00
1.00236731e+00
1.00229028e+00
1.00220570e+00
1.00211389e+00
1.00201521e+00
1.00191008e+00
1.00179898e+00
1.00168243e+00
1.00156096e+00
1.00143515e+00
1.00130558e+00
1.00117282e+00
1.00103746e+00
1.00090006e+00
1.00076119e+00
1.00062139e+00
1.00048116e+00
1.00034102e+00
1.00020142e+00
1.00006283e+00
9.99925665e-01
9.99790334e-01
9.99657219e-01
9.99526687e-01
9.99399085e-01
9.99274743e-01
9.99153979e-01
9.99037095e-01
9.98924381e-01
9.98816114e-01
9.98712561e-01
9.98613973e-01
9.98520592e-01
9.98432642e-01
9.98350335e-01
9.98273862e-01
9.98203392e-01
9.98139074e-01
9.98081024e-01
9.98029328e-01
9.97984035e-01
9.97945152e-01
9.97912640e-01
9.97886408e-01
9.97866314e-01
9.97852159e-01
9.97843686e-01
9.97840582e-01
9.97842481e-01
9.97848963e-01
9.97859567e-01
9.97873795e-01
9.97891118e-01
9.97910993e-01
9.97932870e-01
9.97956204e-01
9.97980465e-01
9.98005152e-01
9.98029801e-01
9.98053991e-01
9.98077353e-01
9.98099573e-01
9.98120395e-01
9.98139622e-01
9.98157110e-01
9.98172773e-01
9.98186574e-01
9.98198516e-01
9.98208638e-01
9.98217018e-01
9.98223759e-01
9.98228963e-01
9.98232758e-01
9.98235292e-01
9.98236689e-01
9.98237067e-01
9.98236571e-01
9.98235296e-01
9.98233315e-01
9.98230706e-01
9.98227501e-01
9.98223672e-01
9.98219310e-01
1.00206356e+00
1.00206056e+00
1.00205917e+00
1.00205948e+00
1.00206148e+00
1.00206520e+00
1.00207058e+00
1.00207764e+00
1.00208643e+00
1.00209699e+00
1.00210928e+00
1.00212338e+00
1.00213930e+00
1.00215703e+00
1.00217656e+00
1.00219788e+00
1.00222094e+00
1.00224566e+00
1.00227196e+00
1.00229971e+00
1.00232875e+00
1.00235888e+00
1.00238987e+00
1.00242146e+00
1.00245331e+00
1.00248507e+00
1.00251635e+00
1.00254670e+00
1.00257565e+00
1.00260268e+00
1.00262728e+00
1.00264887e+00
1.00266690e+00
1.00268080e+00
1.00269001e+00
1.00269396e+00
1.00269215e+00
1.00268409e+00
1.00266933e+00
1.00264751e+00
1.00261828e+00
1.00258142e+00
1.00253675e+00
1.00248417e+00
1.00242368e+00
1.00235535e+00
1.00227934e+00
1.00219588e+00
1.00210527e+00
1.00200788e+00
1.00190412e+00
1.00179447e+00
1.00167944e+00
1.00155955e+00
1.00143537e+00
1.00130745e+00
1.00117636e+00
1.00104266e+00
1.00090690e+00
1.00076961e+00
1.00063132e+00
1.00049252e+00
1.00035367e+00
1.00021525e+00
1.00007766e+00
9.99941340e-01
9.99806664e-01
9.99674011e-01
9.99543744e-01
9.99416208e-01
9.99291741e-01
9.99170666e-01
9.99053301e-01
9.98939951e-01
9.98830916e-01
9.98726482e-01
9.98626929e-01
9.98532521e-01
9.98443510e-01
9.98360132e-01
9.98282603e-01
9.98211113e-01
9.98145830e-01
9.98086888e-01
9.98034386e-01
9.97988384e-01
9.97948895e-01
9.97915885e-01
9.97889268e-01
9.97868901e-01
9.97854586e-01
9.97846066e-01
9.97843026e-01
9.97845101e-01
9.97851872e-01
9.97862881e-01
9.97877631e-01
9.97895602e-01
9.97916254e-01
9.97939045e-01
9.97963435e-01
9.97988904e-01
9.98014953e-01
9.98041123e-01
9.98066992e-01
9.98092191e-01
9.98116400e-01
9.98139352e-01
9.98160838e-01
9.98180700e-01
9.98198829e-01
9.98215163e-01
9.98229687e-01
9.98242414e-01
9.98253383e-01
9.98262673e-01
9.98270373e-01
9.98276569e-01
9.98281371e-01
9.98284908e-01
9.98287271e-01
9.98288551e-01
9.98288860e-01
9.98288264e-01
9.98286789e-01
9.98284471e-01
9.98281321e-01
9.98277427e-01
1.00201726e+00
1.00201440e+00
1.00201322e+00
1.00201386e+00
1.00201629e+00
1.00202051e+00
1.00202648e+00
1.00203424e+00
1.00204380e+00
1.00205515e+00
1.00206834e+00
1.00208340e+00
1.00210030e+00
1.00211904e+00
1.00213963e+00
1.00216202e+00
1.00218615e+00
1.00221195e+00
1.00223932e+00
1.00226813e+00
1.00229819e+00
1.00232933e+00
1.00236129e+00
1.00239379e+00
1.00242651e+00
1.00245910e+00
1.00249114e+00
1.00252221e+00
1.00255183e+00
1.00257948e+00
1.00260465e+00
1.00262679e+00
1.00264533e+00
1.00265973e+00
1.00266941e+00
1.00267385e+00
1.00267253e+00
1.00266498e+00
1.00265077e+00
1.00262953e+00
1.00260095e+00
1.00256479e+00
1.00252089e+00
1.00246916e+00
1.00240960e+00
1.00234229e+00
1.00226739e+00
1.00218512e+00
1.00209580e+00
1.00199978e+00
1.00189748e+00
1.00178936e+00
1.00167592e+00
1.00155769e+00
1.00143520e+00
1.00130901e+00
1.00117965e+00
1.00104768e+00
1.00091361e+00
1.00077797e+00
1.00064125e+00
1.00050392e+00
1.00036644e+00
1.00022923e+00
1.00009271e+00
9.99957276e-01
9.99823307e-01
9.99691170e-01
9.99561219e-01
9.99433803e-01
9.99309261e-01
9.99187927e-01
9.99070130e-01
9.98956192e-01
9.98846432e-01
9.98741160e-01
9.98640679e-01
9.98545279e-01
9.98455237e-01
9.98370815e-01
9.98292252e-01
9.98219763e-01
9.98153533e-01
9.98093716e-01
9.98040423e-01
9.97993726e-01
9.97953648e-01
9.97920160e-01
9.97893179e-01
9.97872565e-01
9.97858119e-01
9.97849584e-01
9.97846647e-01
9.97848940e-01
9.97856048e-01
9.97867513e-01
9.97882843e-01
9.97901520e-01
9.97923011e-01
9.97946780e-01
9.97972294e-01
9.97999036e-01
9.98026514e-01
9.98054269e-01
9.98081883e-01
9.98108979e-01
9.98135235e-01
9.98160374e-01
9.98184170e-01
9.98206451e-01
9.98227091e-01
9.98246001e-01
9.98263137e-01
9.98278494e-01
9.98292086e-01
9.98303950e-01
9.98314151e-01
9.98322766e-01
9.98329865e-01
9.98335538e-01
9.98339882e-01
9.98342971e-01
9.98344870e-01
9.98345642e-01
9.98345319e-01
9.98343916e-01
9.98341432e-01
9.98338000e-01
1.00196873e+00
1.00196604e+00
1.00196510e+00
1.00196609e+00
1.00196897e+00
1.00197372e+00
1.00198033e+00
1.00198881e+00
1.00199914e+00
1.00201135e+00
1.00202548e+00
1.00204149e+00
1.00205940e+00
1.00207920e+00
1.00210086e+00
1.00212434e+00
1.00214956e+00
1.00217646e+00
1.00220491e+00
1.00223477e+00
1.00226588e+00
1.00229801e+00
1.00233093e+00
1.00236435e+00
1.00239794e+00
1.00243134e+00
1.00246414e+00
1.00249592e+00
1.00252620e+00
1.00255447e+00
1.00258021e+00
1.00260289e+00
1.00262195e+00
1.00263685e+00
1.00264702e+00
1.00265196e+00
1.00265117e+00
1.00264416e+00
1.00263054e+00
1.00260994e+00
1.00258205e+00
1.00254666e+00
1.00250359e+00
1.00245278e+00
1.00239423e+00
1.00232801e+00
1.00225430e+00
1.00217331e+00
1.00208536e+00
1.00199079e+00
1.00189003e+00
1.00178352e+00
1.00167176e+00
1.00155525e+00
1.00143453e+00
1.00131013e+00
1.00118257e+00
1.00105238e+00
1.00092007e+00
1.00078613e+00
1.00065103e+00
1.00051523e+00
1.00037916e+00
1.00024322e+00
1.00010782e+00