# vtk DataFile Version 2.0
LBM Flow Field - Timestep 1240
ASCII
DATASET STRUCTURED_POINTS
DIMENSIONS 128 128 1
ORIGIN 0.0 0.0 0.0
SPACING 1.0 1.0 1.0
POINT_DATA 16384
SCALARS density double 1
LOOKUP_TABLE default
9.98322185e-01
9.98319257e-01
9.98316243e-01
9.98321440e-01
9.98328240e-01
9.98334832e-01
9.98343850e-01
9.98355345e-01
9.98368209e-01
9.98382789e-01
9.98399691e-01
9.98418791e-01
9.98440001e-01
9.98463551e-01
9.98489566e-01
9.98518038e-01
9.98549007e-01
9.98582537e-01
9.98618632e-01
9.98657267e-01
9.98698412e-01
9.98742016e-01
9.98788001e-01
9.98836271e-01
9.98886719e-01
9.98939222e-01
9.98993647e-01
9.99049857e-01
9.99107706e-01
9.99167049e-01
9.99227735e-01
9.99289614e-01
9.99352524e-01
9.99416297e-01
9.99480746e-01
9.99545663e-01
9.99610808e-01
9.99675903e-01
9.99740625e-01
9.99804598e-01
9.99867391e-01
9.99928519e-01
9.99987441e-01
1.00004357e+00
1.00009630e+00
1.00014498e+00
1.00018898e+00
1.00022769e+00
1.00026054e+00
1.00028707e+00
1.00030688e+00
1.00031972e+00
1.00032549e+00
1.00032422e+00
1.00031613e+00
1.00030162e+00
1.00028123e+00
1.00025568e+00
1.00022580e+00
1.00019255e+00
1.00015698e+00
1.00012018e+00
1.00008329e+00
1.00004744e+00
1.00001372e+00
9.99983187e-01
9.99956794e-01
9.99935412e-01
9.99919793e-01
9.99910562e-01
9.99908212e-01
9.99913096e-01
9.99925428e-01
9.99945283e-01
9.99972602e-01
1.00000720e+00
1.00004878e+00
1.00009692e+00
1.00015114e+00
1.00021084e+00
1.00027537e+00
1.00034403e+00
1.00041609e+00
1.00049078e+00
1.00056733e+00
1.00064497e+00
1.00072297e+00
1.00080059e+00
1.00087716e+00
1.00095206e+00
1.00102471e+00
1.00109462e+00
1.00116134e+00
1.00122452e+00
1.00128387e+00
1.00133919e+00
1.00139036e+00
1.00143730e+00
1.00148004e+00
1.00151864e+00
1.00155323e+00
1.00158400e+00
1.00161116e+00
1.00163496e+00
1.00165567e+00
1.00167357e+00
1.00168896e+00
1.00170210e+00
1.00171329e+00
1.00172279e+00
1.00173083e+00
1.00173763e+00
1.00174337e+00
1.00174825e+00
1.00175240e+00
1.00175588e+00
1.00175882e+00
1.00176139e+00
1.00176352e+00
1.00176505e+00
1.00176642e+00
1.00176788e+00
1.00176838e+00
1.00176782e+00
1.00176867e+00
1.00176958e+00
1.00176299e+00
1.00175732e+00
9.98320553e-01
9.98322586e-01
9.98323028e-01
9.98327164e-01
9.98333590e-01
9.98341004e-01
9.98350180e-01
9.98361403e-01
9.98374447e-01
9.98389311e-01
9.98406245e-01
9.98425362e-01
9.98446692e-01
9.98470329e-01
9.98496366e-01
9.98524867e-01
9.98555869e-01
9.98589406e-01
9.98625487e-01
9.98664103e-01
9.98705219e-01
9.98748782e-01
9.98794717e-01
9.98842934e-01
9.98893324e-01
9.98945768e-01
9.99000133e-01
9.99056283e-01
9.99114073e-01
9.99173356e-01
9.99233982e-01
9.99295795e-01
9.99358632e-01
9.99422320e-01
9.99486668e-01
9.99551463e-01
9.99616461e-01
9.99681381e-01
9.99745897e-01
9.99809633e-01
9.99872159e-01
9.99932993e-01
9.99991601e-01
1.00004741e+00
1.00009980e+00
1.00014815e+00
1.00019184e+00
1.00023027e+00
1.00026288e+00
1.00028922e+00
1.00030889e+00
1.00032165e+00
1.00032738e+00
1.00032615e+00
1.00031814e+00
1.00030376e+00
1.00028353e+00
1.00025816e+00
1.00022847e+00
1.00019541e+00
1.00016001e+00
1.00012337e+00
1.00008659e+00
1.00005081e+00
1.00001712e+00
9.99986545e-01
9.99960059e-01
9.99938520e-01
9.99922679e-01
9.99913160e-01
9.99910456e-01
9.99914919e-01
9.99926765e-01
9.99946071e-01
9.99972782e-01
1.00000672e+00
1.00004758e+00
1.00009498e+00
1.00014841e+00
1.00020730e+00
1.00027101e+00
1.00033885e+00
1.00041009e+00
1.00048399e+00
1.00055978e+00
1.00063672e+00
1.00071405e+00
1.00079108e+00
1.00086713e+00
1.00094158e+00
1.00101387e+00
1.00108350e+00
1.00115004e+00
1.00121312e+00
1.00127246e+00
1.00132786e+00
1.00137917e+00
1.00142633e+00
1.00146936e+00
1.00150830e+00
1.00154329e+00
1.00157449e+00
1.00160211e+00
1.00162638e+00
1.00164758e+00
1.00166597e+00
1.00168183e+00
1.00169544e+00
1.00170708e+00
1.00171700e+00
1.00172543e+00
1.00173259e+00
1.00173867e+00
1.00174385e+00
1.00174825e+00
1.00175199e+00
1.00175519e+00
1.00175792e+00
1.00176017e+00
1.00176203e+00
1.00176362e+00
1.00176488e+00
1.00176556e+00
1.00176589e+00
1.00176641e+00
1.00176619e+00
1.00176302e+00
1.00176269e+00
9.98322159e-01
9.98327680e-01
9.98334875e-01
9.98337682e-01
9.98342369e-01
9.98350949e-01
9.98360815e-01
9.98371620e-01
9.98384666e-01
9.98399916e-01
9.98416959e-01
9.98436064e-01
9.98457517e-01
9.98481280e-01
9.98507368e-01
9.98535913e-01
9.98566971e-01
9.98600539e-01
9.98636628e-01
9.98675242e-01
9.98716341e-01
9.98759870e-01
9.98805758e-01
9.98853914e-01
9.98904232e-01
9.98956592e-01
9.99010863e-01
9.99066910e-01
9.99124588e-01
9.99183751e-01
9.99244246e-01
9.99305917e-01
9.99368601e-01
9.99432121e-01
9.99496285e-01
9.99560879e-01
9.99625657e-01
9.99690336e-01
9.99754591e-01
9.99818047e-01
9.99880279e-01
9.99940805e-01
9.99999099e-01
1.00005459e+00
1.00010667e+00
1.00015473e+00
1.00019815e+00
1.00023633e+00
1.00026873e+00
1.00029488e+00
1.00031441e+00
1.00032706e+00
1.00033273e+00
1.00033144e+00
1.00032342e+00
1.00030901e+00
1.00028877e+00
1.00026338e+00
1.00023364e+00
1.00020051e+00
1.00016500e+00
1.00012820e+00
1.00009122e+00
1.00005519e+00
1.00002117e+00
9.99990225e-01
9.99963300e-01
9.99941258e-01
9.99924851e-01
9.99914702e-01
9.99911305e-01
9.99915013e-01
9.99926043e-01
9.99944476e-01
9.99970261e-01
1.00000322e+00
1.00004307e+00
1.00008942e+00
1.00014178e+00
1.00019959e+00
1.00026222e+00
1.00032900e+00
1.00039921e+00
1.00047212e+00
1.00054697e+00
1.00062304e+00
1.00069958e+00
1.00077591e+00
1.00085136e+00
1.00092532e+00
1.00099723e+00
1.00106659e+00
1.00113297e+00
1.00119601e+00
1.00125541e+00
1.00131098e+00
1.00136255e+00
1.00141007e+00
1.00145352e+00
1.00149296e+00
1.00152850e+00
1.00156029e+00
1.00158854e+00
1.00161346e+00
1.00163531e+00
1.00165435e+00
1.00167085e+00
1.00168508e+00
1.00169731e+00
1.00170779e+00
1.00171675e+00
1.00172440e+00
1.00173094e+00
1.00173652e+00
1.00174127e+00
1.00174539e+00
1.00174891e+00
1.00175181e+00
1.00175432e+00
1.00175661e+00
1.00175831e+00
1.00175932e+00
1.00176069e+00
1.00176215e+00
1.00176114e+00
1.00175951e+00
1.00176347e+00
1.00176657e+00
9.98336988e-01
9.98341252e-01
9.98346238e-01
9.98350871e-01
9.98357256e-01
9.98365152e-01
9.98374684e-01
9.98386125e-01
9.98399450e-01
9.98414614e-01
9.98431821e-01
9.98451193e-01
9.98472768e-01
9.98496625e-01
9.98522866e-01
9.98551541e-01
9.98582683e-01
9.98616324e-01
9.98652476e-01
9.98691120e-01
9.98732221e-01
9.98775729e-01
9.98821569e-01
9.98869649e-01
9.98919864e-01
9.98972096e-01
9.99026217e-01
9.99082089e-01
9.99139572e-01
9.99198520e-01
9.99258781e-01
9.99320200e-01
9.99382614e-01
9.99445845e-01
9.99509703e-01
9.99573972e-01
9.99638405e-01
9.99702722e-01
9.99766596e-01
9.99829655e-01
9.99891475e-01
9.99951580e-01
1.00000945e+00
1.00006451e+00
1.00011617e+00
1.00016383e+00
1.00020686e+00
1.00024468e+00
1.00027676e+00
1.00030263e+00
1.00032191e+00
1.00033436e+00
1.00033986e+00
1.00033845e+00
1.00033032e+00
1.00031583e+00
1.00029552e+00
1.00027004e+00
1.00024022e+00
1.00020696e+00
1.00017130e+00
1.00013429e+00
1.00009704e+00
1.00006067e+00
1.00002625e+00
9.99994806e-01
9.99967302e-01
9.99944595e-01
9.99927430e-01
9.99916432e-01
9.99912094e-01
9.99914772e-01
9.99924688e-01
9.99941927e-01
9.99966446e-01
9.99998080e-01
1.00003655e+00
1.00008148e+00
1.00013240e+00
1.00018876e+00
1.00024995e+00
1.00031532e+00
1.00038416e+00
1.00045577e+00
1.00052940e+00
1.00060433e+00
1.00067986e+00
1.00075530e+00
1.00082999e+00
1.00090332e+00
1.00097476e+00
1.00104379e+00
1.00110999e+00
1.00117299e+00
1.00123250e+00
1.00128830e+00
1.00134023e+00
1.00138822e+00
1.00143223e+00
1.00147232e+00
1.00150857e+00
1.00154113e+00
1.00157018e+00
1.00159593e+00
1.00161861e+00
1.00163848e+00
1.00165579e+00
1.00167082e+00
1.00168380e+00
1.00169499e+00
1.00170462e+00
1.00171288e+00
1.00171998e+00
1.00172609e+00
1.00173133e+00
1.00173583e+00
1.00173971e+00
1.00174304e+00
1.00174585e+00
1.00174822e+00
1.00175027e+00
1.00175192e+00
1.00175306e+00
1.00175398e+00
1.00175474e+00
1.00175480e+00
1.00175633e+00
1.00175829e+00
9.98356596e-01
9.98359582e-01
9.98362692e-01
9.98368990e-01
9.98376085e-01
9.98383374e-01
9.98393061e-01
9.98405071e-01
9.98418509e-01
9.98433705e-01
9.98451180e-01
9.98470808e-01
9.98492533e-01
9.98516560e-01
9.98542996e-01
9.98571827e-01
9.98603092e-01
9.98636842e-01
9.98673074e-01
9.98711761e-01
9.98752870e-01
9.98796349e-01
9.98842121e-01
9.98890094e-01
9.98940165e-01
9.98992215e-01
9.99046118e-01
9.99101739e-01
9.99158940e-01
9.99217577e-01
9.99277499e-01
9.99338555e-01
9.99400580e-01
9.99463400e-01
9.99526824e-01
9.99590635e-01
9.99654589e-01
9.99718404e-01
9.99781757e-01
9.99844276e-01
9.99905541e-01
9.99965080e-01
1.00002238e+00
1.00007687e+00
1.00012797e+00
1.00017508e+00
1.00021760e+00
1.00025494e+00
1.00028658e+00
1.00031206e+00
1.00033101e+00
1.00034318e+00
1.00034844e+00
1.00034684e+00
1.00033857e+00
1.00032396e+00
1.00030354e+00
1.00027797e+00
1.00024804e+00
1.00021465e+00
1.00017881e+00
1.00014156e+00
1.00010402e+00
1.00006726e+00
1.00003236e+00
1.00000035e+00
9.99972161e-01
9.99948657e-01
9.99930579e-01
9.99918549e-01
9.99913060e-01
9.99914472e-01
9.99923010e-01
9.99938767e-01
9.99961709e-01
9.99991684e-01
1.00002843e+00
1.00007158e+00
1.00012069e+00
1.00017523e+00
1.00023462e+00
1.00029821e+00
1.00036533e+00
1.00043530e+00
1.00050739e+00
1.00058091e+00
1.00065516e+00
1.00072946e+00
1.00080319e+00
1.00087575e+00
1.00094658e+00
1.00101519e+00
1.00108115e+00
1.00114410e+00
1.00120373e+00
1.00125981e+00
1.00131217e+00
1.00136072e+00
1.00140542e+00
1.00144630e+00
1.00148342e+00
1.00151691e+00
1.00154694e+00
1.00157369e+00
1.00159738e+00
1.00161826e+00
1.00163657e+00
1.00165255e+00
1.00166645e+00
1.00167850e+00
1.00168894e+00
1.00169795e+00
1.00170573e+00
1.00171246e+00
1.00171828e+00
1.00172327e+00
1.00172756e+00
1.00173133e+00
1.00173455e+00
1.00173710e+00
1.00173935e+00
1.00174159e+00
1.00174299e+00
1.00174335e+00
1.00174472e+00
1.00174654e+00
1.00174642e+00
1.00174708e+00
9.98378693e-01
9.98382090e-01
9.98386247e-01
9.98391535e-01
9.98397921e-01
9.98406345e-01
9.98416531e-01
9.98428161e-01
9.98441735e-01
9.98457443e-01
9.98475112e-01
9.98494827e-01
9.98516811e-01
9.98541105e-01
9.98567709e-01
9.98596699e-01
9.98628133e-01
9.98662009e-01
9.98698317e-01
9.98737046e-01
9.98778158e-01
9.98821589e-01
9.98867264e-01
9.98915093e-01
9.98964970e-01
9.99016779e-01
9.99070395e-01
9.99125687e-01
9.99182519e-01
9.99240748e-01
9.99300230e-01
9.99360813e-01
9.99422337e-01
9.99484628e-01
9.99547496e-01
9.99610727e-01
9.99674077e-01
9.99737265e-01
9.99799970e-01
9.99861824e-01
9.99922408e-01
9.99981258e-01
1.00003786e+00
1.00009167e+00
1.00014209e+00
1.00018855e+00
1.00023044e+00
1.00026720e+00
1.00029831e+00
1.00032331e+00
1.00034183e+00
1.00035364e+00
1.00035860e+00
1.00035675e+00
1.00034827e+00
1.00033349e+00
1.00031293e+00
1.00028721e+00
1.00025713e+00
1.00022356e+00
1.00018749e+00
1.00014997e+00
1.00011206e+00
1.00007485e+00
1.00003939e+00
1.00000670e+00
9.99977717e-01
9.99953280e-01
9.99934129e-01
9.99920887e-01
9.99914044e-01
9.99913964e-01
9.99920876e-01
9.99934883e-01
9.99955962e-01
9.99983976e-01
1.00001868e+00
1.00005973e+00
1.00010669e+00
1.00015908e+00
1.00021632e+00
1.00027781e+00
1.00034289e+00
1.00041091e+00
1.00048117e+00
1.00055301e+00
1.00062573e+00
1.00069869e+00
1.00077127e+00
1.00084288e+00
1.00091298e+00
1.00098108e+00
1.00104674e+00
1.00110960e+00
1.00116935e+00
1.00122573e+00
1.00127858e+00
1.00132777e+00
1.00137326e+00
1.00141503e+00
1.00145315e+00
1.00148772e+00
1.00151887e+00
1.00154679e+00
1.00157166e+00
1.00159371e+00
1.00161316e+00
1.00163025e+00
1.00164521e+00
1.00165827e+00
1.00166963e+00
1.00167952e+00
1.00168810e+00
1.00169553e+00
1.00170198e+00
1.00170759e+00
1.00171241e+00
1.00171653e+00
1.00172012e+00
1.00172326e+00
1.00172575e+00
1.00172775e+00
1.00172968e+00
1.00173115e+00
1.00173186e+00
1.00173276e+00
1.00173366e+00
1.00173479e+00
9.98405893e-01
9.98409229e-01
9.98413779e-01
9.98418503e-01
9.98424999e-01
9.98433856e-01
9.98443982e-01
9.98455716e-01
9.98469664e-01
9.98485593e-01
9.98503394e-01
9.98523368e-01
9.98545632e-01
9.98570129e-01
9.98596925e-01
9.98626117e-01
9.98657713e-01
9.98691702e-01
9.98728089e-01
9.98766854e-01
9.98807946e-01
9.98851300e-01
9.98896844e-01
9.98944483e-01
9.98994114e-01
9.99045621e-01
9.99098882e-01
9.99153769e-01
9.99210150e-01
9.99267886e-01
9.99326836e-01
9.99386851e-01
9.99447774e-01
9.99509435e-01
9.99571645e-01
9.99634191e-01
9.99696831e-01
9.99759286e-01
9.99821236e-01
9.99882316e-01
9.99942112e-01
1.00000016e+00
1.00005596e+00
1.00010897e+00
1.00015861e+00
1.00020431e+00
1.00024547e+00
1.00028154e+00
1.00031201e+00
1.00033643e+00
1.00035444e+00
1.00036579e+00
1.00037037e+00
1.00036819e+00
1.00035943e+00
1.00034442e+00
1.00032364e+00
1.00029773e+00
1.00026743e+00
1.00023363e+00
1.00019728e+00
1.00015941e+00
1.00012107e+00
1.00008332e+00
1.00004722e+00
1.00001375e+00
9.99983843e-01
9.99958335e-01
9.99937958e-01
9.99923329e-01
9.99914940e-01
9.99913155e-01
9.99918211e-01
9.99930219e-01
9.99949170e-01
9.99974942e-01
1.00000731e+00
1.00004595e+00
1.00009047e+00
1.00014039e+00
1.00019518e+00
1.00025426e+00
1.00031701e+00
1.00038279e+00
1.00045096e+00
1.00052085e+00
1.00059182e+00
1.00066323e+00
1.00073447e+00
1.00080498e+00
1.00087423e+00
1.00094171e+00
1.00100701e+00
1.00106975e+00
1.00112959e+00
1.00118630e+00
1.00123967e+00
1.00128957e+00
1.00133591e+00
1.00137869e+00
1.00141792e+00
1.00145369e+00
1.00148610e+00
1.00151531e+00
1.00154150e+00
1.00156486e+00
1.00158559e+00
1.00160393e+00
1.00162008e+00
1.00163426e+00
1.00164668e+00
1.00165753e+00
1.00166700e+00
1.00167525e+00
1.00168240e+00
1.00168863e+00
1.00169406e+00
1.00169869e+00
1.00170262e+00
1.00170612e+00
1.00170909e+00
1.00171129e+00
1.00171319e+00
1.00171512e+00
1.00171604e+00
1.00171644e+00
1.00171775e+00
1.00171890e+00
9.98438399e-01
9.98441197e-01
9.98444991e-01
9.98450200e-01
9.98457126e-01
9.98465479e-01
9.98475671e-01
9.98487991e-01
9.98502078e-01
9.98518006e-01
9.98536123e-01
9.98556436e-01
9.98578874e-01
9.98603562e-01
9.98630609e-01
9.98659997e-01
9.98691726e-01
9.98725827e-01
9.98762288e-01
9.98801062e-01
9.98842103e-01
9.98885350e-01
9.98930722e-01
9.98978124e-01
9.99027453e-01
9.99078598e-01
9.99131439e-01
9.99185850e-01
9.99241703e-01
9.99298867e-01
9.99357202e-01
9.99416564e-01
9.99476801e-01
9.99537743e-01
9.99599205e-01
9.99660975e-01
9.99722813e-01
9.99784442e-01
9.99845543e-01
9.99905752e-01
9.99964661e-01
1.00002181e+00
1.00007671e+00
1.00012881e+00
1.00017756e+00
1.00022238e+00
1.00026270e+00
1.00029797e+00
1.00032769e+00
1.00035142e+00
1.00036881e+00
1.00037961e+00
1.00038370e+00
1.00038110e+00
1.00037198e+00
1.00035665e+00
1.00033559e+00
1.00030940e+00
1.00027883e+00
1.00024473e+00
1.00020803e+00
1.00016974e+00
1.00013090e+00
1.00009254e+00
1.00005570e+00
1.00002135e+00
9.99990417e-01
9.99963714e-01
9.99941971e-01
9.99925798e-01
9.99915688e-01
9.99912007e-01
9.99914999e-01
9.99924783e-01
9.99941367e-01
9.99964645e-01
9.99994414e-01
1.00003038e+00
1.00007217e+00
1.00011934e+00
1.00017139e+00
1.00022778e+00
1.00028792e+00
1.00035121e+00
1.00041702e+00
1.00048473e+00
1.00055372e+00
1.00062338e+00
1.00069312e+00
1.00076238e+00
1.00083063e+00
1.00089740e+00
1.00096226e+00
1.00102481e+00
1.00108474e+00
1.00114176e+00
1.00119567e+00
1.00124631e+00
1.00129358e+00
1.00133743e+00
1.00137787e+00
1.00141493e+00
1.00144872e+00
1.00147935e+00
1.00150697e+00
1.00153175e+00
1.00155390e+00
1.00157359e+00
1.00159104e+00
1.00160645e+00
1.00162003e+00
1.00163194e+00
1.00164237e+00
1.00165150e+00
1.00165946e+00
1.00166636e+00
1.00167235e+00
1.00167758e+00
1.00168204e+00
1.00168574e+00
1.00168897e+00
1.00169178e+00
1.00169383e+00
1.00169536e+00
1.00169672e+00
1.00169758e+00
1.00169824e+00
1.00169901e+00
9.98474949e-01
9.98477594e-01
9.98481151e-01
9.98486449e-01
9.98493286e-01
9.98501663e-01
9.98512156e-01
9.98524566e-01
9.98538724e-01
9.98554953e-01
9.98573352e-01
9.98593829e-01
9.98616481e-01
9.98641435e-01
9.98668685e-01
9.98698223e-01
9.98730093e-01
9.98764297e-01
9.98800793e-01
9.98839544e-01
9.98880505e-01
9.98923603e-01
9.98968755e-01
9.99015867e-01
9.99064840e-01
9.99115562e-01
9.99167916e-01
9.99221784e-01
9.99277041e-01
9.99333560e-01
9.99391207e-01
9.99449842e-01
9.99509316e-01
9.99569464e-01
9.99630100e-01
9.99691016e-01
9.99751972e-01
9.99812691e-01
9.99872856e-01
9.99932105e-01
9.99990032e-01
1.00004619e+00
1.00010007e+00
1.00015116e+00
1.00019891e+00
1.00024274e+00
1.00028210e+00
1.00031646e+00
1.00034531e+00
1.00036824e+00
1.00038489e+00
1.00039502e+00
1.00039852e+00
1.00039540e+00
1.00038581e+00
1.00037008e+00
1.00034864e+00
1.00032210e+00
1.00029118e+00
1.00025670e+00
1.00021959e+00
1.00018081e+00
1.00014139e+00
1.00010235e+00
1.00006469e+00
1.00002938e+00
9.99997313e-01
9.99969305e-01
9.99946073e-01
9.99928222e-01
9.99916240e-01
9.99910498e-01
9.99911244e-01
9.99918611e-01
9.99932618e-01
9.99953181e-01
9.99980119e-01
1.00001317e+00
1.00005198e+00
1.00009615e+00
1.00014520e+00
1.00019865e+00
1.00025592e+00
1.00031647e+00
1.00037969e+00
1.00044500e+00
1.00051180e+00
1.00057951e+00
1.00064756e+00
1.00071541e+00
1.00078254e+00
1.00084849e+00
1.00091281e+00
1.00097511e+00
1.00103507e+00
1.00109239e+00
1.00114684e+00
1.00119825e+00
1.00124647e+00
1.00129145e+00
1.00133315e+00
1.00137160e+00
1.00140684e+00
1.00143898e+00
1.00146813e+00
1.00149444e+00
1.00151809e+00
1.00153924e+00
1.00155809e+00
1.00157482e+00
1.00158962e+00
1.00160268e+00
1.00161415e+00
1.00162420e+00
1.00163300e+00
1.00164067e+00
1.00164728e+00
1.00165301e+00
1.00165799e+00
1.00166215e+00
1.00166559e+00
1.00166859e+00
1.00167100e+00
1.00167262e+00
1.00167392e+00
1.00167491e+00
1.00167541e+00
1.00167610e+00
9.98515785e-01
9.98518428e-01
9.98522116e-01
9.98527070e-01
9.98533751e-01
9.98542501e-01
9.98553084e-01
9.98565411e-01
9.98579836e-01
9.98596371e-01
9.98614891e-01
9.98635549e-01
9.98658481e-01
9.98683645e-01
9.98711040e-01
9.98740736e-01
9.98772734e-01
9.98806992e-01
9.98843485e-01
9.98882182e-01
9.98923018e-01
9.98965916e-01
9.99010795e-01
9.99057565e-01
9.99106121e-01
9.99156358e-01
9.99208164e-01
9.99261424e-01
9.99316020e-01
9.99371828e-01
9.99428721e-01
9.99486565e-01
9.99545211e-01
9.99604497e-01
9.99664241e-01
9.99724235e-01
9.99784237e-01
9.99843972e-01
9.99903124e-01
9.99961331e-01
1.00001819e+00
1.00007325e+00
1.00012603e+00
1.00017601e+00
1.00022264e+00
1.00026537e+00
1.00030365e+00
1.00033697e+00
1.00036483e+00
1.00038682e+00
1.00040261e+00
1.00041195e+00
1.00041473e+00
1.00041097e+00
1.00040082e+00
1.00038457e+00
1.00036267e+00
1.00033569e+00
1.00030433e+00
1.00026940e+00
1.00023179e+00
1.00019246e+00
1.00015239e+00
1.00011259e+00
1.00007404e+00
1.00003768e+00
1.00000440e+00
9.99974999e-01
9.99950174e-01
9.99930529e-01
9.99916550e-01
9.99908608e-01
9.99906958e-01
9.99911742e-01
9.99922996e-01
9.99940655e-01
9.99964563e-01
9.99994481e-01
1.00003010e+00
1.00007104e+00
1.00011688e+00
1.00016715e+00
1.00022134e+00
1.00027891e+00
1.00033933e+00
1.00040202e+00
1.00046643e+00
1.00053200e+00
1.00059819e+00
1.00066447e+00
1.00073034e+00
1.00079533e+00
1.00085901e+00
1.00092099e+00
1.00098092e+00
1.00103849e+00
1.00109346e+00
1.00114562e+00
1.00119482e+00
1.00124095e+00
1.00128395e+00
1.00132382e+00
1.00136058e+00
1.00139429e+00
1.00142505e+00
1.00145297e+00
1.00147819e+00
1.00150088e+00
1.00152120e+00
1.00153932e+00
1.00155542e+00
1.00156967e+00
1.00158224e+00
1.00159328e+00
1.00160293e+00
1.00161138e+00
1.00161871e+00
1.00162498e+00
1.00163035e+00
1.00163500e+00
1.00163884e+00
1.00164188e+00
1.00164445e+00
1.00164645e+00
1.00164766e+00
1.00164837e+00
1.00164900e+00
1.00164975e+00
9.98561414e-01
9.98563800e-01
9.98567294e-01
9.98572162e-01
9.98578920e-01
9.98587676e-01
9.98598236e-01
9.98610774e-01
9.98625405e-01
9.98642025e-01
9.98660727e-01
9.98681648e-01
9.98704761e-01
9.98730064e-01
9.98757628e-01
9.98787460e-01
9.98819519e-01
9.98853791e-01
9.98890252e-01
9.98928844e-01
9.98969497e-01
9.99012141e-01
9.99056694e-01
9.99103059e-01
9.99151139e-01
9.99200831e-01
9.99252027e-01
9.99304619e-01
9.99358493e-01
9.99413533e-01
9.99469616e-01
9.99526610e-01
9.99584372e-01
9.99642742e-01
9.99701538e-01
9.99760550e-01
9.99819538e-01
9.99878224e-01
9.99936292e-01
9.99993382e-01
1.00004909e+00
1.00010297e+00
1.00015455e+00
1.00020330e+00
1.00024870e+00
1.00029021e+00
1.00032729e+00
1.00035943e+00
1.00038617e+00
1.00040709e+00
1.00042188e+00
1.00043030e+00
1.00043224e+00
1.00042771e+00
1.00041687e+00
1.00039999e+00
1.00037752e+00
1.00035000e+00
1.00031812e+00
1.00028265e+00
1.00024447e+00
1.00020451e+00
1.00016373e+00
1.00012310e+00
1.00008360e+00
1.00004613e+00
1.00001156e+00
9.99980679e-01
9.99954179e-01
9.99932648e-01
9.99916571e-01
9.99906318e-01
9.99902149e-01
9.99904218e-01
9.99912575e-01
9.99927175e-01
9.99947887e-01
9.99974503e-01
1.00000674e+00
1.00004427e+00
1.00008669e+00
1.00013359e+00
1.00018448e+00
1.00023889e+00
1.00029629e+00
1.00035617e+00
1.00041800e+00
1.00048125e+00
1.00054540e+00
1.00060995e+00
1.00067441e+00
1.00073832e+00
1.00080125e+00
1.00086280e+00
1.00092261e+00
1.00098038e+00
1.00103581e+00
1.00108869e+00
1.00113884e+00
1.00118613e+00
1.00123045e+00
1.00127177e+00
1.00131008e+00
1.00134540e+00
1.00137781e+00
1.00140739e+00
1.00143425e+00
1.00145853e+00
1.00148037e+00
1.00149994e+00
1.00151739e+00
1.00153287e+00
1.00154657e+00
1.00155865e+00
1.00156921e+00
1.00157842e+00
1.00158642e+00
1.00159332e+00
1.00159917e+00
1.00160413e+00
1.00160831e+00
1.00161166e+00
1.00161429e+00
1.00161634e+00
1.00161766e+00
1.00161832e+00
1.00161880e+00
1.00161938e+00
9.98611562e-01
9.98613648e-01
9.98616826e-01
9.98621716e-01
9.98628502e-01
9.98637131e-01
9.98647783e-01
9.98660521e-01
9.98675208e-01
9.98691942e-01
9.98710877e-01
9.98731965e-01
9.98755197e-01
9.98780659e-01
9.98808360e-01
9.98838253e-01
9.98870333e-01
9.98904587e-01
9.98940958e-01
9.98979383e-01
9.99019800e-01
9.99062135e-01
9.99106298e-01
9.99152198e-01
9.99199742e-01
9.99248829e-01
9.99299358e-01
9.99351226e-01
9.99404325e-01
9.99458545e-01
9.99513767e-01
9.99569865e-01
9.99626696e-01
9.99684102e-01
9.99741901e-01
9.99799881e-01
9.99857801e-01
9.99915381e-01
9.99972301e-01
1.00002820e+00
1.00008268e+00
1.00013529e+00
1.00018556e+00
1.00023299e+00
1.00027704e+00
1.00031720e+00
1.00035295e+00
1.00038378e+00
1.00040925e+00
1.00042897e+00
1.00044261e+00
1.00044996e+00
1.00045092e+00
1.00044549e+00
1.00043383e+00
1.00041621e+00
1.00039305e+00
1.00036488e+00
1.00033238e+00
1.00029629e+00
1.00025746e+00
1.00021680e+00
1.00017524e+00
1.00013373e+00
1.00009321e+00
1.00005457e+00
1.00001866e+00
9.99986240e-01
9.99957999e-01
9.99934514e-01
9.99916262e-01
9.99903613e-01
9.99896834e-01
9.99896085e-01
9.99901432e-01
9.99912852e-01
9.99930236e-01
9.99953407e-01
9.99982118e-01
1.00001607e+00
1.00005491e+00
1.00009826e+00
1.00014568e+00
1.00019673e+00
1.00025094e+00
1.00030783e+00
1.00036690e+00
1.00042765e+00
1.00048960e+00
1.00055226e+00
1.00061516e+00
1.00067784e+00
1.00073989e+00
1.00080089e+00
1.00086049e+00
1.00091835e+00
1.00097419e+00
1.00102774e+00
1.00107880e+00
1.00112721e+00
1.00117283e+00
1.00121560e+00
1.00125546e+00
1.00129242e+00
1.00132650e+00
1.00135776e+00
1.00138629e+00
1.00141220e+00
1.00143560e+00
1.00145664e+00
1.00147548e+00
1.00149225e+00
1.00150710e+00
1.00152021e+00
1.00153171e+00
1.00154173e+00
1.00155039e+00
1.00155787e+00
1.00156425e+00
1.00156956e+00
1.00157397e+00
1.00157761e+00
1.00158039e+00
1.00158239e+00
1.00158376e+00
1.00158444e+00
1.00158466e+00
1.00158503e+00
9.98665941e-01
9.98667821e-01
9.98670821e-01
9.98675570e-01
9.98682258e-01
9.98690932e-01
9.98701675e-01
9.98714420e-01
9.98729195e-01
9.98746121e-01
9.98765180e-01
9.98786362e-01
9.98809741e-01
9.98835329e-01
9.98863081e-01
9.98892997e-01
9.98925069e-01
9.98959243e-01
9.98995458e-01
9.99033663e-01
9.99073788e-01
9.99115748e-01
9.99159459e-01
9.99204835e-01
9.99251784e-01
9.99300209e-01
9.99350017e-01
9.99401109e-01
9.99453386e-01
9.99506741e-01
9.99561061e-01
9.99616221e-01
9.99672082e-01
9.99728485e-01
9.99785245e-01
9.99842150e-01
9.99898953e-01
9.99955371e-01
1.00001108e+00
1.00006572e+00
1.00011889e+00
1.00017014e+00
1.00021901e+00
1.00026500e+00
1.00030759e+00
1.00034628e+00
1.00038055e+00
1.00040993e+00
1.00043399e+00
1.00045234e+00
1.00046468e+00
1.00047082e+00
1.00047064e+00
1.00046417e+00
1.00045156e+00
1.00043306e+00
1.00040910e+00
1.00038018e+00
1.00034695e+00
1.00031016e+00
1.00027060e+00
1.00022917e+00
1.00018677e+00
1.00014431e+00
1.00010272e+00
1.00006287e+00
1.00002557e+00
9.99991575e-01
9.99961549e-01
9.99936061e-01
9.99915582e-01
9.99900481e-01
9.99891026e-01
9.99887388e-01
9.99889646e-01
9.99897794e-01
9.99911752e-01
9.99931368e-01
9.99956431e-01
9.99986679e-01
1.00002180e+00
1.00006145e+00
1.00010525e+00
1.00015279e+00
1.00020365e+00
1.00025737e+00
1.00031351e+00
1.00037160e+00
1.00043117e+00
1.00049178e+00
1.00055295e+00
1.00061427e+00
1.00067529e+00
1.00073562e+00
1.00079489e+00
1.00085274e+00
1.00090888e+00
1.00096302e+00
1.00101492e+00
1.00106440e+00
1.00111129e+00
1.00115547e+00
1.00119687e+00
1.00123545e+00
1.00127121e+00
1.00130416e+00
1.00133437e+00
1.00136192e+00
1.00138690e+00
1.00140945e+00
1.00142968e+00
1.00144775e+00
1.00146379e+00
1.00147794e+00
1.00149036e+00
1.00150121e+00
1.00151058e+00
1.00151860e+00
1.00152544e+00
1.00153117e+00
1.00153584e+00
1.00153961e+00
1.00154254e+00
1.00154462e+00
1.00154592e+00
1.00154649e+00
1.00154654e+00
1.00154676e+00
9.98724555e-01
9.98726197e-01
9.98729017e-01
9.98733591e-01
9.98740205e-01
9.98748923e-01
9.98759660e-01
9.98772423e-01
9.98787327e-01
9.98804356e-01
9.98823482e-01
9.98844781e-01
9.98868270e-01
9.98893901e-01
9.98921672e-01
9.98951583e-01
9.98983581e-01
9.99017607e-01
9.99053616e-01
9.99091545e-01
9.99131310e-01
9.99172833e-01
9.99216035e-01
9.99260829e-01
9.99307124e-01
9.99354836e-01
9.99403873e-01
9.99454145e-01
9.99505557e-01
9.99558009e-01
9.99611390e-01
9.99665579e-01
9.99720437e-01
9.99775802e-01
9.99831488e-01
9.99887276e-01
9.99942917e-01
9.99998121e-01
1.00005256e+00
1.00010587e+00
1.00015765e+00
1.00020745e+00
1.00025482e+00
1.00029925e+00
1.00034026e+00
1.00037734e+00
1.00041000e+00
1.00043778e+00
1.00046027e+00
1.00047710e+00
1.00048799e+00
1.00049275e+00
1.00049129e+00
1.00048363e+00
1.00046991e+00
1.00045041e+00
1.00042551e+00
1.00039573e+00
1.00036169e+00
1.00032409e+00
1.00028373e+00
1.00024146e+00
1.00019815e+00
1.00015471e+00
1.00011201e+00
1.00007091e+00
1.00003219e+00
9.99996588e-01
9.99964750e-01
9.99937233e-01
9.99914498e-01
9.99896912e-01
9.99884744e-01
9.99878173e-01
9.99877290e-01
9.99882108e-01
9.99892570e-01
9.99908553e-01
9.99929880e-01
9.99956324e-01
9.99987617e-01
1.00002345e+00
1.00006350e+00
1.00010739e+00
1.00015474e+00
1.00020515e+00
1.00025819e+00
1.00031346e+00
1.00037050e+00
1.00042889e+00
1.00048818e+00
1.00054796e+00
1.00060781e+00
1.00066732e+00
1.00072612e+00
1.00078384e+00
1.00084017e+00
1.00089479e+00
1.00094745e+00
1.00099792e+00
1.00104600e+00
1.00109155e+00
1.00113445e+00
1.00117462e+00
1.00121202e+00
1.00124666e+00
1.00127854e+00
1.00130773e+00
1.00133430e+00
1.00135835e+00
1.00137999e+00
1.00139936e+00
1.00141658e+00
1.00143181e+00
1.00144516e+00
1.00145681e+00
1.00146688e+00
1.00147549e+00
1.00148276e+00
1.00148884e+00
1.00149381e+00
1.00149772e+00
1.00150073e+00
1.00150287e+00
1.00150413e+00
1.00150454e+00
1.00150441e+00
1.00150443e+00
9.98787277e-01
9.98788614e-01
9.98791183e-01
9.98795648e-01
9.98802216e-01
9.98810874e-01
9.98821598e-01
9.98834440e-01
9.98849404e-01
9.98866469e-01
9.98885689e-01
9.98907079e-01
9.98930597e-01
9.98956241e-01
9.98984009e-01
9.99013849e-01
9.99045708e-01
9.99079542e-01
9.99115291e-01
9.99152875e-01
9.99192219e-01
9.99233251e-01
9.99275885e-01
9.99320039e-01
9.99365632e-01
9.99412581e-01
9.99460804e-01
9.99510216e-01
9.99560727e-01
9.99612243e-01
9.99664656e-01
9.99717844e-01
9.99771669e-01
9.99825966e-01
9.99880543e-01
9.99935177e-01
9.99989610e-01
1.00004355e+00
1.00009666e+00
1.00014856e+00
1.00019887e+00
1.00024713e+00
1.00029288e+00
1.00033565e+00
1.00037494e+00
1.00041028e+00
1.00044118e+00
1.00046721e+00
1.00048796e+00
1.00050311e+00
1.00051239e+00
1.00051562e+00
1.00051271e+00
1.00050371e+00
1.00048875e+00
1.00046811e+00
1.00044216e+00
1.00041140e+00
1.00037643e+00
1.00033794e+00
1.00029670e+00
1.00025352e+00
1.00020927e+00
1.00016479e+00
1.00012095e+00
1.00007857e+00
1.00003841e+00
1.00000119e+00
9.99967530e-01
9.99937975e-01
9.99912977e-01
9.99892896e-01
9.99878002e-01
9.99868480e-01
9.99864432e-01
9.99865889e-01
9.99872815e-01
9.99885116e-01
9.99902646e-01
9.99925215e-01
9.99952594e-01
9.99984522e-01
1.00002070e+00
1.00006083e+00
1.00010454e+00
1.00015150e+00
1.00020131e+00
1.00025359e+00
1.00030794e+00
1.00036395e+00
1.00042120e+00
1.00047928e+00
1.00053779e+00
1.00059633e+00
1.00065450e+00
1.00071195e+00
1.00076833e+00
1.00082332e+00
1.00087662e+00
1.00092797e+00
1.00097716e+00
1.00102400e+00
1.00106833e+00
1.00111004e+00
1.00114905e+00
1.00118533e+00
1.00121886e+00
1.00124967e+00
1.00127781e+00
1.00130336e+00
1.00132642e+00
1.00134709e+00
1.00136550e+00
1.00138179e+00
1.00139609e+00
1.00140854e+00
1.00141929e+00
1.00142848e+00
1.00143622e+00
1.00144262e+00
1.00144784e+00
1.00145194e+00
1.00145501e+00
1.00145713e+00
1.00145835e+00
1.00145865e+00
1.00145827e+00
1.00145802e+00
9.98853807e-01
9.98854852e-01
9.98857179e-01
9.98861527e-01
9.98868019e-01
9.98876620e-01
9.98887356e-01
9.98900231e-01
9.98915212e-01
9.98932338e-01
9.98951627e-01
9.98973041e-01
9.98996567e-01
9.99022206e-01
9.99049910e-01
9.99079622e-01
9.99111304e-01
9.99144895e-01
9.99180318e-01
9.99217502e-01
9.99256375e-01
9.99296858e-01
9.99338869e-01
9.99382335e-01
9.99427178e-01
9.99473323e-01
9.99520693e-01
9.99569211e-01
9.99618791e-01
9.99669343e-01
9.99720761e-01
9.99772924e-01
9.99825689e-01
9.99878888e-01
9.99932323e-01
9.99985763e-01
1.00003894e+00
1.00009156e+00
1.00014327e+00
1.00019370e+00
1.00024244e+00
1.00028906e+00
1.00033309e+00
1.00037407e+00
1.00041152e+00
1.00044497e+00
1.00047396e+00
1.00049808e+00
1.00051695e+00
1.00053026e+00
1.00053776e+00
1.00053929e+00
1.00053479e+00
1.00052429e+00
1.00050795e+00
1.00048602e+00
1.00045889e+00
1.00042704e+00
1.00039104e+00
1.00035158e+00
1.00030938e+00
1.00026523e+00
1.00021997e+00
1.00017443e+00
1.00012942e+00