# vtk DataFile Version 2.0
LBM Flow Field - Timestep 2480
ASCII
DATASET STRUCTURED_POINTS
DIMENSIONS 128 128 1
ORIGIN 0.0 0.0 0.0
SPACING 1.0 1.0 1.0
POINT_DATA 16384
SCALARS density double 1
LOOKUP_TABLE default
9.97169533e-01
9.97169616e-01
9.97168900e-01
9.97165273e-01
9.97161659e-01
9.97158560e-01
9.97155325e-01
9.97152070e-01
9.97149178e-01
9.97146748e-01
9.97144898e-01
9.97143863e-01
9.97143862e-01
9.97145090e-01
9.97147750e-01
9.97152045e-01
9.97158170e-01
9.97166317e-01
9.97176667e-01
9.97189393e-01
9.97204659e-01
9.97222621e-01
9.97243422e-01
9.97267196e-01
9.97294064e-01
9.97324139e-01
9.97357521e-01
9.97394299e-01
9.97434552e-01
9.97478347e-01
9.97525739e-01
9.97576771e-01
9.97631472e-01
9.97689861e-01
9.97751941e-01
9.97817700e-01
9.97887113e-01
9.97960136e-01
9.98036713e-01
9.98116769e-01
9.98200213e-01
9.98286936e-01
9.98376815e-01
9.98469711e-01
9.98565470e-01
9.98663925e-01
9.98764897e-01
9.98868197e-01
9.98973630e-01
9.99080992e-01
9.99190078e-01
9.99300683e-01
9.99412601e-01
9.99525630e-01
9.99639576e-01
9.99754250e-01
9.99869472e-01
9.99985076e-01
1.00010090e+00
1.00021681e+00
1.00033265e+00
1.00044832e+00
1.00056369e+00
1.00067867e+00
1.00079315e+00
1.00090705e+00
1.00102029e+00
1.00113277e+00
1.00124443e+00
1.00135516e+00
1.00146489e+00
1.00157351e+00
1.00168093e+00
1.00178703e+00
1.00189169e+00
1.00199478e+00
1.00209615e+00
1.00219565e+00
1.00229311e+00
1.00238835e+00
1.00248118e+00
1.00257142e+00
1.00265886e+00
1.00274329e+00
1.00282452e+00
1.00290234e+00
1.00297654e+00
1.00304694e+00
1.00311336e+00
1.00317560e+00
1.00323354e+00
1.00328701e+00
1.00333590e+00
1.00338012e+00
1.00341959e+00
1.00345427e+00
1.00348414e+00
1.00350921e+00
1.00352952e+00
1.00354515e+00
1.00355620e+00
1.00356280e+00
1.00356513e+00
1.00356337e+00
1.00355775e+00
1.00354853e+00
1.00353597e+00
1.00352039e+00
1.00350209e+00
1.00348142e+00
1.00345873e+00
1.00343439e+00
1.00340877e+00
1.00338223e+00
1.00335517e+00
1.00332798e+00
1.00330102e+00
1.00327461e+00
1.00324916e+00
1.00322510e+00
1.00320254e+00
1.00318164e+00
1.00316317e+00
1.00314728e+00
1.00313289e+00
1.00312122e+00
1.00311584e+00
1.00311320e+00
9.97171398e-01
9.97170312e-01
9.97169246e-01
9.97166526e-01
9.97163443e-01
9.97160326e-01
9.97157197e-01
9.97154155e-01
9.97151393e-01
9.97149074e-01
9.97147380e-01
9.97146507e-01
9.97146655e-01
9.97148031e-01
9.97150840e-01
9.97155283e-01
9.97161553e-01
9.97169842e-01
9.97180333e-01
9.97193198e-01
9.97208603e-01
9.97226701e-01
9.97247637e-01
9.97271542e-01
9.97298540e-01
9.97328741e-01
9.97362245e-01
9.97399139e-01
9.97439502e-01
9.97483397e-01
9.97530880e-01
9.97581991e-01
9.97636758e-01
9.97695197e-01
9.97757310e-01
9.97823082e-01
9.97892487e-01
9.97965481e-01
9.98042005e-01
9.98121983e-01
9.98205323e-01
9.98291916e-01
9.98381641e-01
9.98474357e-01
9.98569911e-01
9.98668138e-01
9.98768861e-01
9.98871893e-01
9.98977039e-01
9.99084101e-01
9.99192875e-01
9.99303158e-01
9.99414748e-01
9.99527445e-01
9.99641058e-01
9.99755400e-01
9.99870295e-01
9.99985576e-01
1.00010109e+00
1.00021668e+00
1.00033223e+00
1.00044761e+00
1.00056270e+00
1.00067741e+00
1.00079163e+00
1.00090528e+00
1.00101827e+00
1.00113052e+00
1.00124195e+00
1.00135245e+00
1.00146196e+00
1.00157036e+00
1.00167756e+00
1.00178345e+00
1.00188790e+00
1.00199077e+00
1.00209194e+00
1.00219122e+00
1.00228848e+00
1.00238351e+00
1.00247615e+00
1.00256620e+00
1.00265346e+00
1.00273772e+00
1.00281879e+00
1.00289647e+00
1.00297054e+00
1.00304083e+00
1.00310715e+00
1.00316932e+00
1.00322720e+00
1.00328064e+00
1.00332952e+00
1.00337376e+00
1.00341327e+00
1.00344802e+00
1.00347797e+00
1.00350316e+00
1.00352361e+00
1.00353940e+00
1.00355064e+00
1.00355746e+00
1.00356001e+00
1.00355851e+00
1.00355316e+00
1.00354423e+00
1.00353198e+00
1.00351672e+00
1.00349876e+00
1.00347843e+00
1.00345610e+00
1.00343212e+00
1.00340686e+00
1.00338070e+00
1.00335402e+00
1.00332719e+00
1.00330058e+00
1.00327455e+00
1.00324947e+00
1.00322566e+00
1.00320340e+00
1.00318295e+00
1.00316471e+00
1.00314882e+00
1.00313522e+00
1.00312461e+00
1.00311839e+00
1.00311415e+00
9.97173621e-01
9.97171898e-01
9.97169302e-01
9.97167456e-01
9.97164985e-01
9.97161740e-01
9.97158639e-01
9.97155816e-01
9.97153191e-01
9.97150980e-01
9.97149435e-01
9.97148717e-01
9.97149017e-01
9.97150550e-01
9.97153518e-01
9.97158121e-01
9.97164556e-01
9.97173012e-01
9.97183671e-01
9.97196708e-01
9.97212287e-01
9.97230559e-01
9.97251670e-01
9.97275751e-01
9.97302922e-01
9.97333294e-01
9.97366963e-01
9.97404018e-01
9.97444532e-01
9.97488570e-01
9.97536181e-01
9.97587406e-01
9.97642270e-01
9.97700786e-01
9.97762953e-01
9.97828757e-01
9.97898166e-01
9.97971137e-01
9.98047609e-01
9.98127504e-01
9.98210730e-01
9.98297180e-01
9.98386728e-01
9.98479239e-01
9.98574558e-01
9.98672523e-01
9.98772957e-01
9.98875678e-01
9.98980492e-01
9.99087203e-01
9.99195612e-01
9.99305518e-01
9.99416721e-01
9.99529028e-01
9.99642247e-01
9.99756196e-01
9.99870700e-01
9.99985596e-01
1.00010073e+00
1.00021596e+00
1.00033115e+00
1.00044618e+00
1.00056093e+00
1.00067532e+00
1.00078923e+00
1.00090258e+00
1.00101528e+00
1.00112725e+00
1.00123840e+00
1.00134865e+00
1.00145790e+00
1.00156606e+00
1.00167303e+00
1.00177868e+00
1.00188290e+00
1.00198556e+00
1.00208651e+00
1.00218560e+00
1.00228266e+00
1.00237751e+00
1.00246998e+00
1.00255986e+00
1.00264697e+00
1.00273111e+00
1.00281206e+00
1.00288964e+00
1.00296364e+00
1.00303387e+00
1.00310015e+00
1.00316232e+00
1.00322021e+00
1.00327369e+00
1.00332265e+00
1.00336698e+00
1.00340661e+00
1.00344151e+00
1.00347164e+00
1.00349703e+00
1.00351771e+00
1.00353375e+00
1.00354526e+00
1.00355237e+00
1.00355525e+00
1.00355408e+00
1.00354909e+00
1.00354053e+00
1.00352867e+00
1.00351380e+00
1.00349624e+00
1.00347634e+00
1.00345442e+00
1.00343086e+00
1.00340603e+00
1.00338029e+00
1.00335404e+00
1.00332761e+00
1.00330140e+00
1.00327580e+00
1.00325110e+00
1.00322755e+00
1.00320565e+00
1.00318575e+00
1.00316759e+00
1.00315148e+00
1.00313895e+00
1.00312955e+00
1.00312113e+00
1.00311587e+00
9.97173567e-01
9.97172029e-01
9.97170096e-01
9.97168076e-01
9.97165371e-01
9.97162498e-01
9.97159670e-01
9.97156903e-01
9.97154403e-01
9.97152390e-01
9.97151019e-01
9.97150470e-01
9.97150958e-01
9.97152688e-01
9.97155856e-01
9.97160664e-01
9.97167309e-01
9.97175980e-01
9.97186858e-01
9.97200116e-01
9.97215917e-01
9.97234415e-01
9.97255750e-01
9.97280053e-01
9.97307444e-01
9.97338030e-01
9.97371907e-01
9.97409159e-01
9.97449858e-01
9.97494066e-01
9.97541832e-01
9.97593190e-01
9.97648165e-01
9.97706767e-01
9.97768992e-01
9.97834824e-01
9.97904231e-01
9.97977165e-01
9.98053566e-01
9.98133354e-01
9.98216438e-01
9.98302709e-01
9.98392044e-01
9.98484307e-01
9.98579346e-01
9.98676999e-01
9.98777095e-01
9.98879451e-01
9.98983878e-01
9.99090183e-01
9.99198171e-01
9.99307644e-01
9.99418407e-01
9.99530268e-01
9.99643040e-01
9.99756544e-01
9.99870609e-01
9.99985072e-01
1.00009978e+00
1.00021460e+00
1.00032939e+00
1.00044403e+00
1.00055842e+00
1.00067244e+00
1.00078601e+00
1.00089903e+00
1.00101141e+00
1.00112308e+00
1.00123394e+00
1.00134390e+00
1.00145288e+00
1.00156078e+00
1.00166749e+00
1.00177290e+00
1.00187689e+00
1.00197932e+00
1.00208005e+00
1.00217893e+00
1.00227580e+00
1.00237046e+00
1.00246276e+00
1.00255249e+00
1.00263946e+00
1.00272347e+00
1.00280433e+00
1.00288182e+00
1.00295576e+00
1.00302597e+00
1.00309225e+00
1.00315444e+00
1.00321238e+00
1.00326595e+00
1.00331502e+00
1.00335950e+00
1.00339931e+00
1.00343442e+00
1.00346479e+00
1.00349045e+00
1.00351143e+00
1.00352781e+00
1.00353968e+00
1.00354718e+00
1.00355047e+00
1.00354973e+00
1.00354520e+00
1.00353710e+00
1.00352573e+00
1.00351136e+00
1.00349432e+00
1.00347493e+00
1.00345353e+00
1.00343050e+00
1.00340619e+00
1.00338097e+00
1.00335522e+00
1.00332930e+00
1.00330358e+00
1.00327841e+00
1.00325415e+00
1.00323112e+00
1.00320954e+00
1.00318980e+00
1.00317219e+00
1.00315682e+00
1.00314396e+00
1.00313411e+00
1.00312647e+00
1.00312173e+00
9.97173067e-01
9.97171762e-01
9.97170240e-01
9.97167878e-01
9.97165283e-01
9.97162782e-01
9.97160056e-01
9.97157383e-01
9.97155101e-01
9.97153302e-01
9.97152120e-01
9.97151789e-01
9.97152513e-01
9.97154481e-01
9.97157897e-01
9.97162962e-01
9.97169869e-01
9.97178809e-01
9.97189961e-01
9.97203496e-01
9.97219576e-01
9.97238354e-01
9.97259968e-01
9.97284547e-01
9.97312208e-01
9.97343057e-01
9.97377187e-01
9.97414678e-01
9.97455601e-01
9.97500014e-01
9.97547962e-01
9.97599478e-01
9.97654582e-01
9.97713283e-01
9.97775573e-01
9.97841434e-01
9.97910832e-01
9.97983717e-01
9.98060028e-01
9.98139685e-01
9.98222595e-01
9.98308652e-01
9.98397732e-01
9.98489700e-01
9.98584407e-01
9.98681695e-01
9.98781393e-01
9.98883324e-01
9.98987301e-01
9.99093137e-01
9.99200639e-01
9.99309614e-01
9.99419872e-01
9.99531224e-01
9.99643487e-01
9.99756486e-01
9.99870052e-01
9.99984027e-01
1.00009826e+00
1.00021261e+00
1.00032696e+00
1.00044117e+00
1.00055514e+00
1.00066877e+00
1.00078196e+00
1.00089462e+00
1.00100666e+00
1.00111799e+00
1.00122853e+00
1.00133819e+00
1.00144688e+00
1.00155449e+00
1.00166093e+00
1.00176608e+00
1.00186981e+00
1.00197200e+00
1.00207250e+00
1.00217116e+00
1.00226782e+00
1.00236229e+00
1.00245441e+00
1.00254397e+00
1.00263080e+00
1.00271469e+00
1.00279545e+00
1.00287287e+00
1.00294677e+00
1.00301696e+00
1.00308325e+00
1.00314549e+00
1.00320352e+00
1.00325721e+00
1.00330644e+00
1.00335111e+00
1.00339116e+00
1.00342653e+00
1.00345722e+00
1.00348322e+00
1.00350459e+00
1.00352138e+00
1.00353370e+00
1.00354168e+00
1.00354547e+00
1.00354528e+00
1.00354130e+00
1.00353379e+00
1.00352302e+00
1.00350927e+00
1.00349285e+00
1.00347409e+00
1.00345334e+00
1.00343094e+00
1.00340727e+00
1.00338268e+00
1.00335753e+00
1.00333222e+00
1.00330709e+00
1.00328246e+00
1.00325869e+00
1.00323620e+00
1.00321514e+00
1.00319565e+00
1.00317838e+00
1.00316369e+00
1.00315092e+00
1.00314065e+00
1.00313392e+00
1.00312947e+00
9.97172500e-01
9.97171031e-01
9.97169363e-01
9.97167267e-01
9.97164976e-01
9.97162425e-01
9.97159812e-01
9.97157443e-01
9.97155381e-01
9.97153760e-01
9.97152820e-01
9.97152760e-01
9.97153752e-01
9.97155999e-01
9.97159709e-01
9.97165080e-01
9.97172302e-01
9.97181562e-01
9.97193041e-01
9.97206908e-01
9.97223323e-01
9.97242436e-01
9.97264383e-01
9.97289291e-01
9.97317274e-01
9.97348435e-01
9.97382863e-01
9.97420637e-01
9.97461823e-01
9.97506475e-01
9.97554635e-01
9.97606334e-01
9.97661587e-01
9.97720399e-01
9.97782762e-01
9.97848654e-01
9.97918037e-01
9.97990863e-01
9.98067066e-01
9.98146568e-01
9.98229276e-01
9.98315082e-01
9.98403866e-01
9.98495494e-01
9.98589820e-01
9.98686688e-01
9.98785931e-01
9.98887376e-01
9.98990841e-01
9.99096142e-01
9.99203092e-01
9.99311503e-01
9.99421189e-01
9.99531965e-01
9.99643655e-01
9.99756085e-01
9.99869091e-01
9.99982517e-01
1.00009622e+00
1.00021005e+00
1.00032390e+00
1.00043763e+00
1.00055114e+00
1.00066433e+00
1.00077710e+00
1.00088936e+00
1.00100101e+00
1.00111197e+00
1.00122216e+00
1.00133149e+00
1.00143985e+00
1.00154715e+00
1.00165329e+00
1.00175816e+00
1.00186162e+00
1.00196354e+00
1.00206379e+00
1.00216221e+00
1.00225864e+00
1.00235291e+00
1.00244484e+00
1.00253424e+00
1.00262092e+00
1.00270468e+00
1.00278534e+00
1.00286270e+00
1.00293657e+00
1.00300675e+00
1.00307309e+00
1.00313540e+00
1.00319355e+00
1.00324739e+00
1.00329682e+00
1.00334173e+00
1.00338207e+00
1.00341778e+00
1.00344884e+00
1.00347526e+00
1.00349708e+00
1.00351438e+00
1.00352724e+00
1.00353579e+00
1.00354020e+00
1.00354064e+00
1.00353733e+00
1.00353051e+00
1.00352045e+00
1.00350743e+00
1.00349175e+00
1.00347374e+00
1.00345374e+00
1.00343210e+00
1.00340916e+00
1.00338531e+00
1.00336089e+00
1.00333626e+00
1.00331179e+00
1.00328785e+00
1.00326469e+00
1.00324265e+00
1.00322213e+00
1.00320336e+00
1.00318638e+00
1.00317166e+00
1.00315950e+00
1.00314979e+00
1.00314279e+00
1.00313813e+00
9.97171484e-01
9.97170039e-01
9.97168251e-01
9.97166325e-01
9.97164111e-01
9.97161649e-01
9.97159308e-01
9.97157155e-01
9.97155269e-01
9.97153909e-01
9.97153265e-01
9.97153486e-01
9.97154777e-01
9.97157351e-01
9.97161401e-01
9.97167120e-01
9.97174702e-01
9.97184333e-01
9.97196189e-01
9.97210439e-01
9.97227239e-01
9.97246737e-01
9.97269067e-01
9.97294353e-01
9.97322706e-01
9.97354223e-01
9.97388993e-01
9.97427089e-01
9.97468574e-01
9.97513497e-01
9.97561898e-01
9.97613801e-01
9.97669220e-01
9.97728157e-01
9.97790599e-01
9.97856521e-01
9.97925885e-01
9.97998639e-01
9.98074717e-01
9.98154041e-01
9.98236516e-01
9.98322038e-01
9.98410486e-01
9.98501729e-01
9.98595624e-01
9.98692019e-01
9.98790750e-01
9.98891649e-01
9.98994540e-01
9.99099243e-01
9.99205576e-01
9.99313356e-01
9.99422403e-01
9.99532539e-01
9.99643588e-01
9.99755385e-01
9.99867768e-01
9.99980585e-01
1.00009369e+00
1.00020695e+00
1.00032024e+00
1.00043344e+00
1.00054645e+00
1.00065915e+00
1.00077145e+00
1.00088326e+00
1.00099449e+00
1.00110505e+00
1.00121485e+00
1.00132380e+00
1.00143181e+00
1.00153877e+00
1.00164458e+00
1.00174913e+00
1.00185229e+00
1.00195393e+00
1.00205390e+00
1.00215207e+00
1.00224826e+00
1.00234230e+00
1.00243403e+00
1.00252325e+00
1.00260977e+00
1.00269341e+00
1.00277398e+00
1.00285128e+00
1.00292512e+00
1.00299532e+00
1.00306170e+00
1.00312412e+00
1.00318241e+00
1.00323644e+00
1.00328611e+00
1.00333131e+00
1.00337199e+00
1.00340808e+00
1.00343958e+00
1.00346649e+00
1.00348885e+00
1.00350672e+00
1.00352020e+00
1.00352942e+00
1.00353453e+00
1.00353571e+00
1.00353317e+00
1.00352715e+00
1.00351790e+00
1.00350571e+00
1.00349089e+00
1.00347373e+00
1.00345459e+00
1.00343381e+00
1.00341172e+00
1.00338870e+00
1.00336510e+00
1.00334127e+00
1.00331755e+00
1.00329431e+00
1.00327189e+00
1.00325049e+00
1.00323047e+00
1.00321224e+00
1.00319585e+00
1.00318140e+00
1.00316954e+00
1.00316025e+00
1.00315314e+00
1.00314859e+00
9.97170047e-01
9.97168640e-01
9.97166993e-01
9.97165082e-01
9.97162908e-01
9.97160699e-01
9.97158564e-01
9.97156572e-01
9.97154958e-01
9.97153905e-01
9.97153546e-01
9.97154080e-01
9.97155721e-01
9.97158659e-01
9.97163084e-01
9.97169194e-01
9.97177182e-01
9.97187228e-01
9.97199508e-01
9.97214186e-01
9.97231418e-01
9.97251348e-01
9.97274108e-01
9.97299816e-01
9.97328580e-01
9.97360495e-01
9.97395644e-01
9.97434096e-01
9.97475910e-01
9.97521132e-01
9.97569796e-01
9.97621922e-01
9.97677521e-01
9.97736590e-01
9.97799113e-01
9.97865063e-01
9.97934399e-01
9.98007068e-01
9.98083001e-01
9.98162121e-01
9.98244334e-01
9.98329536e-01
9.98417607e-01
9.98508421e-01
9.98601837e-01
9.98697706e-01
9.98795870e-01
9.98896166e-01
9.98998421e-01
9.99102464e-01
9.99208116e-01
9.99315202e-01
9.99423547e-01
9.99532977e-01
9.99643323e-01
9.99754424e-01
9.99866122e-01
9.99978270e-01
1.00009072e+00
1.00020335e+00
1.00031604e+00
1.00042865e+00
1.00054109e+00
1.00065326e+00
1.00076505e+00
1.00087637e+00
1.00098713e+00
1.00109724e+00
1.00120661e+00
1.00131516e+00
1.00142277e+00
1.00152936e+00
1.00163481e+00
1.00173902e+00
1.00184185e+00
1.00194317e+00
1.00204285e+00
1.00214074e+00
1.00223667e+00
1.00233047e+00
1.00242198e+00
1.00251101e+00
1.00259737e+00
1.00268088e+00
1.00276135e+00
1.00283858e+00
1.00291240e+00
1.00298262e+00
1.00304908e+00
1.00311161e+00
1.00317007e+00
1.00322433e+00
1.00327427e+00
1.00331980e+00
1.00336086e+00
1.00339739e+00
1.00342939e+00
1.00345685e+00
1.00347981e+00
1.00349833e+00
1.00351252e+00
1.00352248e+00
1.00352838e+00
1.00353038e+00
1.00352871e+00
1.00352358e+00
1.00351525e+00
1.00350399e+00
1.00349012e+00
1.00347392e+00
1.00345574e+00
1.00343591e+00
1.00341478e+00
1.00339269e+00
1.00336999e+00
1.00334705e+00
1.00332419e+00
1.00330173e+00
1.00328002e+00
1.00325941e+00
1.00324007e+00
1.00322227e+00
1.00320642e+00
1.00319260e+00
1.00318093e+00
1.00317172e+00
1.00316501e+00
1.00316070e+00
9.97168534e-01
9.97167145e-01
9.97165529e-01
9.97163653e-01
9.97161639e-01
9.97159623e-01
9.97157646e-01
9.97155912e-01
9.97154604e-01
9.97153835e-01
9.97153793e-01
9.97154694e-01
9.97156715e-01
9.97160042e-01
9.97164882e-01
9.97171426e-01
9.97179859e-01
9.97190361e-01
9.97203107e-01
9.97218257e-01
9.97235963e-01
9.97256367e-01
9.97279596e-01
9.97305765e-01
9.97334979e-01
9.97367327e-01
9.97402887e-01
9.97441726e-01
9.97483896e-01
9.97529439e-01
9.97578384e-01
9.97630747e-01
9.97686535e-01
9.97745741e-01
9.97808345e-01
9.97874317e-01
9.97943615e-01
9.98016181e-01
9.98091949e-01
9.98170839e-01
9.98252758e-01
9.98337603e-01
9.98425259e-01
9.98515599e-01
9.98608487e-01
9.98703779e-01
9.98801321e-01
9.98900956e-01
9.99002518e-01
9.99105839e-01
9.99210749e-01
9.99317078e-01
9.99424657e-01
9.99533319e-01
9.99642900e-01
9.99753243e-01
9.99864196e-01
9.99975615e-01
1.00008736e+00
1.00019930e+00
1.00031132e+00
1.00042330e+00
1.00053513e+00
1.00064671e+00
1.00075794e+00
1.00086872e+00
1.00097897e+00
1.00108860e+00
1.00119751e+00
1.00130560e+00
1.00141279e+00
1.00151897e+00
1.00162403e+00
1.00172786e+00
1.00183033e+00
1.00193131e+00
1.00203066e+00
1.00212824e+00
1.00222389e+00
1.00231743e+00
1.00240870e+00
1.00249752e+00
1.00258370e+00
1.00266707e+00
1.00274743e+00
1.00282460e+00
1.00289840e+00
1.00296865e+00
1.00303519e+00
1.00309785e+00
1.00315649e+00
1.00321099e+00
1.00326124e+00
1.00330713e+00
1.00334861e+00
1.00338563e+00
1.00341817e+00
1.00344623e+00
1.00346986e+00
1.00348910e+00
1.00350406e+00
1.00351484e+00
1.00352161e+00
1.00352452e+00
1.00352379e+00
1.00351964e+00
1.00351232e+00
1.00350210e+00
1.00348926e+00
1.00347413e+00
1.00345700e+00
1.00343822e+00
1.00341813e+00
1.00339707e+00
1.00337537e+00
1.00335337e+00
1.00333145e+00
1.00330990e+00
1.00328900e+00
1.00326912e+00
1.00325053e+00
1.00323339e+00
1.00321801e+00
1.00320470e+00
1.00319344e+00
1.00318446e+00
1.00317796e+00
1.00317376e+00
9.97166976e-01
9.97165577e-01
9.97163990e-01
9.97162241e-01
9.97160387e-01
9.97158513e-01
9.97156766e-01
9.97155325e-01
9.97154295e-01
9.97153843e-01
9.97154173e-01
9.97155458e-01
9.97157879e-01
9.97161638e-01
9.97166931e-01
9.97173942e-01
9.97182857e-01
9.97193854e-01
9.97207103e-01
9.97222764e-01
9.97240983e-01
9.97261897e-01
9.97285632e-01
9.97312297e-01
9.97341993e-01
9.97374804e-01
9.97410804e-01
9.97450053e-01
9.97492601e-01
9.97538482e-01
9.97587722e-01
9.97640332e-01
9.97696314e-01
9.97755657e-01
9.97818338e-01
9.97884324e-01
9.97953568e-01
9.98026014e-01
9.98101594e-01
9.98180226e-01
9.98261819e-01
9.98346271e-01
9.98433470e-01
9.98523292e-01
9.98615605e-01
9.98710269e-01
9.98807137e-01
9.98906055e-01
9.99006865e-01
9.99109406e-01
9.99213515e-01
9.99319026e-01
9.99425779e-01
9.99533611e-01
9.99642367e-01
9.99751892e-01
9.99862041e-01
9.99972672e-01
1.00008365e+00
1.00019485e+00
1.00030615e+00
1.00041744e+00
1.00052861e+00
1.00063955e+00
1.00075017e+00
1.00086038e+00
1.00097007e+00
1.00107916e+00
1.00118756e+00
1.00129517e+00
1.00140189e+00
1.00150762e+00
1.00161225e+00
1.00171567e+00
1.00181775e+00
1.00191835e+00
1.00201735e+00
1.00211459e+00
1.00220992e+00
1.00230318e+00
1.00239419e+00
1.00248278e+00
1.00256877e+00
1.00265198e+00
1.00273222e+00
1.00280932e+00
1.00288309e+00
1.00295337e+00
1.00301998e+00
1.00308278e+00
1.00314163e+00
1.00319639e+00
1.00324696e+00
1.00329324e+00
1.00333518e+00
1.00337272e+00
1.00340585e+00
1.00343456e+00
1.00345890e+00
1.00347892e+00
1.00349471e+00
1.00350639e+00
1.00351409e+00
1.00351800e+00
1.00351829e+00
1.00351520e+00
1.00350897e+00
1.00349987e+00
1.00348817e+00
1.00347417e+00
1.00345819e+00
1.00344055e+00
1.00342158e+00
1.00340163e+00
1.00338102e+00
1.00336007e+00
1.00333913e+00
1.00331854e+00
1.00329857e+00
1.00327949e+00
1.00326163e+00
1.00324525e+00
1.00323047e+00
1.00321756e+00
1.00320677e+00
1.00319818e+00
1.00319181e+00
1.00318768e+00
9.97165479e-01
9.97164133e-01
9.97162599e-01
9.97160958e-01
9.97159244e-01
9.97157570e-01
9.97156091e-01
9.97154919e-01
9.97154193e-01
9.97154108e-01
9.97154823e-01
9.97156509e-01
9.97159369e-01
9.97163594e-01
9.97169367e-01
9.97176877e-01
9.97186309e-01
9.97197836e-01
9.97211623e-01
9.97227827e-01
9.97246592e-01
9.97268050e-01
9.97292321e-01
9.97319512e-01
9.97349716e-01
9.97383015e-01
9.97419477e-01
9.97459157e-01
9.97502098e-01
9.97548330e-01
9.97597874e-01
9.97650736e-01
9.97706913e-01
9.97766390e-01
9.97829140e-01
9.97895127e-01
9.97964303e-01
9.98036608e-01
9.98111974e-01
9.98190319e-01
9.98271553e-01
9.98355576e-01
9.98442277e-01
9.98531537e-01
9.98623228e-01
9.98717215e-01
9.98813356e-01
9.98911504e-01
9.99011507e-01
9.99113211e-01
9.99216460e-01
9.99321095e-01
9.99426962e-01
9.99533906e-01
9.99641776e-01
9.99750425e-01
9.99859711e-01
9.99969498e-01
1.00007966e+00
1.00019006e+00
1.00030059e+00
1.00041113e+00
1.00052158e+00
1.00063184e+00
1.00074181e+00
1.00085138e+00
1.00096047e+00
1.00106899e+00
1.00117683e+00
1.00128391e+00
1.00139012e+00
1.00149536e+00
1.00159952e+00
1.00170249e+00
1.00180413e+00
1.00190433e+00
1.00200293e+00
1.00209981e+00
1.00219479e+00
1.00228773e+00
1.00237845e+00
1.00246679e+00
1.00255256e+00
1.00263559e+00
1.00271570e+00
1.00279271e+00
1.00286645e+00
1.00293674e+00
1.00300344e+00
1.00306638e+00
1.00312542e+00
1.00318046e+00
1.00323136e+00
1.00327806e+00
1.00332048e+00
1.00335858e+00
1.00339233e+00
1.00342174e+00
1.00344684e+00
1.00346768e+00
1.00348436e+00
1.00349699e+00
1.00350569e+00
1.00351065e+00
1.00351204e+00
1.00351009e+00
1.00350503e+00
1.00349712e+00
1.00348663e+00
1.00347385e+00
1.00345910e+00
1.00344268e+00
1.00342493e+00
1.00340615e+00
1.00338669e+00
1.00336688e+00
1.00334702e+00
1.00332742e+00
1.00330842e+00
1.00329027e+00
1.00327320e+00
1.00325752e+00
1.00324343e+00
1.00323107e+00
1.00322070e+00
1.00321245e+00
1.00320631e+00
1.00320239e+00
9.97164209e-01
9.97162924e-01
9.97161480e-01
9.97159955e-01
9.97158408e-01
9.97156965e-01
9.97155740e-01
9.97154860e-01
9.97154485e-01
9.97154775e-01
9.97155888e-01
9.97158015e-01
9.97161343e-01
9.97166054e-01
9.97172337e-01
9.97180380e-01
9.97190358e-01
9.97202444e-01
9.97216799e-01
9.97233576e-01
9.97252914e-01
9.97274942e-01
9.97299775e-01
9.97327515e-01
9.97358251e-01
9.97392057e-01
9.97428997e-01
9.97469121e-01
9.97512466e-01
9.97559057e-01
9.97608908e-01
9.97662022e-01
9.97718391e-01
9.97777994e-01
9.97840803e-01
9.97906776e-01
9.97975864e-01
9.98048005e-01
9.98123130e-01
9.98201158e-01
9.98281999e-01
9.98365555e-01
9.98451718e-01
9.98540373e-01
9.98631396e-01
9.98724657e-01
9.98820021e-01
9.98917346e-01
9.99016488e-01
9.99117300e-01
9.99219632e-01
9.99323335e-01
9.99428259e-01
9.99534257e-01
9.99641185e-01
9.99748900e-01
9.99857267e-01
9.99966153e-01
1.00007543e+00
1.00018498e+00
1.00029469e+00
1.00040443e+00
1.00051412e+00
1.00062364e+00
1.00073289e+00
1.00084179e+00
1.00095023e+00
1.00105812e+00
1.00116537e+00
1.00127187e+00
1.00137752e+00
1.00148223e+00
1.00158587e+00
1.00168834e+00
1.00178952e+00
1.00188926e+00
1.00198744e+00
1.00208390e+00
1.00217851e+00
1.00227109e+00
1.00236150e+00
1.00244955e+00
1.00253507e+00
1.00261790e+00
1.00269785e+00
1.00277475e+00
1.00284844e+00
1.00291874e+00
1.00298551e+00
1.00304858e+00
1.00310784e+00
1.00316314e+00
1.00321440e+00
1.00326153e+00
1.00330444e+00
1.00334312e+00
1.00337752e+00
1.00340766e+00
1.00343356e+00
1.00345527e+00
1.00347289e+00
1.00348651e+00
1.00349628e+00
1.00350235e+00
1.00350490e+00
1.00350415e+00
1.00350032e+00
1.00349367e+00
1.00348447e+00
1.00347299e+00
1.00345954e+00
1.00344441e+00
1.00342794e+00
1.00341043e+00
1.00339219e+00
1.00337356e+00
1.00335485e+00
1.00333635e+00
1.00331834e+00
1.00330114e+00
1.00328497e+00
1.00327004e+00
1.00325662e+00
1.00324490e+00
1.00323499e+00
1.00322708e+00
1.00322124e+00
1.00321753e+00
9.97163361e-01
9.97162154e-01
9.97160802e-01
9.97159410e-01
9.97158056e-01
9.97156849e-01
9.97155895e-01
9.97155340e-01
9.97155329e-01
9.97156007e-01
9.97157550e-01
9.97160141e-01
9.97163956e-01
9.97169180e-01
9.97176002e-01
9.97184601e-01
9.97195151e-01
9.97207820e-01
9.97222768e-01
9.97240142e-01
9.97260077e-01
9.97282697e-01
9.97308112e-01
9.97336419e-01
9.97367701e-01
9.97402028e-01
9.97439457e-01
9.97480033e-01
9.97523786e-01
9.97570738e-01
9.97620895e-01
9.97674257e-01
9.97730808e-01
9.97790527e-01
9.97853378e-01
9.97919319e-01
9.97988296e-01
9.98060248e-01
9.98135104e-01
9.98212782e-01
9.98293195e-01
9.98376246e-01
9.98461831e-01
9.98549838e-01
9.98640147e-01
9.98732636e-01
9.98827173e-01
9.98923625e-01
9.99021855e-01
9.99121721e-01
9.99223083e-01
9.99325798e-01
9.99429724e-01
9.99534721e-01
9.99640651e-01
9.99747377e-01
9.99854769e-01
9.99962700e-01
1.00007104e+00
1.00017969e+00
1.00028851e+00
1.00039741e+00
1.00050627e+00
1.00061500e+00
1.00072350e+00
1.00083167e+00
1.00093940e+00
1.00104662e+00
1.00115321e+00
1.00125909e+00
1.00136414e+00
1.00146826e+00
1.00157135e+00
1.00167328e+00
1.00177393e+00
1.00187318e+00
1.00197088e+00
1.00206690e+00
1.00216108e+00
1.00225328e+00
1.00234332e+00
1.00243105e+00
1.00251630e+00
1.00259889e+00
1.00267866e+00
1.00275543e+00
1.00282905e+00
1.00289934e+00
1.00296616e+00
1.00302936e+00
1.00308881e+00
1.00314440e+00
1.00319601e+00
1.00324356e+00
1.00328699e+00
1.00332626e+00
1.00336133e+00
1.00339222e+00
1.00341895e+00
1.00344157e+00
1.00346016e+00
1.00347483e+00
1.00348570e+00
1.00349293e+00
1.00349669e+00
1.00349720e+00
1.00349467e+00
1.00348934e+00
1.00348148e+00
1.00347136e+00
1.00345927e+00
1.00344551e+00
1.00343038e+00
1.00341419e+00
1.00339725e+00
1.00337987e+00
1.00336235e+00
1.00334500e+00
1.00332807e+00
1.00331185e+00
1.00329660e+00
1.00328251e+00
1.00326981e+00
1.00325870e+00
1.00324932e+00
1.00324181e+00
1.00323626e+00
1.00323277e+00
9.97163104e-01
9.97161988e-01
9.97160749e-01
9.97159513e-01
9.97158362e-01
9.97157402e-01
9.97156747e-01
9.97156533e-01
9.97156894e-01
9.97157988e-01
9.97159984e-01
9.97163054e-01
9.97167377e-01
9.97173140e-01
9.97180521e-01
9.97189696e-01
9.97200840e-01
9.97214115e-01
9.97229675e-01
9.97247664e-01
9.97268213e-01
9.97291440e-01
9.97317451e-01
9.97346336e-01
9.97378174e-01
9.97413029e-01
9.97450952e-01
9.97491981e-01
9.97536142e-01
9.97583450e-01
9.97633907e-01
9.97687505e-01
9.97744227e-01
9.97804044e-01
9.97866919e-01
9.97932805e-01
9.98001647e-01
9.98073381e-01
9.98147936e-01
9.98225232e-01
9.98305181e-01
9.98387689e-01
9.98472655e-01
9.98559971e-01
9.98649523e-01
9.98741192e-01
9.98834856e-01
9.98930386e-01
9.99027653e-01
9.99126523e-01
9.99226863e-01
9.99328538e-01
9.99431414e-01
9.99535356e-01
9.99640234e-01
9.99745917e-01
9.99852281e-01
9.99959201e-01
1.00006656e+00
1.00017424e+00
1.00028213e+00
1.00039012e+00
1.00049812e+00
1.00060600e+00
1.00071369e+00
1.00082107e+00
1.00092805e+00
1.00103454e+00
1.00114043e+00
1.00124562e+00
1.00135002e+00
1.00145351e+00
1.00155599e+00
1.00165733e+00
1.00175741e+00
1.00185612e+00
1.00195330e+00
1.00204882e+00
1.00214254e+00
1.00223430e+00
1.00232395e+00
1.00241132e+00
1.00249625e+00
1.00257857e+00
1.00265812e+00
1.00273474e+00
1.00280825e+00
1.00287851e+00
1.00294537e+00
1.00300868e+00
1.00306832e+00
1.00312417e+00
1.00317613e+00
1.00322411e+00
1.00326806e+00
1.00330792e+00
1.00334368e+00
1.00337534e+00
1.00340292e+00
1.00342647e+00
1.00344607e+00
1.00346181e+00
1.00347382e+00
1.00348225e+00
1.00348727e+00
1.00348908e+00
1.00348789e+00
1.00348395e+00
1.00347749e+00
1.00346878e+00
1.00345811e+00
1.00344577e+00
1.00343204e+00
1.00341722e+00
1.00340164e+00
1.00338556e+00
1.00336929e+00
1.00335313e+00
1.00333733e+00
1.00332215e+00
1.00330784e+00
1.00329463e+00
1.00328270e+00
1.00327223e+00
1.00326340e+00
1.00325633e+00
1.00325109e+00
1.00324784e+00
9.97163639e-01
9.97162634e-01
9.97161518e-01
9.97160449e-01
9.97159515e-01
9.97158821e-01
9.97158481e-01
9.97158619e-01
9.97159373e-01
9.97160901e-01
9.97163364e-01
9.97166932e-01
9.97171785e-01
9.97178102e-01
9.97186058e-01
9.97195829e-01
9.97207583e-01
9.97221478e-01
9.97237665e-01
9.97256282e-01
9.97277456e-01
9.97301300e-01
9.97327914e-01
9.97357383e-01
9.97389780e-01
9.97425163e-01
9.97463577e-01
9.97505055e-01
9.97549617e-01
9.97597271e-01
9.97648015e-01
9.97701835e-01
9.97758708e-01
9.97818603e-01
9.97881478e-01
9.97947283e-01
9.98015962e-01
9.98087448e-01
9.98161670e-01
9.98238547e-01
9.98317996e-01
9.98399922e-01
9.98484228e-01
9.98570811e-01
9.98659562e-01
9.98750367e-01
9.98843111e-01
9.98937673e-01
9.99033929e-01
9.99131755e-01
9.99231024e-01
9.99331609e-01
9.99433383e-01
9.99536219e-01
9.99639994e-01
9.99744583e-01
9.99849866e-01
9.99955724e-01
1.00006204e+00
1.00016871e+00
1.00027561e+00
1.00038265e+00
1.00048971e+00
1.00059670e+00
1.00070352e+00
1.00081006e+00
1.00091624e+00
1.00102194e+00
1.00112707e+00
1.00123154e+00
1.00133522e+00
1.00143803e+00
1.00153984e+00
1.00164054e+00
1.00174000e+00
1.00183811e+00
1.00193472e+00
1.00202970e+00
1.00212291e+00
1.00221419e+00
1.00230339e+00
1.00239036e+00
1.00247493e+00
1.00255694e+00
1.00263624e+00
1.00271266e+00
1.00278604e+00
1.00285624e+00
1.00292311e+00
1.00298651e+00
1.00304631e+00
1.00310241e+00
1.00315470e+00
1.00320311e+00
1.00324757e+00
1.00328803e+00
1.00332448e+00
1.00335692e+00
1.00338536e+00
1.00340985e+00
1.00343047e+00
1.00344731e+00
1.00346049e+00
1.00347015e+00
1.00347647e+00
1.00347962e+00
1.00347981e+00
1.00347728e+00
1.00347226e+00
1.00346502e+00
1.00345581e+00
1.00344493e+00
1.00343266e+00
1.00341927e+00
1.00340507e+00
1.00339035e+00
1.00337539e+00
1.00336045e+00
1.00334582e+00
1.00333173e+00
1.00331842e+00
1.00330610e+00
1.00329497e+00
1.00328519e+00
1.00327692e+00
1.00327030e+00
1.00326540e+00
1.00326243e+00
9.97165164e-01
9.97164280e-01
9.97163304e-01
9.97162416e-01
9.97161714e-01
9.97161300e-01
9.97161284e-01
9.97161790e-01
9.97162955e-01
9.97164929e-01
9.97167872e-01
9.97171956e-01
9.97177352e-01
9.97184236e-01
9.97192782e-01
9.97203161e-01
9.97215536e-01
9.97230062e-01
9.97246884e-01
9.97266137e-01
9.97287941e-01
9.97312404e-01
9.97339622e-01
9.97369674e-01
9.97402626e-01
9.97438531e-01
9.97477428e-01
9.97519344e-01
9.97564293e-01
9.97612278e-01
9.97663289e-01
9.97717310e-01
9.97774313e-01
9.97834260e-01
9.97897107e-01
9.97962802e-01
9.98031285e-01
9.98102490e-01
9.98176343e-01
9.98252767e-01
9.98331676e-01
9.98412981e-01
9.98496587e-01
9.98582396e-01
9.98670303e-01
9.98760202e-01
9.98851981e-01
9.98945529e-01
9.99040729e-01
9.99137464e-01
9.99235615e-01
9.99335062e-01
9.99435687e-01
9.99537369e-01
9.99639992e-01
9.99743436e-01
9.99847588e-01
9.99952333e-01
1.00005756e+00
1.00016316e+00
1.00026902e+00
1.00037505e+00
1.00048113e+00
1.00058717e+00
1.00069306e+00