# vtk DataFile Version 2.0
LBM Flow Field - Timestep 1250
ASCII
DATASET STRUCTURED_POINTS
DIMENSIONS 128 128 1
ORIGIN 0.0 0.0 0.0
SPACING 1.0 1.0 1.0
POINT_DATA 16384
SCALARS density double 1
LOOKUP_TABLE default
9.98090573e-01
9.98090573e-01
9.98091068e-01
9.98096429e-01
9.98103448e-01
9.98111135e-01
9.98121098e-01
9.98133322e-01
9.98147228e-01
9.98163095e-01
9.98181402e-01
9.98202173e-01
9.98225469e-01
9.98251559e-01
9.98280660e-01
9.98312900e-01
9.98348451e-01
9.98387498e-01
9.98430183e-01
9.98476618e-01
9.98526903e-01
9.98581107e-01
9.98639251e-01
9.98701322e-01
9.98767262e-01
9.98836968e-01
9.98910288e-01
9.98987024e-01
9.99066929e-01
9.99149712e-01
9.99235037e-01
9.99322527e-01
9.99411767e-01
9.99502306e-01
9.99593659e-01
9.99685314e-01
9.99776729e-01
9.99867335e-01
9.99956539e-01
1.00004372e+00
1.00012825e+00
1.00020946e+00
1.00028667e+00
1.00035919e+00
1.00042631e+00
1.00048734e+00
1.00054158e+00
1.00058836e+00
1.00062708e+00
1.00065716e+00
1.00067815e+00
1.00068967e+00
1.00069150e+00
1.00068357e+00
1.00066598e+00
1.00063903e+00
1.00060319e+00
1.00055918e+00
1.00050788e+00
1.00045035e+00
1.00038783e+00
1.00032168e+00
1.00025335e+00
1.00018435e+00
1.00011620e+00
1.00005040e+00
9.99988359e-01
9.99931396e-01
9.99880684e-01
9.99837234e-01
9.99801872e-01
9.99775238e-01
9.99757774e-01
9.99749734e-01
9.99751192e-01
9.99762056e-01
9.99782086e-01
9.99810912e-01
9.99848058e-01
9.99892959e-01
9.99944981e-01
1.00000344e+00
1.00006763e+00
1.00013680e+00
1.00021022e+00
1.00028715e+00
1.00036687e+00
1.00044869e+00
1.00053193e+00
1.00061596e+00
1.00070019e+00
1.00078405e+00
1.00086704e+00
1.00094870e+00
1.00102861e+00
1.00110640e+00
1.00118176e+00
1.00125442e+00
1.00132414e+00
1.00139074e+00
1.00145410e+00
1.00151411e+00
1.00157071e+00
1.00162387e+00
1.00167359e+00
1.00171990e+00
1.00176286e+00
1.00180254e+00
1.00183904e+00
1.00187246e+00
1.00190293e+00
1.00193057e+00
1.00195552e+00
1.00197792e+00
1.00199794e+00
1.00201565e+00
1.00203125e+00
1.00204495e+00
1.00205678e+00
1.00206673e+00
1.00207523e+00
1.00208261e+00
1.00208810e+00
1.00209168e+00
1.00209543e+00
1.00209844e+00
1.00209458e+00
1.00209083e+00
9.98091009e-01
9.98093822e-01
9.98096516e-01
9.98101434e-01
9.98108520e-01
9.98116809e-01
9.98126989e-01
9.98139166e-01
9.98153353e-01
9.98169562e-01
9.98188077e-01
9.98209054e-01
9.98232639e-01
9.98259002e-01
9.98288342e-01
9.98320831e-01
9.98356633e-01
9.98395908e-01
9.98438799e-01
9.98485424e-01
9.98535874e-01
9.98590210e-01
9.98648456e-01
9.98710596e-01
9.98776570e-01
9.98846275e-01
9.98919559e-01
9.98996226e-01
9.99076030e-01
9.99158681e-01
9.99243845e-01
9.99331148e-01
9.99420174e-01
9.99510474e-01
9.99601565e-01
9.99692930e-01
9.99784028e-01
9.99874288e-01
9.99963114e-01
1.00004989e+00
1.00013397e+00
1.00021469e+00
1.00029138e+00
1.00036334e+00
1.00042989e+00
1.00049031e+00
1.00054394e+00
1.00059013e+00
1.00062826e+00
1.00065780e+00
1.00067830e+00
1.00068941e+00
1.00069092e+00
1.00068278e+00
1.00066510e+00
1.00063818e+00
1.00060251e+00
1.00055877e+00
1.00050786e+00
1.00045081e+00
1.00038883e+00
1.00032326e+00
1.00025553e+00
1.00018711e+00
1.00011950e+00
1.00005415e+00
9.99992473e-01
9.99935753e-01
9.99885153e-01
9.99841674e-01
9.99806141e-01
9.99779195e-01
9.99761285e-01
9.99752675e-01
9.99753453e-01
9.99763542e-01
9.99782719e-01
9.99810632e-01
9.99846821e-01
9.99890738e-01
9.99941766e-01
9.99999237e-01
1.00006245e+00
1.00013067e+00
1.00020319e+00
1.00027927e+00
1.00035820e+00
1.00043928e+00
1.00052187e+00
1.00060532e+00
1.00068905e+00
1.00077250e+00
1.00085516e+00
1.00093658e+00
1.00101634e+00
1.00109406e+00
1.00116943e+00
1.00124218e+00
1.00131206e+00
1.00137889e+00
1.00144253e+00
1.00150287e+00
1.00155984e+00
1.00161340e+00
1.00166356e+00
1.00171032e+00
1.00175375e+00
1.00179390e+00
1.00183087e+00
1.00186476e+00
1.00189569e+00
1.00192377e+00
1.00194915e+00
1.00197196e+00
1.00199235e+00
1.00201046e+00
1.00202644e+00
1.00204043e+00
1.00205254e+00
1.00206291e+00
1.00207175e+00
1.00207911e+00
1.00208490e+00
1.00208932e+00
1.00209296e+00
1.00209524e+00
1.00209429e+00
1.00209486e+00
9.98094175e-01
9.98099171e-01
9.98105760e-01
9.98110331e-01
9.98116548e-01
9.98125660e-01
9.98136381e-01
9.98148514e-01
9.98162897e-01
9.98179571e-01
9.98198393e-01
9.98219622e-01
9.98243559e-01
9.98270293e-01
9.98299963e-01
9.98332785e-01
9.98368933e-01
9.98408535e-01
9.98451729e-01
9.98498640e-01
9.98549353e-01
9.98603918e-01
9.98662360e-01
9.98724661e-01
9.98790760e-01
9.98860551e-01
9.98933885e-01
9.99010565e-01
9.99090348e-01
9.99172945e-01
9.99258026e-01
9.99345216e-01
9.99434103e-01
9.99524238e-01
9.99615137e-01
9.99706285e-01
9.99797136e-01
9.99887119e-01
9.99975635e-01
1.00006206e+00
1.00014576e+00
1.00022605e+00
1.00030228e+00
1.00037373e+00
1.00043973e+00
1.00049957e+00
1.00055260e+00
1.00059816e+00
1.00063567e+00
1.00066460e+00
1.00068451e+00
1.00069507e+00
1.00069608e+00
1.00068751e+00
1.00066947e+00
1.00064226e+00
1.00060638e+00
1.00056251e+00
1.00051152e+00
1.00045445e+00
1.00039249e+00
1.00032695e+00
1.00025924e+00
1.00019081e+00
1.00012313e+00
1.00005765e+00
9.99995743e-01
9.99938697e-01
9.99887659e-01
9.99843627e-01
9.99807426e-01
9.99779699e-01
9.99760904e-01
9.99751315e-01
9.99751033e-01
9.99759995e-01
9.99777994e-01
9.99804693e-01
9.99839649e-01
9.99882329e-01
9.99932131e-01
9.99988402e-01
1.00005045e+00
1.00011757e+00
1.00018904e+00
1.00026414e+00
1.00034218e+00
1.00042247e+00
1.00050436e+00
1.00058721e+00
1.00067045e+00
1.00075352e+00
1.00083592e+00
1.00091719e+00
1.00099691e+00
1.00107470e+00
1.00115024e+00
1.00122325e+00
1.00129349e+00
1.00136076e+00
1.00142490e+00
1.00148581e+00
1.00154340e+00
1.00159763e+00
1.00164848e+00
1.00169595e+00
1.00174010e+00
1.00178098e+00
1.00181866e+00
1.00185325e+00
1.00188486e+00
1.00191360e+00
1.00193962e+00
1.00196303e+00
1.00198397e+00
1.00200264e+00
1.00201914e+00
1.00203354e+00
1.00204609e+00
1.00205703e+00
1.00206619e+00
1.00207355e+00
1.00208003e+00
1.00208554e+00
1.00208819e+00
1.00208950e+00
1.00209438e+00
1.00209775e+00
9.98105970e-01
9.98110455e-01
9.98115939e-01
9.98121765e-01
9.98129078e-01
9.98138017e-01
9.98148757e-01
9.98161501e-01
9.98176286e-01
9.98193188e-01
9.98212412e-01
9.98234131e-01
9.98258482e-01
9.98285637e-01
9.98315781e-01
9.98349073e-01
9.98385665e-01
9.98425709e-01
9.98469336e-01
9.98516651e-01
9.98567733e-01
9.98622636e-01
9.98681376e-01
9.98743929e-01
9.98810235e-01
9.98880186e-01
9.98953632e-01
9.99030378e-01
9.99110181e-01
9.99192758e-01
9.99277777e-01
9.99364870e-01
9.99453625e-01
9.99543596e-01
9.99634300e-01
9.99725223e-01
9.99815818e-01
9.99905514e-01
9.99993708e-01
1.00007978e+00
1.00016307e+00
1.00024293e+00
1.00031866e+00
1.00038959e+00
1.00045501e+00
1.00051424e+00
1.00056660e+00
1.00061148e+00
1.00064828e+00
1.00067648e+00
1.00069566e+00
1.00070551e+00
1.00070583e+00
1.00069660e+00
1.00067794e+00
1.00065016e+00
1.00061376e+00
1.00056941e+00
1.00051798e+00
1.00046051e+00
1.00039815e+00
1.00033222e+00
1.00026410e+00
1.00019522e+00
1.00012704e+00
1.00006099e+00
9.99998426e-01
9.99940626e-01
9.99888732e-01
9.99843738e-01
9.99806469e-01
9.99777573e-01
9.99757517e-01
9.99746586e-01
9.99744893e-01
9.99752392e-01
9.99768889e-01
9.99794067e-01
9.99827499e-01
9.99868667e-01
9.99916987e-01
9.99971819e-01
1.00003249e+00
1.00009830e+00
1.00016854e+00
1.00024252e+00
1.00031954e+00
1.00039892e+00
1.00048002e+00
1.00056221e+00
1.00064493e+00
1.00072761e+00
1.00080977e+00
1.00089092e+00
1.00097065e+00
1.00104860e+00
1.00112441e+00
1.00119781e+00
1.00126854e+00
1.00133641e+00
1.00140123e+00
1.00146290e+00
1.00152130e+00
1.00157639e+00
1.00162814e+00
1.00167654e+00
1.00172163e+00
1.00176345e+00
1.00180207e+00
1.00183758e+00
1.00187008e+00
1.00189968e+00
1.00192652e+00
1.00195073e+00
1.00197244e+00
1.00199179e+00
1.00200894e+00
1.00202402e+00
1.00203715e+00
1.00204847e+00
1.00205820e+00
1.00206634e+00
1.00207288e+00
1.00207820e+00
1.00208246e+00
1.00208528e+00
1.00208847e+00
1.00209107e+00
9.98121908e-01
9.98125665e-01
9.98130132e-01
9.98137049e-01
9.98145023e-01
9.98153854e-01
9.98164908e-01
9.98178259e-01
9.98193431e-01
9.98210690e-01
9.98230440e-01
9.98252716e-01
9.98277585e-01
9.98305290e-01
9.98336022e-01
9.98369895e-01
9.98407057e-01
9.98447666e-01
9.98491839e-01
9.98539666e-01
9.98591225e-01
9.98646562e-01
9.98705686e-01
9.98768569e-01
9.98835147e-01
9.98905311e-01
9.98978911e-01
9.99055751e-01
9.99135593e-01
9.99218154e-01
9.99303109e-01
9.99390089e-01
9.99478690e-01
9.99568467e-01
9.99658940e-01
9.99749595e-01
9.99839888e-01
9.99929243e-01
1.00001706e+00
1.00010271e+00
1.00018554e+00
1.00026488e+00
1.00034005e+00
1.00041035e+00
1.00047510e+00
1.00053360e+00
1.00058519e+00
1.00062924e+00
1.00066518e+00
1.00069250e+00
1.00071079e+00
1.00071973e+00
1.00071917e+00
1.00070906e+00
1.00068956e+00
1.00066098e+00
1.00062381e+00
1.00057874e+00
1.00052661e+00
1.00046846e+00
1.00040544e+00
1.00033884e+00
1.00027002e+00
1.00020040e+00
1.00013142e+00
1.00006449e+00
1.00000095e+00
9.99942080e-01
9.99889001e-01
9.99842709e-01
9.99804032e-01
9.99773625e-01
9.99751962e-01
9.99739342e-01
9.99735892e-01
9.99741583e-01
9.99756241e-01
9.99779566e-01
9.99811149e-01
9.99850493e-01
9.99897029e-01
9.99950136e-01
1.00000916e+00
1.00007341e+00
1.00014220e+00
1.00021483e+00
1.00029064e+00
1.00036895e+00
1.00044913e+00
1.00053055e+00
1.00061266e+00
1.00069490e+00
1.00077677e+00
1.00085781e+00
1.00093759e+00
1.00101573e+00
1.00109189e+00
1.00116578e+00
1.00123713e+00
1.00130572e+00
1.00137139e+00
1.00143398e+00
1.00149339e+00
1.00154954e+00
1.00160240e+00
1.00165194e+00
1.00169818e+00
1.00174116e+00
1.00178093e+00
1.00181757e+00
1.00185118e+00
1.00188185e+00
1.00190971e+00
1.00193490e+00
1.00195756e+00
1.00197777e+00
1.00199571e+00
1.00201159e+00
1.00202547e+00
1.00203734e+00
1.00204760e+00
1.00205654e+00
1.00206363e+00
1.00206880e+00
1.00207377e+00
1.00207821e+00
1.00208022e+00
1.00208193e+00
9.98140510e-01
9.98144482e-01
9.98149652e-01
9.98156125e-01
9.98163912e-01
9.98173662e-01
9.98185310e-01
9.98198766e-01
9.98214388e-01
9.98232358e-01
9.98252665e-01
9.98275467e-01
9.98301002e-01
9.98329406e-01
9.98360796e-01
9.98395341e-01
9.98433195e-01
9.98474474e-01
9.98519283e-01
9.98567718e-01
9.98619845e-01
9.98675696e-01
9.98735273e-01
9.98798547e-01
9.98865447e-01
9.98935862e-01
9.99009641e-01
9.99086590e-01
9.99166473e-01
9.99249009e-01
9.99333877e-01
9.99420715e-01
9.99509120e-01
9.99598652e-01
9.99688835e-01
9.99779157e-01
9.99869074e-01
9.99958012e-01
1.00004536e+00
1.00013050e+00
1.00021278e+00
1.00029151e+00
1.00036601e+00
1.00043558e+00
1.00049954e+00
1.00055720e+00
1.00060789e+00
1.00065099e+00
1.00068593e+00
1.00071222e+00
1.00072945e+00
1.00073733e+00
1.00073570e+00
1.00072454e+00
1.00070401e+00
1.00067442e+00
1.00063627e+00
1.00059025e+00
1.00053720e+00
1.00047814e+00
1.00041421e+00
1.00034669e+00
1.00027691e+00
1.00020629e+00
1.00013624e+00
1.00006815e+00
1.00000336e+00
9.99943129e-01
9.99888574e-01
9.99840690e-01
9.99800305e-01
9.99768082e-01
9.99744505e-01
9.99729885e-01
9.99724367e-01
9.99727940e-01
9.99740448e-01
9.99761612e-01
9.99791043e-01
9.99828264e-01
9.99872727e-01
9.99923830e-01
9.99980931e-01
1.00004337e+00
1.00011046e+00
1.00018154e+00
1.00025594e+00
1.00033299e+00
1.00041209e+00
1.00049261e+00
1.00057400e+00
1.00065571e+00
1.00073724e+00
1.00081812e+00
1.00089794e+00
1.00097630e+00
1.00105285e+00
1.00112729e+00
1.00119935e+00
1.00126879e+00
1.00133543e+00
1.00139909e+00
1.00145966e+00
1.00151705e+00
1.00157120e+00
1.00162207e+00
1.00166967e+00
1.00171400e+00
1.00175513e+00
1.00179311e+00
1.00182802e+00
1.00185996e+00
1.00188905e+00
1.00191540e+00
1.00193913e+00
1.00196042e+00
1.00197935e+00
1.00199605e+00
1.00201075e+00
1.00202357e+00
1.00203448e+00
1.00204367e+00
1.00205156e+00
1.00205793e+00
1.00206268e+00
1.00206667e+00
1.00206963e+00
1.00207179e+00
9.98163270e-01
9.98167292e-01
9.98172806e-01
9.98179109e-01
9.98187176e-01
9.98197474e-01
9.98209447e-01
9.98223344e-01
9.98239605e-01
9.98258181e-01
9.98279084e-01
9.98302589e-01
9.98328878e-01
9.98358024e-01
9.98390174e-01
9.98425504e-01
9.98464134e-01
9.98506163e-01
9.98551698e-01
9.98600824e-01
9.98653589e-01
9.98710016e-01
9.98770104e-01
9.98833814e-01
9.98901070e-01
9.98971759e-01
9.99045728e-01
9.99122785e-01
9.99202695e-01
9.99285181e-01
9.99369926e-01
9.99456572e-01
9.99544724e-01
9.99633944e-01
9.99723760e-01
9.99813664e-01
9.99903114e-01
9.99991535e-01
1.00007832e+00
1.00016284e+00
1.00024444e+00
1.00032245e+00
1.00039616e+00
1.00046489e+00
1.00052793e+00
1.00058461e+00
1.00063426e+00
1.00067627e+00
1.00071007e+00
1.00073518e+00
1.00075121e+00
1.00075786e+00
1.00075500e+00
1.00074262e+00
1.00072088e+00
1.00069010e+00
1.00065079e+00
1.00060363e+00
1.00054947e+00
1.00048930e+00
1.00042426e+00
1.00035560e+00
1.00028466e+00
1.00021282e+00
1.00014147e+00
1.00007199e+00
1.00000571e+00
9.99943871e-01
9.99887588e-01
9.99837852e-01
9.99795496e-01
9.99761186e-01
9.99735418e-01
9.99718518e-01
9.99710649e-01
9.99711816e-01
9.99721887e-01
9.99740602e-01
9.99767596e-01
9.99802413e-01
9.99844526e-01
9.99893355e-01
9.99948277e-01
1.00000865e+00
1.00007381e+00
1.00014311e+00
1.00021588e+00
1.00029150e+00
1.00036934e+00
1.00044881e+00
1.00052934e+00
1.00061042e+00
1.00069152e+00
1.00077220e+00
1.00085202e+00
1.00093058e+00
1.00100754e+00
1.00108257e+00
1.00115539e+00
1.00122576e+00
1.00129345e+00
1.00135831e+00
1.00142018e+00
1.00147895e+00
1.00153455e+00
1.00158692e+00
1.00163604e+00
1.00168192e+00
1.00172459e+00
1.00176409e+00
1.00180049e+00
1.00183388e+00
1.00186437e+00
1.00189206e+00
1.00191705e+00
1.00193952e+00
1.00195960e+00
1.00197735e+00
1.00199294e+00
1.00200663e+00
1.00201846e+00
1.00202831e+00
1.00203664e+00
1.00204377e+00
1.00204903e+00
1.00205290e+00
1.00205640e+00
1.00205871e+00
9.98190436e-01
9.98194269e-01
9.98199488e-01
9.98206289e-01
9.98214873e-01
9.98225197e-01
9.98237590e-01
9.98252279e-01
9.98269112e-01
9.98288216e-01
9.98309889e-01
9.98334225e-01
9.98361279e-01
9.98391235e-01
9.98424262e-01
9.98460456e-01
9.98499922e-01
9.98542781e-01
9.98589121e-01
9.98638998e-01
9.98692454e-01
9.98749510e-01
9.98810149e-01
9.98874323e-01
9.98941953e-01
9.99012923e-01
9.99087078e-01
9.99164224e-01
9.99244130e-01
9.99326523e-01
9.99411089e-01
9.99497478e-01
9.99585296e-01
9.99674115e-01
9.99763466e-01
9.99852844e-01
9.99941711e-01
1.00002949e+00
1.00011559e+00
1.00019936e+00
1.00028015e+00
1.00035729e+00
1.00043007e+00
1.00049780e+00
1.00055979e+00
1.00061535e+00
1.00066382e+00
1.00070459e+00
1.00073710e+00
1.00076088e+00
1.00077555e+00
1.00078084e+00
1.00077660e+00
1.00076284e+00
1.00073974e+00
1.00070762e+00
1.00066700e+00
1.00061855e+00
1.00056310e+00
1.00050166e+00
1.00043535e+00
1.00036539e+00
1.00029311e+00
1.00021987e+00
1.00014704e+00
1.00007599e+00
1.00000803e+00
9.99944386e-01
9.99886169e-01
9.99834368e-01
9.99789817e-01
9.99753190e-01
9.99724996e-01
9.99705574e-01
9.99695103e-01
9.99693611e-01
9.99700986e-01
9.99716992e-01
9.99741287e-01
9.99773438e-01
9.99812942e-01
9.99859239e-01
9.99911731e-01
9.99969793e-01
1.00003279e+00
1.00010007e+00
1.00017101e+00
1.00024499e+00
1.00032139e+00
1.00039964e+00
1.00047918e+00
1.00055948e+00
1.00064006e+00
1.00072044e+00
1.00080019e+00
1.00087892e+00
1.00095626e+00
1.00103188e+00
1.00110549e+00
1.00117682e+00
1.00124564e+00
1.00131177e+00
1.00137503e+00
1.00143529e+00
1.00149247e+00
1.00154647e+00
1.00159728e+00
1.00164485e+00
1.00168922e+00
1.00173041e+00
1.00176847e+00
1.00180347e+00
1.00183551e+00
1.00186469e+00
1.00189113e+00
1.00191492e+00
1.00193621e+00
1.00195520e+00
1.00197192e+00
1.00198645e+00
1.00199912e+00
1.00201004e+00
1.00201901e+00
1.00202632e+00
1.00203230e+00
1.00203684e+00
1.00204014e+00
1.00204236e+00
9.98221428e-01
9.98225332e-01
9.98230605e-01
9.98237699e-01
9.98246542e-01
9.98257252e-01
9.98270248e-01
9.98285482e-01
9.98302908e-01
9.98322789e-01
9.98345276e-01
9.98370405e-01
9.98398325e-01
9.98429210e-01
9.98463157e-01
9.98500262e-01
9.98540644e-01
9.98584400e-01
9.98631589e-01
9.98682262e-01
9.98736455e-01
9.98794169e-01
9.98855377e-01
9.98920026e-01
9.98988031e-01
9.99059269e-01
9.99133583e-01
9.99210782e-01
9.99290634e-01
9.99372869e-01
9.99457180e-01
9.99543221e-01
9.99630606e-01
9.99718910e-01
9.99807671e-01
9.99896391e-01
9.99984534e-01
1.00007153e+00
1.00015677e+00
1.00023964e+00
1.00031946e+00
1.00039556e+00
1.00046724e+00
1.00053381e+00
1.00059458e+00
1.00064884e+00
1.00069597e+00
1.00073534e+00
1.00076642e+00
1.00078872e+00
1.00080189e+00
1.00080566e+00
1.00079991e+00
1.00078465e+00
1.00076006e+00
1.00072649e+00
1.00068443e+00
1.00063457e+00
1.00057773e+00
1.00051491e+00
1.00044721e+00
1.00037585e+00
1.00030211e+00
1.00022735e+00
1.00015293e+00
1.00008018e+00
1.00001040e+00
9.99944798e-01
9.99884494e-01
9.99830464e-01
9.99783546e-01
9.99744420e-01
9.99713604e-01
9.99691456e-01
9.99678172e-01
9.99673800e-01
9.99678251e-01
9.99691313e-01
9.99712669e-01
9.99741911e-01
9.99778560e-01
9.99822081e-01
9.99871898e-01
9.99927410e-01
9.99987999e-01
1.00005305e+00
1.00012193e+00
1.00019405e+00
1.00026882e+00
1.00034566e+00
1.00042403e+00
1.00050341e+00
1.00058332e+00
1.00066328e+00
1.00074287e+00
1.00082168e+00
1.00089934e+00
1.00097552e+00
1.00104989e+00
1.00112219e+00
1.00119217e+00
1.00125960e+00
1.00132432e+00
1.00138616e+00
1.00144500e+00
1.00150074e+00
1.00155334e+00
1.00160274e+00
1.00164894e+00
1.00169195e+00
1.00173181e+00
1.00176857e+00
1.00180232e+00
1.00183313e+00
1.00186113e+00
1.00188641e+00
1.00190908e+00
1.00192931e+00
1.00194725e+00
1.00196293e+00
1.00197649e+00
1.00198823e+00
1.00199808e+00
1.00200599e+00
1.00201239e+00
1.00201742e+00
1.00202093e+00
1.00202334e+00
9.98256577e-01
9.98260675e-01
9.98266269e-01
9.98273428e-01
9.98282518e-01
9.98293874e-01
9.98307408e-01
9.98323129e-01
9.98341315e-01
9.98362044e-01
9.98385314e-01
9.98411308e-01
9.98440199e-01
9.98472048e-01
9.98506947e-01
9.98545030e-01
9.98586386e-01
9.98631068e-01
9.98679138e-01
9.98730641e-01
9.98785589e-01
9.98843968e-01
9.98905746e-01
9.98970861e-01
9.99039217e-01
9.99110687e-01
9.99185114e-01
9.99262304e-01
9.99342028e-01
9.99424019e-01
9.99507974e-01
9.99593553e-01
9.99680376e-01
9.99768027e-01
9.99856049e-01
9.99943950e-01
1.00003120e+00
1.00011723e+00
1.00020144e+00
1.00028320e+00
1.00036186e+00
1.00043674e+00
1.00050713e+00
1.00057236e+00
1.00063171e+00
1.00068451e+00
1.00073012e+00
1.00076793e+00
1.00079740e+00
1.00081808e+00
1.00082961e+00
1.00083174e+00
1.00082436e+00
1.00080749e+00
1.00078132e+00
1.00074619e+00
1.00070262e+00
1.00065128e+00
1.00059299e+00
1.00052872e+00
1.00045957e+00
1.00038673e+00
1.00031149e+00
1.00023515e+00
1.00015906e+00
1.00008453e+00
1.00001285e+00
9.99945213e-01
9.99882721e-01
9.99826352e-01
9.99776943e-01
9.99735183e-01
9.99701600e-01
9.99676565e-01
9.99660296e-01
9.99652861e-01
9.99654194e-01
9.99664110e-01
9.99682315e-01
9.99708429e-01
9.99741998e-01
9.99782514e-01
9.99829425e-01
9.99882153e-01
9.99940106e-01
1.00000268e+00
1.00006929e+00
1.00013934e+00
1.00021225e+00
1.00028748e+00
1.00036449e+00
1.00044277e+00
1.00052184e+00
1.00060124e+00
1.00068053e+00
1.00075931e+00
1.00083720e+00
1.00091385e+00
1.00098894e+00
1.00106216e+00
1.00113327e+00
1.00120202e+00
1.00126820e+00
1.00133164e+00
1.00139220e+00
1.00144976e+00
1.00150422e+00
1.00155553e+00
1.00160367e+00
1.00164861e+00
1.00169038e+00
1.00172902e+00
1.00176460e+00
1.00179717e+00
1.00182683e+00
1.00185372e+00
1.00187793e+00
1.00189952e+00
1.00191869e+00
1.00193562e+00
1.00195030e+00
1.00196283e+00
1.00197349e+00
1.00198229e+00
1.00198915e+00
1.00199442e+00
1.00199841e+00
1.00200118e+00
9.98296437e-01
9.98300609e-01
9.98306339e-01
9.98313752e-01
9.98323276e-01
9.98335091e-01
9.98349141e-01
9.98365582e-01
9.98384545e-01
9.98406037e-01
9.98430188e-01
9.98457157e-01
9.98487015e-01
9.98519842e-01
9.98555764e-01
9.98594866e-01
9.98637202e-01
9.98682831e-01
9.98731806e-01
9.98784142e-01
9.98839836e-01
9.98898869e-01
9.98961195e-01
9.99026738e-01
9.99095397e-01
9.99167041e-01
9.99241509e-01
9.99318605e-01
9.99398101e-01
9.99479736e-01
9.99563209e-01
9.99648187e-01
9.99734297e-01
9.99821130e-01
9.99908236e-01
9.99995131e-01
1.00008129e+00
1.00016615e+00
1.00024912e+00
1.00032957e+00
1.00040686e+00
1.00048029e+00
1.00054919e+00
1.00061285e+00
1.00067059e+00
1.00072173e+00
1.00076564e+00
1.00080171e+00
1.00082943e+00
1.00084834e+00
1.00085810e+00
1.00085848e+00
1.00084936e+00
1.00083080e+00
1.00080297e+00
1.00076624e+00
1.00072111e+00
1.00066825e+00
1.00060848e+00
1.00054275e+00
1.00047214e+00
1.00039783e+00
1.00032107e+00
1.00024314e+00
1.00016537e+00
1.00008905e+00
1.00001545e+00
9.99945734e-01
9.99881009e-01
9.99822241e-01
9.99770271e-01
9.99725789e-01
9.99689337e-01
9.99661301e-01
9.99641916e-01
9.99631273e-01
9.99629331e-01
9.99635929e-01
9.99650801e-01
9.99673594e-01
9.99703881e-01
9.99741181e-01
9.99784968e-01
9.99834692e-01
9.99889782e-01
9.99949663e-01
1.00001376e+00
1.00008151e+00
1.00015235e+00
1.00022575e+00
1.00030119e+00
1.00037817e+00
1.00045621e+00
1.00053486e+00
1.00061369e+00
1.00069229e+00
1.00077027e+00
1.00084728e+00
1.00092297e+00
1.00099705e+00
1.00106922e+00
1.00113923e+00
1.00120686e+00
1.00127189e+00
1.00133418e+00
1.00139356e+00
1.00144994e+00
1.00150322e+00
1.00155335e+00
1.00160030e+00
1.00164408e+00
1.00168468e+00
1.00172217e+00
1.00175661e+00
1.00178806e+00
1.00181661e+00
1.00184241e+00
1.00186554e+00
1.00188607e+00
1.00190419e+00
1.00192004e+00
1.00193363e+00
1.00194510e+00
1.00195463e+00
1.00196216e+00
1.00196787e+00
1.00197218e+00
1.00197519e+00
9.98341112e-01
9.98345347e-01
9.98351155e-01
9.98358923e-01
9.98368885e-01
9.98381114e-01
9.98395787e-01
9.98412989e-01
9.98432687e-01
9.98455007e-01
9.98480114e-01
9.98508051e-01
9.98538885e-01
9.98572746e-01
9.98609713e-01
9.98649827e-01
9.98693150e-01
9.98739737e-01
9.98789602e-01
9.98842746e-01
9.98899160e-01
9.98958809e-01
9.99021631e-01
9.99087541e-01
9.99156432e-01
9.99228165e-01
9.99302575e-01
9.99379466e-01
9.99458612e-01
9.99539751e-01
9.99622592e-01
9.99706804e-01
9.99792024e-01
9.99877849e-01
9.99963839e-01
1.00004952e+00
1.00013437e+00
1.00021783e+00
1.00029933e+00
1.00037824e+00
1.00045391e+00
1.00052567e+00
1.00059283e+00
1.00065471e+00
1.00071063e+00
1.00075991e+00
1.00080192e+00
1.00083609e+00
1.00086189e+00
1.00087890e+00
1.00088677e+00
1.00088529e+00
1.00087436e+00
1.00085404e+00
1.00082452e+00
1.00078615e+00
1.00073946e+00
1.00068509e+00
1.00062385e+00
1.00055669e+00
1.00048466e+00
1.00040892e+00
1.00033067e+00
1.00025120e+00
1.00017179e+00
1.00009372e+00
1.00001821e+00
9.99946444e-01
9.99879490e-01
9.99818316e-01
9.99763759e-01
9.99716518e-01
9.99677142e-01
9.99646032e-01
9.99623443e-01
9.99609487e-01
9.99604149e-01
9.99607293e-01
9.99618682e-01
9.99637990e-01
9.99664819e-01
9.99698715e-01
9.99739181e-01
9.99785692e-01
9.99837706e-01
9.99894671e-01
9.99956036e-01
1.00002126e+00
1.00008980e+00
1.00016114e+00
1.00023479e+00
1.00031024e+00
1.00038705e+00
1.00046474e+00
1.00054291e+00
1.00062114e+00
1.00069904e+00
1.00077624e+00
1.00085241e+00
1.00092720e+00
1.00100033e+00
1.00107152e+00
1.00114051e+00
1.00120710e+00
1.00127107e+00
1.00133227e+00
1.00139055e+00
1.00144581e+00
1.00149796e+00
1.00154696e+00
1.00159277e+00
1.00163541e+00
1.00167488e+00
1.00171123e+00
1.00174455e+00
1.00177488e+00
1.00180232e+00
1.00182700e+00
1.00184903e+00
1.00186845e+00
1.00188544e+00
1.00190016e+00
1.00191257e+00
1.00192280e+00
1.00193100e+00
1.00193727e+00
1.00194185e+00
1.00194511e+00
9.98390715e-01
9.98395088e-01
9.98401081e-01
9.98409118e-01
9.98419464e-01
9.98432251e-01
9.98447580e-01
9.98465455e-01
9.98485945e-01
9.98509180e-01
9.98535214e-01
9.98564105e-01
9.98595968e-01
9.98630871e-01
9.98668854e-01
9.98709975e-01
9.98754284e-01
9.98801795e-01
9.98852509e-01
9.98906421e-01
9.98963503e-01
9.99023699e-01
9.99086938e-01
9.99153129e-01
9.99222151e-01
9.99293861e-01
9.99368089e-01
9.99444638e-01
9.99523283e-01
9.99603765e-01
9.99685797e-01
9.99769056e-01
9.99853185e-01
9.99937791e-01
1.00002244e+00
1.00010667e+00
1.00018997e+00
1.00027180e+00
1.00035158e+00
1.00042869e+00
1.00050249e+00
1.00057233e+00
1.00063753e+00
1.00069739e+00
1.00075126e+00
1.00079847e+00
1.00083840e+00
1.00087049e+00
1.00089422e+00
1.00090918e+00
1.00091506e+00
1.00091163e+00
1.00089883e+00
1.00087671e+00
1.00084547e+00
1.00080548e+00
1.00075724e+00
1.00070140e+00
1.00063876e+00
1.00057024e+00
1.00049687e+00
1.00041977e+00
1.00034014e+00
1.00025921e+00
1.00017825e+00
1.00009850e+00
1.00002117e+00
9.99947409e-01
9.99878278e-01
9.99814735e-01
9.99757615e-01
9.99707620e-01
9.99665308e-01
9.99631095e-01
9.99605254e-01
9.99587921e-01
9.99579103e-01
9.99578693e-01
9.99586481e-01
9.99602171e-01
9.99625393e-01
9.99655722e-01
9.99692691e-01
9.99735802e-01
9.99784540e-01
9.99838379e-01
9.99896795e-01
9.99959265e-01
1.00002528e+00
1.00009433e+00
1.00016595e+00
1.00023964e+00
1.00031497e+00
1.00039149e+00
1.00046877e+00
1.00054642e+00
1.00062403e+00
1.00070124e+00
1.00077769e+00
1.00085304e+00
1.00092697e+00
1.00099920e+00
1.00106945e+00
1.00113747e+00
1.00120305e+00
1.00126600e+00
1.00132613e+00
1.00138334e+00
1.00143750e+00
1.00148854e+00
1.00153641e+00
1.00158109e+00
1.00162257e+00
1.00166089e+00
1.00169609e+00
1.00172824e+00
1.00175741e+00
1.00178369e+00
1.00180720e+00
1.00182803e+00
1.00184625e+00
1.00186202e+00
1.00187543e+00
1.00188650e+00
1.00189535e+00
1.00190210e+00
1.00190706e+00
1.00191065e+00
9.98445570e-01
9.98450069e-01
9.98456257e-01
9.98464555e-01
9.98475318e-01
9.98488682e-01
9.98504633e-01
9.98523212e-01
9.98544541e-01
9.98568661e-01
9.98595608e-01
9.98625487e-01
9.98658368e-01
9.98694274e-01
9.98733258e-01
9.98775367e-01
9.98820611e-01
9.98868988e-01
9.98920495e-01
9.98975105e-01
9.99032767e-01
9.99093417e-01
9.99156972e-01
9.99223327e-01
9.99292352e-01
9.99363899e-01
9.99437795e-01
9.99513840e-01
9.99591809e-01
9.99671448e-01
9.99752473e-01
9.99834569e-01
9.99917387e-01
1.00000054e+00
1.00008362e+00
1.00016615e+00
1.00024765e+00
1.00032758e+00
1.00040537e+00
1.00048042e+00
1.00055210e+00
1.00061977e+00
1.00068274e+00
1.00074036e+00
1.00079195e+00
1.00083688e+00
1.00087454e+00
1.00090437e+00
1.00092589e+00
1.00093869e+00
1.00094246e+00
1.00093702e+00
1.00092230e+00
1.00089836e+00
1.00086542e+00
1.00082383e+00
1.00077409e+00
1.00071686e+00
1.00065290e+00
1.00058311e+00
1.00050851e+00
1.00043018e+00
1.00034929e+00
1.00026704e+00
1.00018466e+00
1.00010336e+00
1.00002432e+00
9.99948669e-01
9.99877456e-01
9.99811624e-01
9.99752006e-01
9.99699304e-01
9.99654086e-01
9.99616782e-01
9.99587682e-01
9.99566943e-01
9.99554600e-01
9.99550571e-01
9.99554675e-01
9.99566645e-01
9.99586141e-01
9.99612769e-01
9.99646090e-01
9.99685635e-01
9.99730916e-01
9.99781437e-01
9.99836698e-01
9.99896202e-01
9.99959460e-01
1.00002599e+00
1.00009534e+00
1.00016703e+00
1.00024064e+00
1.00031573e+00
1.00039189e+00
1.00046871e+00
1.00054580e+00
1.00062278e+00
1.00069930e+00
1.00077500e+00
1.00084955e+00
1.00092264e+00
1.00099398e+00
1.00106330e+00
1.00113035e+00
1.00119493e+00
1.00125683e+00
1.00131590e+00
1.00137201e+00
1.00142504e+00
1.00147493e+00
1.00152163e+00
1.00156513e+00
1.00160541e+00
1.00164251e+00
1.00167649e+00
1.00170741e+00
1.00173533e+00
1.00176033e+00
1.00178256e+00
1.00180208e+00
1.00181896e+00
1.00183333e+00
1.00184528e+00
1.00185480e+00
1.00186204e+00
1.00186739e+00
1.00187129e+00
9.98505939e-01
9.98510522e-01
9.98516854e-01
9.98525464e-01
9.98536674e-01
9.98550556e-01
9.98567133e-01
9.98586468e-01
9.98608602e-01
9.98633569e-01
9.98661450e-01
9.98692301e-01
9.98726143e-01
9.98763021e-01
9.98802973e-01
9.98846005e-01
9.98892109e-01
9.98941282e-01
9.98993496e-01
9.99048699e-01
9.99106831e-01
9.99167815e-01
9.99231553e-01
9.99297926e-01
9.99366801e-01
9.99438021e-01
9.99511408e-01
9.99586762e-01
9.99663857e-01
9.99742444e-01
9.99822244e-01
9.99902948e-01
9.99984216e-01
1.00006568e+00
1.00014692e+00
1.00022749e+00
1.00030692e+00
1.00038468e+00
1.00046022e+00
1.00053295e+00
1.00060225e+00
1.00066747e+00
1.00072798e+00
1.00078311e+00
1.00083221e+00
1.00087465e+00
1.00090985e+00
1.00093727e+00
1.00095643e+00
1.00096695e+00
1.00096855e+00
1.00096103e+00
1.00094436e+00
1.00091860e+00
1.00088397e+00
1.00084083e+00
1.00078968e+00
1.00073114e+00
1.00066598e+00
1.00059507e+00
1.00051938e+00
1.00043997e+00
1.00035798e+00
1.00027457e+00
1.00019093e+00
1.00010823e+00
1.00002763e+00
9.99950241e-01
9.99877076e-01
9.99809073e-01
9.99747058e-01
9.99691735e-01
9.99643679e-01
9.99603331e-01
9.99571000e-01
9.99546867e-01
9.99530988e-01
9.99523310e-01
9.99523682e-01
9.99531864e-01
9.99547548e-01
9.99570369e-01
9.99599919e-01
9.99635757e-01
9.99677425e-01
9.99724455e-01
9.99776372e-01
9.99832707e-01
9.99892994e-01
9.99956777e-01
1.00002361e+00
1.00009306e+00
1.00016469e+00
1.00023810e+00
1.00031286e+00
1.00038860e+00
1.00046491e+00
1.00054141e+00
1.00061775e+00
1.00069355e+00
1.00076849e+00
1.00084222e+00
1.00091444e+00
1.00098487e+00
1.00105323e+00
1.00111928e+00
1.00118281e+00
1.00124362e+00
1.00130157e+00
1.00135651e+00
1.00140835e+00
1.00145701e+00
1.00150245e+00
1.00154467e+00
1.00158366e+00
1.00161944e+00
1.00165208e+00
1.00168164e+00
1.00170818e+00
1.00173178e+00
1.00175257e+00
1.00177060e+00
1.00178595e+00
1.00179872e+00
1.00180895e+00
1.00181671e+00
1.00182241e+00
1.00182659e+00
9.98571976e-01
9.98576645e-01
9.98583119e-01
9.98592031e-01
9.98603665e-01
9.98618065e-01
9.98635279e-01
9.98655332e-01
9.98678237e-01
9.98704052e-01
9.98732834e-01
9.98764591e-01
9.98799353e-01
9.98837155e-01
9.98877995e-01
9.98921859e-01
9.98968739e-01
9.99018605e-01
9.99071404e-01
9.99127073e-01
9.99185539e-01
9.99246707e-01
9.99310466e-01
9.99376689e-01
9.99445233e-01
9.99515935e-01
9.99588612e-01
9.99663065e-01
9.99739069e-01
9.99816376e-01
9.99894713e-01
9.99973781e-01
1.00005325e+00
1.00013275e+00
1.00021190e+00
1.00029025e+00
1.00036735e+00
1.00044267e+00
1.00051569e+00
1.00058582e+00
1.00065247e+00
1.00071501e+00
1.00077280e+00
1.00082521e+00
1.00087160e+00
1.00091137e+00
1.00094394e+00
1.00096878e+00
1.00098546e+00
1.00099361e+00
1.00099294e+00
1.00098331e+00
1.00096467e+00
1.00093710e+00
1.00090083e+00
1.00085621e+00
1.00080373e+00
1.00074401e+00
1.00067778e+00
1.00060588e+00
1.00052927e+00
1.00044897e+00
1.00036606e+00
1.00028167e+00
1.00019696e+00