# vtk DataFile Version 2.0
LBM Flow Field - Timestep 710
ASCII
DATASET STRUCTURED_POINTS
DIMENSIONS 128 128 1
ORIGIN 0.0 0.0 0.0
SPACING 1.0 1.0 1.0
POINT_DATA 16384
SCALARS density double 1
LOOKUP_TABLE default
9.97973284e-01
9.98067187e-01
9.98175206e-01
9.98200964e-01
9.98238502e-01
9.98292487e-01
9.98344673e-01
9.98394744e-01
9.98448783e-01
9.98504399e-01
9.98560123e-01
9.98615522e-01
9.98670084e-01
9.98722800e-01
9.98772901e-01
9.98819619e-01
9.98862356e-01
9.98900667e-01
9.98934288e-01
9.98963144e-01
9.98987382e-01
9.99007333e-01
9.99023484e-01
9.99036446e-01
9.99046916e-01
9.99055627e-01
9.99063307e-01
9.99070642e-01
9.99078247e-01
9.99086645e-01
9.99096249e-01
9.99107363e-01
9.99120183e-01
9.99134806e-01
9.99151245e-01
9.99169445e-01
9.99189303e-01
9.99210682e-01
9.99233431e-01
9.99257395e-01
9.99282427e-01
9.99308398e-01
9.99335195e-01
9.99362728e-01
9.99390929e-01
9.99419744e-01
9.99449139e-01
9.99479087e-01
9.99509573e-01
9.99540581e-01
9.99572101e-01
9.99604117e-01
9.99636614e-01
9.99669573e-01
9.99702972e-01
9.99736785e-01
9.99770988e-01
9.99805552e-01
9.99840452e-01
9.99875661e-01
9.99911156e-01
9.99946917e-01
9.99982926e-01
1.00001917e+00
1.00005563e+00
1.00009229e+00
1.00012916e+00
1.00016622e+00
1.00020347e+00
1.00024090e+00
1.00027850e+00
1.00031628e+00
1.00035423e+00
1.00039234e+00
1.00043061e+00
1.00046904e+00
1.00050761e+00
1.00054632e+00
1.00058516e+00
1.00062411e+00
1.00066316e+00
1.00070229e+00
1.00074148e+00
1.00078073e+00
1.00081999e+00
1.00085926e+00
1.00089853e+00
1.00093778e+00
1.00097700e+00
1.00101621e+00
1.00105540e+00
1.00109459e+00
1.00113379e+00
1.00117304e+00
1.00121235e+00
1.00125175e+00
1.00129123e+00
1.00133080e+00
1.00137042e+00
1.00141002e+00
1.00144950e+00
1.00148868e+00
1.00152733e+00
1.00156513e+00
1.00160168e+00
1.00163646e+00
1.00166887e+00
1.00169819e+00
1.00172364e+00
1.00174435e+00
1.00175949e+00
1.00176820e+00
1.00176977e+00
1.00176363e+00
1.00174951e+00
1.00172743e+00
1.00169785e+00
1.00166129e+00
1.00161955e+00
1.00157490e+00
1.00152808e+00
1.00147947e+00
1.00143943e+00
1.00141027e+00
1.00137431e+00
1.00134238e+00
1.00140510e+00
1.00146844e+00
9.98064122e-01
9.98104154e-01
9.98184422e-01
9.98219203e-01
9.98263573e-01
9.98309869e-01
9.98359645e-01
9.98409229e-01
9.98461570e-01
9.98514506e-01
9.98568370e-01
9.98621966e-01
9.98674771e-01
9.98725808e-01
9.98774465e-01
9.98819948e-01
9.98861697e-01
9.98899255e-01
9.98932384e-01
9.98961004e-01
9.98985246e-01
9.99005410e-01
9.99021952e-01
9.99035445e-01
9.99046541e-01
9.99055928e-01
9.99064292e-01
9.99072286e-01
9.99080492e-01
9.99089411e-01
9.99099441e-01
9.99110879e-01
9.99123922e-01
9.99138673e-01
9.99155156e-01
9.99173330e-01
9.99193108e-01
9.99214369e-01
9.99236975e-01
9.99260787e-01
9.99285667e-01
9.99311492e-01
9.99338157e-01
9.99365573e-01
9.99393671e-01
9.99422400e-01
9.99451720e-01
9.99481605e-01
9.99512034e-01
9.99542991e-01
9.99574462e-01
9.99606432e-01
9.99638883e-01
9.99671797e-01
9.99705151e-01
9.99738922e-01
9.99773083e-01
9.99807607e-01
9.99842470e-01
9.99877644e-01
9.99913107e-01
9.99948837e-01
9.99984815e-01
1.00002102e+00
1.00005745e+00
1.00009408e+00
1.00013091e+00
1.00016792e+00
1.00020511e+00
1.00024247e+00
1.00028000e+00
1.00031769e+00
1.00035554e+00
1.00039353e+00
1.00043167e+00
1.00046995e+00
1.00050836e+00
1.00054689e+00
1.00058553e+00
1.00062427e+00
1.00066310e+00
1.00070201e+00
1.00074097e+00
1.00077996e+00
1.00081898e+00
1.00085801e+00
1.00089704e+00
1.00093605e+00
1.00097505e+00
1.00101404e+00
1.00105303e+00
1.00109203e+00
1.00113106e+00
1.00117015e+00
1.00120932e+00
1.00124858e+00
1.00128794e+00
1.00132738e+00
1.00136687e+00
1.00140633e+00
1.00144565e+00
1.00148465e+00
1.00152308e+00
1.00156062e+00
1.00159684e+00
1.00163125e+00
1.00166321e+00
1.00169203e+00
1.00171693e+00
1.00173707e+00
1.00175163e+00
1.00175980e+00
1.00176089e+00
1.00175440e+00
1.00174009e+00
1.00171792e+00
1.00168851e+00
1.00165252e+00
1.00161156e+00
1.00156683e+00
1.00152122e+00
1.00147551e+00
1.00143591e+00
1.00140142e+00
1.00137483e+00
1.00135441e+00
1.00139120e+00
1.00140493e+00
9.98167243e-01
9.98179574e-01
9.98189873e-01
9.98244687e-01
9.98296729e-01
9.98333427e-01
9.98377929e-01
9.98427610e-01
9.98477365e-01
9.98527487e-01
9.98579010e-01
9.98630511e-01
9.98681233e-01
9.98730467e-01
9.98777500e-01
9.98821625e-01
9.98862301e-01
9.98899076e-01
9.98931700e-01
9.98960106e-01
9.98984400e-01
9.99004849e-01
9.99021873e-01
9.99036003e-01
9.99047841e-01
9.99058025e-01
9.99067198e-01
9.99075968e-01
9.99084884e-01
9.99094419e-01
9.99104955e-01
9.99116779e-01
9.99130086e-01
9.99144988e-01
9.99161519e-01
9.99179655e-01
9.99199325e-01
9.99220428e-01
9.99242845e-01
9.99266450e-01
9.99291118e-01
9.99316738e-01
9.99343210e-01
9.99370449e-01
9.99398388e-01
9.99426974e-01
9.99456168e-01
9.99485940e-01
9.99516267e-01
9.99547130e-01
9.99578514e-01
9.99610402e-01
9.99642776e-01
9.99675617e-01
9.99708902e-01
9.99742608e-01
9.99776710e-01
9.99811181e-01
9.99845994e-01
9.99881124e-01
9.99916546e-01
9.99952237e-01
9.99988176e-01
1.00002434e+00
1.00006073e+00
1.00009730e+00
1.00013407e+00
1.00017100e+00
1.00020810e+00
1.00024535e+00
1.00028275e+00
1.00032028e+00
1.00035794e+00
1.00039573e+00
1.00043363e+00
1.00047165e+00
1.00050976e+00
1.00054798e+00
1.00058628e+00
1.00062465e+00
1.00066310e+00
1.00070160e+00
1.00074014e+00
1.00077871e+00
1.00081730e+00
1.00085590e+00
1.00089450e+00
1.00093309e+00
1.00097169e+00
1.00101030e+00
1.00104893e+00
1.00108760e+00
1.00112633e+00
1.00116514e+00
1.00120407e+00
1.00124312e+00
1.00128229e+00
1.00132158e+00
1.00136093e+00
1.00140028e+00
1.00143949e+00
1.00147838e+00
1.00151670e+00
1.00155410e+00
1.00159017e+00
1.00162438e+00
1.00165611e+00
1.00168467e+00
1.00170928e+00
1.00172912e+00
1.00174338e+00
1.00175128e+00
1.00175217e+00
1.00174556e+00
1.00173124e+00
1.00170923e+00
1.00168004e+00
1.00164470e+00
1.00160430e+00
1.00155959e+00
1.00151477e+00
1.00147306e+00
1.00143080e+00
1.00138883e+00
1.00137414e+00
1.00137565e+00
1.00134698e+00
1.00133534e+00
9.98191472e-01
9.98213466e-01
9.98242044e-01
9.98285097e-01
9.98318867e-01
9.98358485e-01
9.98403727e-01
9.98448841e-01
9.98494976e-01
9.98543354e-01
9.98592557e-01
9.98641602e-01
9.98690143e-01
9.98737478e-01
9.98782817e-01
9.98825524e-01
9.98865077e-01
9.98901067e-01
9.98933241e-01
9.98961514e-01
9.98985970e-01
9.99006847e-01
9.99024515e-01
9.99039447e-01
9.99052189e-01
9.99063324e-01
9.99073437e-01
9.99083089e-01
9.99092791e-01
9.99102985e-01
9.99114037e-01
9.99126227e-01
9.99139753e-01
9.99154735e-01
9.99171225e-01
9.99189221e-01
9.99208675e-01
9.99229507e-01
9.99251620e-01
9.99274906e-01
9.99299256e-01
9.99324569e-01
9.99350753e-01
9.99377726e-01
9.99405423e-01
9.99433790e-01
9.99462784e-01
9.99492373e-01
9.99522531e-01
9.99553237e-01
9.99584473e-01
9.99616220e-01
9.99648461e-01
9.99681176e-01
9.99714344e-01
9.99747941e-01
9.99781942e-01
9.99816320e-01
9.99851050e-01
9.99886103e-01
9.99921454e-01
9.99957076e-01
9.99992947e-01
1.00002904e+00
1.00006535e+00
1.00010183e+00
1.00013849e+00
1.00017530e+00
1.00021225e+00
1.00024932e+00
1.00028651e+00
1.00032380e+00
1.00036119e+00
1.00039866e+00
1.00043621e+00
1.00047383e+00
1.00051151e+00
1.00054926e+00
1.00058706e+00
1.00062490e+00
1.00066278e+00
1.00070069e+00
1.00073863e+00
1.00077658e+00
1.00081455e+00
1.00085252e+00
1.00089050e+00
1.00092850e+00
1.00096652e+00
1.00100458e+00
1.00104269e+00
1.00108088e+00
1.00111918e+00
1.00115761e+00
1.00119620e+00
1.00123496e+00
1.00127389e+00
1.00131298e+00
1.00135218e+00
1.00139140e+00
1.00143051e+00
1.00146932e+00
1.00150755e+00
1.00154486e+00
1.00158081e+00
1.00161488e+00
1.00164645e+00
1.00167481e+00
1.00169920e+00
1.00171882e+00
1.00173288e+00
1.00174064e+00
1.00174147e+00
1.00173492e+00
1.00172084e+00
1.00169933e+00
1.00167074e+00
1.00163598e+00
1.00159672e+00
1.00155420e+00
1.00150940e+00
1.00146643e+00
1.00142894e+00
1.00139421e+00
1.00136456e+00
1.00135574e+00
1.00134643e+00
1.00134699e+00
9.98229517e-01
9.98257189e-01
9.98293428e-01
9.98318247e-01
9.98349073e-01
9.98392131e-01
9.98432092e-01
9.98472393e-01
9.98516826e-01
9.98562852e-01
9.98608992e-01
9.98655522e-01
9.98701848e-01
9.98747062e-01
9.98790558e-01
9.98831762e-01
9.98870149e-01
9.98905341e-01
9.98937098e-01
9.98965315e-01
9.98990054e-01
9.99011512e-01
9.99030000e-01
9.99045929e-01
9.99059776e-01
9.99072054e-01
9.99083286e-01
9.99093975e-01
9.99104588e-01
9.99115533e-01
9.99127155e-01
9.99139727e-01
9.99153453e-01
9.99168465e-01
9.99184837e-01
9.99202593e-01
9.99221713e-01
9.99242146e-01
9.99263819e-01
9.99286649e-01
9.99310545e-01
9.99335419e-01
9.99361186e-01
9.99387772e-01
9.99415112e-01
9.99443151e-01
9.99471843e-01
9.99501153e-01
9.99531051e-01
9.99561513e-01
9.99592518e-01
9.99624046e-01
9.99656079e-01
9.99688597e-01
9.99721579e-01
9.99755002e-01
9.99788841e-01
9.99823070e-01
9.99857660e-01
9.99892583e-01
9.99927811e-01
9.99963314e-01
9.99999066e-01
1.00003504e+00
1.00007121e+00
1.00010754e+00
1.00014403e+00
1.00018064e+00
1.00021737e+00
1.00025418e+00
1.00029107e+00
1.00032801e+00
1.00036501e+00
1.00040205e+00
1.00043911e+00
1.00047620e+00
1.00051330e+00
1.00055042e+00
1.00058754e+00
1.00062467e+00
1.00066181e+00
1.00069895e+00
1.00073609e+00
1.00077323e+00
1.00081038e+00
1.00084755e+00
1.00088473e+00
1.00092195e+00
1.00095923e+00
1.00099657e+00
1.00103402e+00
1.00107159e+00
1.00110934e+00
1.00114727e+00
1.00118542e+00
1.00122381e+00
1.00126244e+00
1.00130129e+00
1.00134029e+00
1.00137937e+00
1.00141837e+00
1.00145708e+00
1.00149523e+00
1.00153245e+00
1.00156831e+00
1.00160225e+00
1.00163367e+00
1.00166186e+00
1.00168607e+00
1.00170551e+00
1.00171944e+00
1.00172715e+00
1.00172805e+00
1.00172177e+00
1.00170810e+00
1.00168727e+00
1.00165980e+00
1.00162619e+00
1.00158783e+00
1.00154745e+00
1.00150551e+00
1.00146186e+00
1.00142365e+00
1.00139676e+00
1.00136701e+00
1.00134333e+00
1.00134603e+00
1.00135365e+00
9.98286237e-01
9.98306077e-01
9.98332763e-01
9.98359918e-01
9.98394081e-01
9.98428019e-01
9.98462677e-01
9.98502630e-01
9.98544365e-01
9.98586366e-01
9.98629620e-01
9.98673681e-01
9.98717419e-01
9.98760265e-01
9.98801758e-01
9.98841310e-01
9.98878432e-01
9.98912768e-01
9.98944082e-01
9.98972270e-01
9.98997358e-01
9.99019488e-01
9.99038914e-01
9.99055975e-01
9.99071070e-01
9.99084636e-01
9.99097122e-01
9.99108970e-01
9.99120594e-01
9.99132366e-01
9.99144608e-01
9.99157584e-01
9.99171502e-01
9.99186511e-01
9.99202709e-01
9.99220146e-01
9.99238835e-01
9.99258757e-01
9.99279870e-01
9.99302114e-01
9.99325420e-01
9.99349717e-01
9.99374931e-01
9.99400995e-01
9.99427844e-01
9.99455424e-01
9.99483688e-01
9.99512596e-01
9.99542116e-01
9.99572219e-01
9.99602882e-01
9.99634085e-01
9.99665808e-01
9.99698031e-01
9.99730733e-01
9.99763891e-01
9.99797480e-01
9.99831473e-01
9.99865842e-01
9.99900554e-01
9.99935579e-01
9.99970884e-01
1.00000644e+00
1.00004220e+00
1.00007815e+00
1.00011425e+00
1.00015048e+00
1.00018680e+00
1.00022319e+00
1.00025963e+00
1.00029610e+00
1.00033258e+00
1.00036905e+00
1.00040551e+00
1.00044193e+00
1.00047833e+00
1.00051468e+00
1.00055100e+00
1.00058728e+00
1.00062352e+00
1.00065972e+00
1.00069590e+00
1.00073206e+00
1.00076822e+00
1.00080437e+00
1.00084055e+00
1.00087676e+00
1.00091303e+00
1.00094939e+00
1.00098588e+00
1.00102252e+00
1.00105935e+00
1.00109642e+00
1.00113375e+00
1.00117138e+00
1.00120932e+00
1.00124758e+00
1.00128612e+00
1.00132488e+00
1.00136377e+00
1.00140262e+00
1.00144122e+00
1.00147927e+00
1.00151640e+00
1.00155214e+00
1.00158595e+00
1.00161721e+00
1.00164523e+00
1.00166926e+00
1.00168856e+00
1.00170239e+00
1.00171010e+00
1.00171117e+00
1.00170526e+00
1.00169222e+00
1.00167217e+00
1.00164583e+00
1.00161410e+00
1.00157747e+00
1.00153764e+00
1.00149811e+00
1.00145962e+00
1.00142083e+00
1.00138872e+00
1.00136668e+00
1.00134939e+00
1.00134451e+00
1.00134592e+00
9.98344965e-01
9.98362727e-01
9.98383787e-01
9.98411361e-01
9.98440270e-01
9.98468775e-01
9.98503009e-01
9.98539807e-01
9.98576740e-01
9.98615703e-01
9.98656337e-01
9.98697213e-01
9.98737985e-01
9.98778353e-01
9.98817652e-01
9.98855344e-01
9.98891046e-01
9.98924419e-01
9.98955228e-01
9.98983360e-01
9.99008801e-01
9.99031645e-01
9.99052078e-01
9.99070357e-01
9.99086798e-01
9.99101753e-01
9.99115594e-01
9.99128690e-01
9.99141401e-01
9.99154057e-01
9.99166953e-01
9.99180345e-01
9.99194443e-01
9.99209412e-01
9.99225375e-01
9.99242413e-01
9.99260574e-01
9.99279872e-01
9.99300298e-01
9.99321820e-01
9.99344394e-01
9.99367966e-01
9.99392476e-01
9.99417863e-01
9.99444069e-01
9.99471038e-01
9.99498724e-01
9.99527082e-01
9.99556077e-01
9.99585678e-01
9.99615861e-01
9.99646602e-01
9.99677881e-01
9.99709677e-01
9.99741970e-01
9.99774737e-01
9.99807952e-01
9.99841589e-01
9.99875614e-01
9.99909996e-01
9.99944699e-01
9.99979685e-01
1.00001492e+00
1.00005035e+00
1.00008596e+00
1.00012170e+00
1.00015753e+00
1.00019342e+00
1.00022934e+00
1.00026527e+00
1.00030116e+00
1.00033702e+00
1.00037280e+00
1.00040851e+00
1.00044413e+00
1.00047966e+00
1.00051509e+00
1.00055042e+00
1.00058567e+00
1.00062083e+00
1.00065592e+00
1.00069096e+00
1.00072596e+00
1.00076093e+00
1.00079592e+00
1.00083093e+00
1.00086601e+00
1.00090118e+00
1.00093649e+00
1.00097197e+00
1.00100768e+00
1.00104365e+00
1.00107993e+00
1.00111657e+00
1.00115359e+00
1.00119100e+00
1.00122881e+00
1.00126699e+00
1.00130546e+00
1.00134411e+00
1.00138277e+00
1.00142120e+00
1.00145910e+00
1.00149608e+00
1.00153165e+00
1.00156528e+00
1.00159633e+00
1.00162411e+00
1.00164791e+00
1.00166700e+00
1.00168070e+00
1.00168841e+00
1.00168962e+00
1.00168407e+00
1.00167175e+00
1.00165279e+00
1.00162754e+00
1.00159724e+00
1.00156321e+00
1.00152573e+00
1.00148674e+00
1.00145064e+00
1.00141684e+00
1.00138408e+00
1.00136143e+00
1.00134851e+00
1.00134042e+00
1.00134188e+00
9.98407742e-01
9.98425223e-01
9.98445736e-01
9.98468563e-01
9.98492461e-01
9.98520369e-01
9.98551350e-01
9.98582814e-01
9.98616668e-01
9.98652861e-01
9.98689741e-01
9.98727131e-01
9.98764975e-01
9.98802589e-01
9.98839401e-01
9.98875052e-01
9.98909176e-01
9.98941451e-01
9.98971660e-01
9.98999669e-01
9.99025430e-01
9.99048986e-01
9.99070445e-01
9.99089981e-01
9.99107820e-01
9.99124224e-01
9.99139479e-01
9.99153881e-01
9.99167727e-01
9.99181303e-01
9.99194874e-01
9.99208684e-01
9.99222945e-01
9.99237837e-01
9.99253508e-01
9.99270071e-01
9.99287608e-01
9.99306170e-01
9.99325780e-01
9.99346439e-01
9.99368129e-01
9.99390814e-01
9.99414451e-01
9.99438988e-01
9.99464373e-01
9.99490552e-01
9.99517477e-01
9.99545104e-01
9.99573394e-01
9.99602315e-01
9.99631839e-01
9.99661941e-01
9.99692601e-01
9.99723797e-01
9.99755509e-01
9.99787713e-01
9.99820384e-01
9.99853493e-01
9.99887006e-01
9.99920887e-01
9.99955096e-01
9.99989592e-01
1.00002433e+00
1.00005926e+00
1.00009435e+00
1.00012954e+00
1.00016480e+00
1.00020008e+00
1.00023535e+00
1.00027056e+00
1.00030570e+00
1.00034073e+00
1.00037564e+00
1.00041040e+00
1.00044502e+00
1.00047948e+00
1.00051378e+00
1.00054794e+00
1.00058196e+00
1.00061585e+00
1.00064964e+00
1.00068335e+00
1.00071700e+00
1.00075064e+00
1.00078428e+00
1.00081798e+00
1.00085177e+00
1.00088571e+00
1.00091983e+00
1.00095419e+00
1.00098885e+00
1.00102386e+00
1.00105926e+00
1.00109511e+00
1.00113143e+00
1.00116824e+00
1.00120554e+00
1.00124328e+00
1.00128138e+00
1.00131972e+00
1.00135811e+00
1.00139630e+00
1.00143397e+00
1.00147070e+00
1.00150601e+00
1.00153934e+00
1.00157006e+00
1.00159749e+00
1.00162095e+00
1.00163972e+00
1.00165319e+00
1.00166079e+00
1.00166213e+00
1.00165692e+00
1.00164519e+00
1.00162731e+00
1.00160366e+00
1.00157480e+00
1.00154239e+00
1.00150812e+00
1.00147206e+00
1.00143620e+00
1.00140487e+00
1.00137723e+00
1.00135388e+00
1.00133957e+00
1.00133457e+00
1.00133844e+00
9.98481992e-01
9.98497589e-01
9.98515164e-01
9.98534079e-01
9.98555830e-01
9.98580752e-01
9.98606688e-01
9.98634898e-01
9.98665831e-01
9.98697784e-01
9.98730713e-01
9.98764840e-01
9.98799416e-01
9.98833890e-01
9.98868027e-01
9.98901467e-01
9.98933830e-01
9.98964859e-01
9.98994347e-01
9.99022145e-01
9.99048171e-01
9.99072403e-01
9.99094876e-01
9.99115675e-01
9.99134935e-01
9.99152820e-01
9.99169528e-01
9.99185276e-01
9.99200295e-01
9.99214822e-01
9.99229089e-01
9.99243324e-01
9.99257739e-01
9.99272528e-01
9.99287862e-01
9.99303884e-01
9.99320711e-01
9.99338430e-01
9.99357101e-01
9.99376756e-01
9.99397403e-01
9.99419030e-01
9.99441610e-01
9.99465104e-01
9.99489465e-01
9.99514646e-01
9.99540599e-01
9.99567279e-01
9.99594645e-01
9.99622665e-01
9.99651308e-01
9.99680549e-01
9.99710365e-01
9.99740736e-01
9.99771641e-01
9.99803055e-01
9.99834952e-01
9.99867302e-01
9.99900070e-01
9.99933215e-01
9.99966695e-01
1.00000046e+00
1.00003447e+00
1.00006866e+00
1.00010298e+00
1.00013739e+00
1.00017183e+00
1.00020625e+00
1.00024062e+00
1.00027489e+00
1.00030902e+00
1.00034299e+00
1.00037678e+00
1.00041037e+00
1.00044376e+00
1.00047693e+00
1.00050989e+00
1.00054265e+00
1.00057524e+00
1.00060766e+00
1.00063996e+00
1.00067216e+00
1.00070431e+00
1.00073644e+00
1.00076860e+00
1.00080084e+00
1.00083322e+00
1.00086579e+00
1.00089861e+00
1.00093175e+00
1.00096526e+00
1.00099921e+00
1.00103366e+00
1.00106864e+00
1.00110419e+00
1.00114032e+00
1.00117702e+00
1.00121424e+00
1.00125190e+00
1.00128984e+00
1.00132787e+00
1.00136571e+00
1.00140302e+00
1.00143937e+00
1.00147428e+00
1.00150716e+00
1.00153740e+00
1.00156432e+00
1.00158727e+00
1.00160558e+00
1.00161866e+00
1.00162602e+00
1.00162733e+00
1.00162244e+00
1.00161132e+00
1.00159427e+00
1.00157209e+00
1.00154537e+00
1.00151474e+00
1.00148225e+00
1.00144967e+00
1.00141684e+00
1.00138627e+00
1.00136123e+00
1.00134066e+00
1.00132629e+00
1.00132164e+00
1.00132575e+00
9.98566710e-01
9.98579499e-01
9.98593755e-01
9.98610310e-01
9.98629208e-01
9.98649658e-01
9.98672062e-01
9.98697130e-01
9.98723618e-01
9.98751347e-01
9.98780708e-01
9.98811073e-01
9.98841923e-01
9.98873149e-01
9.98904445e-01
9.98935431e-01
9.98965853e-01
9.98995489e-01
9.99024130e-01
9.99051617e-01
9.99077827e-01
9.99102677e-01
9.99126127e-01
9.99148174e-01
9.99168850e-01
9.99188227e-01
9.99206409e-01
9.99223531e-01
9.99239754e-01
9.99255260e-01
9.99270250e-01
9.99284928e-01
9.99299505e-01
9.99314183e-01
9.99329154e-01
9.99344591e-01
9.99360644e-01
9.99377435e-01
9.99395058e-01
9.99413578e-01
9.99433030e-01
9.99453428e-01
9.99474763e-01
9.99497008e-01
9.99520129e-01
9.99544082e-01
9.99568822e-01
9.99594306e-01
9.99620495e-01
9.99647351e-01
9.99674846e-01
9.99702953e-01
9.99731650e-01
9.99760913e-01
9.99790723e-01
9.99821055e-01
9.99851882e-01
9.99883172e-01
9.99914889e-01
9.99946990e-01
9.99979427e-01
1.00001215e+00
1.00004511e+00
1.00007823e+00
1.00011148e+00
1.00014478e+00
1.00017809e+00
1.00021135e+00
1.00024450e+00
1.00027752e+00
1.00031036e+00
1.00034298e+00
1.00037537e+00
1.00040752e+00
1.00043940e+00
1.00047103e+00
1.00050241e+00
1.00053356e+00
1.00056449e+00
1.00059526e+00
1.00062588e+00
1.00065640e+00
1.00068687e+00
1.00071735e+00
1.00074789e+00
1.00077855e+00
1.00080940e+00
1.00084051e+00
1.00087194e+00
1.00090377e+00
1.00093606e+00
1.00096889e+00
1.00100230e+00
1.00103635e+00
1.00107106e+00
1.00110644e+00
1.00114248e+00
1.00117910e+00
1.00121621e+00
1.00125365e+00
1.00129120e+00
1.00132857e+00
1.00136538e+00
1.00140121e+00
1.00143553e+00
1.00146779e+00
1.00149735e+00
1.00152357e+00
1.00154580e+00
1.00156345e+00
1.00157596e+00
1.00158293e+00
1.00158405e+00
1.00157927e+00
1.00156873e+00
1.00155262e+00
1.00153156e+00
1.00150665e+00
1.00147861e+00
1.00144820e+00
1.00141761e+00
1.00138831e+00
1.00136042e+00
1.00133631e+00
1.00131803e+00
1.00130562e+00
1.00130046e+00
1.00130372e+00
9.98661589e-01
9.98672239e-01
9.98683437e-01
9.98696970e-01
9.98712175e-01
9.98728985e-01
9.98748039e-01
9.98768752e-01
9.98790805e-01
9.98814690e-01
9.98839940e-01
9.98866092e-01
9.98893180e-01
9.98920996e-01
9.98949177e-01
9.98977525e-01
9.99005858e-01
9.99033956e-01
9.99061623e-01
9.99088690e-01
9.99114993e-01
9.99140392e-01
9.99164768e-01
9.99188025e-01
9.99210100e-01
9.99230966e-01
9.99250633e-01
9.99269151e-01
9.99286609e-01
9.99303134e-01
9.99318884e-01
9.99334043e-01
9.99348811e-01
9.99363398e-01
9.99378012e-01
9.99392851e-01
9.99408094e-01
9.99423898e-01
9.99440389e-01
9.99457664e-01
9.99475788e-01
9.99494796e-01
9.99514702e-01
9.99535494e-01
9.99557149e-01
9.99579631e-01
9.99602901e-01
9.99626917e-01
9.99651641e-01
9.99677037e-01
9.99703075e-01
9.99729729e-01
9.99756975e-01
9.99784791e-01
9.99813157e-01
9.99842048e-01
9.99871437e-01
9.99901291e-01
9.99931573e-01
9.99962238e-01
9.99993239e-01
1.00002452e+00
1.00005602e+00
1.00008769e+00
1.00011945e+00
1.00015125e+00
1.00018303e+00
1.00021473e+00
1.00024631e+00
1.00027770e+00
1.00030888e+00
1.00033982e+00
1.00037048e+00
1.00040086e+00
1.00043096e+00
1.00046076e+00
1.00049030e+00
1.00051959e+00
1.00054866e+00
1.00057755e+00
1.00060631e+00
1.00063499e+00
1.00066364e+00
1.00069234e+00
1.00072114e+00
1.00075012e+00
1.00077936e+00
1.00080893e+00
1.00083890e+00
1.00086937e+00
1.00090039e+00
1.00093203e+00
1.00096436e+00
1.00099742e+00
1.00103124e+00
1.00106581e+00
1.00110110e+00
1.00113705e+00
1.00117353e+00
1.00121036e+00
1.00124730e+00
1.00128404e+00
1.00132020e+00
1.00135533e+00
1.00138888e+00
1.00142030e+00
1.00144897e+00
1.00147427e+00
1.00149557e+00
1.00151232e+00
1.00152406e+00
1.00153043e+00
1.00153122e+00
1.00152639e+00
1.00151617e+00
1.00150098e+00
1.00148123e+00
1.00145775e+00
1.00143186e+00
1.00140430e+00
1.00137595e+00
1.00134887e+00
1.00132414e+00
1.00130223e+00
1.00128522e+00
1.00127390e+00
1.00126873e+00
1.00127194e+00
9.98767026e-01
9.98775376e-01
9.98783629e-01
9.98793868e-01
9.98805614e-01
9.98818928e-01
9.98833822e-01
9.98850115e-01
9.98868085e-01
9.98887610e-01
9.98908315e-01
9.98930306e-01
9.98953490e-01
9.98977592e-01
9.99002493e-01
9.99028087e-01
9.99054184e-01
9.99080607e-01
9.99107187e-01
9.99133730e-01
9.99160038e-01
9.99185911e-01
9.99211149e-01
9.99235570e-01
9.99259015e-01
9.99281358e-01
9.99302513e-01
9.99322447e-01
9.99341176e-01
9.99358765e-01
9.99375331e-01
9.99391028e-01
9.99406045e-01
9.99420592e-01
9.99434888e-01
9.99449152e-01
9.99463588e-01
9.99478383e-01
9.99493693e-01
9.99509646e-01
9.99526333e-01
9.99543817e-01
9.99562128e-01
9.99581275e-01
9.99601244e-01
9.99622012e-01
9.99643545e-01
9.99665806e-01
9.99688759e-01
9.99712369e-01
9.99736607e-01
9.99761447e-01
9.99786866e-01
9.99812843e-01
9.99839356e-01
9.99866382e-01
9.99893895e-01
9.99921863e-01
9.99950248e-01
9.99979007e-01
1.00000809e+00
1.00003744e+00
1.00006701e+00
1.00009672e+00
1.00012651e+00
1.00015633e+00
1.00018611e+00
1.00021580e+00
1.00024533e+00
1.00027468e+00
1.00030379e+00
1.00033263e+00
1.00036120e+00
1.00038946e+00
1.00041744e+00
1.00044512e+00
1.00047254e+00
1.00049972e+00
1.00052669e+00
1.00055351e+00
1.00058023e+00
1.00060691e+00
1.00063361e+00
1.00066041e+00
1.00068738e+00
1.00071461e+00
1.00074217e+00
1.00077015e+00
1.00079863e+00
1.00082769e+00
1.00085740e+00
1.00088784e+00
1.00091905e+00
1.00095109e+00
1.00098397e+00
1.00101767e+00
1.00105216e+00
1.00108735e+00
1.00112310e+00
1.00115921e+00
1.00119541e+00
1.00123138e+00
1.00126672e+00
1.00130094e+00
1.00133353e+00
1.00136390e+00
1.00139145e+00
1.00141558e+00
1.00143572e+00
1.00145137e+00
1.00146211e+00
1.00146766e+00
1.00146792e+00
1.00146294e+00
1.00145290e+00
1.00143833e+00
1.00141986e+00
1.00139807e+00
1.00137394e+00
1.00134879e+00
1.00132333e+00
1.00129855e+00
1.00127609e+00
1.00125673e+00
1.00124133e+00
1.00123072e+00
1.00122564e+00
1.00122851e+00
9.98882840e-01
9.98888731e-01
9.98893945e-01
9.98900921e-01
9.98909219e-01
9.98918662e-01
9.98929263e-01
9.98941314e-01
9.98954843e-01
9.98969663e-01
9.98985882e-01
9.99003581e-01
9.99022578e-01
9.99042851e-01
9.99064396e-01
9.99087099e-01
9.99110838e-01
9.99135493e-01
9.99160890e-01
9.99186820e-01
9.99213051e-01
9.99239321e-01
9.99265357e-01
9.99290891e-01
9.99315670e-01
9.99339469e-01
9.99362115e-01
9.99383486e-01
9.99403524e-01
9.99422235e-01
9.99439687e-01
9.99456004e-01
9.99471355e-01
9.99485946e-01
9.99500001e-01
9.99513752e-01
9.99527426e-01
9.99541233e-01
9.99555357e-01
9.99569950e-01
9.99585133e-01
9.99600988e-01
9.99617570e-01
9.99634902e-01
9.99652987e-01
9.99671810e-01
9.99691346e-01
9.99711564e-01
9.99732431e-01
9.99753915e-01
9.99775988e-01
9.99798625e-01
9.99821804e-01
9.99845505e-01
9.99869707e-01
9.99894390e-01
9.99919528e-01
9.99945092e-01
9.99971047e-01
9.99997353e-01
1.00002396e+00
1.00005082e+00
1.00007788e+00
1.00010507e+00
1.00013233e+00
1.00015961e+00
1.00018685e+00
1.00021398e+00
1.00024097e+00
1.00026776e+00
1.00029433e+00
1.00032064e+00
1.00034668e+00
1.00037245e+00
1.00039795e+00
1.00042318e+00
1.00044819e+00
1.00047300e+00
1.00049765e+00
1.00052220e+00
1.00054671e+00
1.00057124e+00
1.00059588e+00
1.00062069e+00
1.00064577e+00
1.00067118e+00
1.00069703e+00
1.00072339e+00
1.00075035e+00
1.00077799e+00
1.00080639e+00
1.00083561e+00
1.00086570e+00
1.00089669e+00
1.00092860e+00
1.00096140e+00
1.00099503e+00
1.00102938e+00
1.00106430e+00
1.00109957e+00
1.00113491e+00
1.00116995e+00
1.00120429e+00
1.00123743e+00
1.00126883e+00
1.00129794e+00
1.00132414e+00
1.00134689e+00
1.00136564e+00
1.00137996e+00
1.00138951e+00
1.00139407e+00
1.00139361e+00
1.00138829e+00
1.00137839e+00
1.00136433e+00
1.00134684e+00
1.00132671e+00
1.00130458e+00
1.00128149e+00
1.00125861e+00
1.00123656e+00
1.00121629e+00
1.00119899e+00
1.00118532e+00
1.00117555e+00
1.00117024e+00
1.00117233e+00
9.99007976e-01
9.99011317e-01
9.99013593e-01
9.99017331e-01
9.99022011e-01
9.99027457e-01
9.99033855e-01
9.99041461e-01
9.99050268e-01
9.99060425e-01
9.99072085e-01
9.99085254e-01
9.99099990e-01
9.99116408e-01
9.99134491e-01
9.99154215e-01
9.99175541e-01
9.99198361e-01
9.99222504e-01
9.99247753e-01
9.99273835e-01
9.99300432e-01
9.99327204e-01
9.99353797e-01
9.99379866e-01
9.99405099e-01
9.99429231e-01
9.99452058e-01
9.99473448e-01
9.99493345e-01
9.99511767e-01
9.99528802e-01
9.99544598e-01
9.99559346e-01
9.99573272e-01
9.99586615e-01
9.99599614e-01
9.99612500e-01
9.99625477e-01
9.99638722e-01
9.99652376e-01
9.99666545e-01
9.99681302e-01
9.99696688e-01
9.99712719e-01
9.99729394e-01
9.99746694e-01
9.99764595e-01
9.99783069e-01
9.99802088e-01
9.99821625e-01
9.99841656e-01
9.99862161e-01
9.99883123e-01
9.99904522e-01
9.99926342e-01
9.99948560e-01
9.99971153e-01
9.99994090e-01
1.00001734e+00
1.00004085e+00
1.00006459e+00
1.00008851e+00
1.00011254e+00
1.00013664e+00
1.00016076e+00
1.00018484e+00
1.00020883e+00
1.00023270e+00
1.00025640e+00
1.00027991e+00
1.00030321e+00
1.00032629e+00
1.00034914e+00
1.00037178e+00
1.00039423e+00
1.00041652e+00
1.00043869e+00
1.00046079e+00
1.00048288e+00
1.00050503e+00
1.00052729e+00
1.00054976e+00
1.00057252e+00
1.00059564e+00
1.00061921e+00
1.00064333e+00
1.00066807e+00
1.00069352e+00
1.00071976e+00
1.00074685e+00
1.00077486e+00
1.00080382e+00
1.00083376e+00
1.00086468e+00
1.00089653e+00
1.00092925e+00
1.00096270e+00
1.00099671e+00
1.00103103e+00
1.00106537e+00
1.00109934e+00
1.00113251e+00
1.00116437e+00
1.00119441e+00
1.00122203e+00
1.00124669e+00
1.00126785e+00
1.00128501e+00
1.00129781e+00
1.00130598e+00
1.00130940e+00
1.00130809e+00
1.00130228e+00
1.00129237e+00
1.00127884e+00
1.00126228e+00
1.00124353e+00
1.00122340e+00
1.00120255e+00
1.00118194e+00
1.00116243e+00
1.00114459e+00
1.00112922e+00
1.00111705e+00
1.00110812e+00
1.00110261e+00
1.00110365e+00
9.99141164e-01
9.99141987e-01
9.99141333e-01
9.99141811e-01
9.99142839e-01
9.99144274e-01
9.99146372e-01
9.99149386e-01
9.99153481e-01
9.99158932e-01
9.99165876e-01
9.99174490e-01
9.99184981e-01
9.99197481e-01
9.99212065e-01
9.99228809e-01
9.99247700e-01
9.99268651e-01
9.99291505e-01
9.99316026e-01
9.99341904e-01
9.99368772e-01
9.99396218e-01
9.99423811e-01
9.99451125e-01
9.99477761e-01
9.99503369e-01
9.99527665e-01
9.99550447e-01
9.99571595e-01
9.99591079e-01
9.99608945e-01
9.99625313e-01
9.99640358e-01
9.99654297e-01
9.99667369e-01
9.99679822e-01
9.99691897e-01
9.99703814e-01
9.99715768e-01
9.99727919e-01
9.99740392e-01
9.99753276e-01
9.99766630e-01
9.99780482e-01
9.99794841e-01
9.99809700e-01
9.99825041e-01
9.99840839e-01
9.99857070e-01
9.99873711e-01
9.99890739e-01
9.99908137e-01
9.99925889e-01
9.99943982e-01
9.99962401e-01
9.99981132e-01
1.00000016e+00
1.00001946e+00
1.00003900e+00
1.00005877e+00
1.00007872e+00
1.00009881e+00
1.00011901e+00
1.00013928e+00
1.00015957e+00
1.00017985e+00
1.00020008e+00
1.00022022e+00
1.00024026e+00
1.00026017e+00
1.00027994e+00
1.00029958e+00
1.00031909e+00
1.00033850e+00
1.00035782e+00
1.00037709e+00
1.00039637e+00
1.00041570e+00
1.00043514e+00
1.00045477e+00
1.00047466e+00
1.00049488e+00
1.00051552e+00
1.00053666e+00
1.00055838e+00
1.00058077e+00
1.00060391e+00
1.00062787e+00
1.00065272e+00
1.00067854e+00
1.00070535e+00
1.00073320e+00
1.00076209e+00
1.00079201e+00
1.00082290e+00
1.00085466e+00
1.00088714e+00
1.00092016e+00
1.00095343e+00
1.00098664e+00
1.00101939e+00
1.00105124e+00
1.00108167e+00
1.00111014e+00
1.00113612e+00
1.00115905e+00
1.00117843e+00
1.00119385e+00
1.00120498e+00
1.00121164e+00
1.00121378e+00
1.00121155e+00
1.00120520e+00
1.00119518e+00
1.00118207e+00
1.00116648e+00
1.00114911e+00
1.00113077e+00
1.00111218e+00
1.00109393e+00
1.00107677e+00
1.00106126e+00
1.00104788e+00
1.00103713e+00
1.00102894e+00
1.00102315e+00
1.00102307e+00
9.99280691e-01
9.99279026e-01
9.99275552e-01
9.99272802e-01
9.99270187e-01
9.99267599e-01
9.99265334e-01
9.99263757e-01
9.99263150e-01
9.99263829e-01
9.99266063e-01
9.99270177e-01
9.99276425e-01
9.99285025e-01
9.99296166e-01
9.99309964e-01
9.99326439e-01
9.99345536e-01
9.99367099e-01
9.99390871e-01
9.99416510e-01
9.99443598e-01
9.99471660e-01
9.99500196e-01
9.99528703e-01
9.99556702e-01
9.99583764e-01
9.99609533e-01
9.99633738e-01
9.99656198e-01
9.99676831e-01
9.99695642e-01
9.99712720e-01
9.99728214e-01
9.99742328e-01
9.99755294e-01
9.99767359e-01
9.99778768e-01
9.99789753e-01
9.99800519e-01
9.99811240e-01
9.99822055e-01
9.99833069e-01
9.99844354e-01
9.99855950e-01
9.99867876e-01
9.99880133e-01
9.99892710e-01
9.99905588e-01
9.99918745e-01
9.99932160e-01
9.99945815e-01
9.99959693e-01
9.99973784e-01
9.99988078e-01
1.00000257e+00
1.00001725e+00
1.00003211e+00
1.00004715e+00
1.00006235e+00
1.00007770e+00
1.00009318e+00
1.00010877e+00
1.00012446e+00
1.00014020e+00