# vtk DataFile Version 2.0
LBM Flow Field - Timestep 2830
ASCII
DATASET STRUCTURED_POINTS
DIMENSIONS 128 128 1
ORIGIN 0.0 0.0 0.0
SPACING 1.0 1.0 1.0
POINT_DATA 16384
SCALARS density double 1
LOOKUP_TABLE default
9.96397285e-01
9.96393398e-01
9.96390590e-01
9.96397955e-01
9.96408003e-01
9.96419168e-01
9.96433631e-01
9.96451381e-01
9.96471311e-01
9.96493575e-01
9.96518479e-01
9.96545822e-01
9.96575426e-01
9.96607338e-01
9.96641540e-01
9.96677937e-01
9.96716481e-01
9.96757147e-01
9.96799895e-01
9.96844681e-01
9.96891477e-01
9.96940259e-01
9.96991002e-01
9.97043689e-01
9.97098302e-01
9.97154830e-01
9.97213260e-01
9.97273582e-01
9.97335784e-01
9.97399854e-01
9.97465779e-01
9.97533540e-01
9.97603117e-01
9.97674483e-01
9.97747608e-01
9.97822454e-01
9.97898979e-01
9.97977132e-01
9.98056858e-01
9.98138095e-01
9.98220774e-01
9.98304823e-01
9.98390162e-01
9.98476711e-01
9.98564384e-01
9.98653095e-01
9.98742755e-01
9.98833278e-01
9.98924577e-01
9.99016568e-01
9.99109171e-01
9.99202311e-01
9.99295916e-01
9.99389923e-01
9.99484273e-01
9.99578916e-01
9.99673806e-01
9.99768908e-01
9.99864193e-01
9.99959638e-01
1.00005523e+00
1.00015095e+00
1.00024680e+00
1.00034279e+00
1.00043890e+00
1.00053516e+00
1.00063157e+00
1.00072814e+00
1.00082488e+00
1.00092179e+00
1.00101888e+00
1.00111616e+00
1.00121361e+00
1.00131123e+00
1.00140901e+00
1.00150692e+00
1.00160493e+00
1.00170301e+00
1.00180110e+00
1.00189915e+00
1.00199709e+00
1.00209484e+00
1.00219232e+00
1.00228942e+00
1.00238605e+00
1.00248209e+00
1.00257742e+00
1.00267190e+00
1.00276541e+00
1.00285779e+00
1.00294892e+00
1.00303864e+00
1.00312681e+00
1.00321329e+00
1.00329793e+00
1.00338059e+00
1.00346115e+00
1.00353947e+00
1.00361545e+00
1.00368897e+00
1.00375994e+00
1.00382828e+00
1.00389390e+00
1.00395677e+00
1.00401681e+00
1.00407401e+00
1.00412834e+00
1.00417979e+00
1.00422835e+00
1.00427404e+00
1.00431689e+00
1.00435691e+00
1.00439414e+00
1.00442865e+00
1.00446047e+00
1.00448962e+00
1.00451619e+00
1.00454030e+00
1.00456193e+00
1.00458103e+00
1.00459790e+00
1.00461270e+00
1.00462480e+00
1.00463423e+00
1.00464235e+00
1.00464810e+00
1.00464728e+00
1.00464543e+00
9.96393910e-01
9.96394867e-01
9.96395336e-01
9.96401986e-01
9.96411421e-01
9.96423271e-01
9.96437826e-01
9.96455289e-01
9.96475232e-01
9.96497630e-01
9.96522485e-01
9.96549766e-01
9.96579376e-01
9.96611279e-01
9.96645428e-01
9.96681780e-01
9.96720283e-01
9.96760898e-01
9.96803586e-01
9.96848314e-01
9.96895050e-01
9.96943769e-01
9.96994450e-01
9.97047073e-01
9.97101622e-01
9.97158086e-01
9.97216453e-01
9.97276711e-01
9.97338850e-01
9.97402857e-01
9.97468718e-01
9.97536415e-01
9.97605927e-01
9.97677227e-01
9.97750285e-01
9.97825064e-01
9.97901518e-01
9.97979600e-01
9.98059253e-01
9.98140415e-01
9.98223018e-01
9.98306988e-01
9.98392248e-01
9.98478716e-01
9.98566308e-01
9.98654937e-01
9.98744515e-01
9.98834957e-01
9.98926175e-01
9.99018087e-01
9.99110614e-01
9.99203679e-01
9.99297213e-01
9.99391151e-01
9.99485436e-01
9.99580016e-01
9.99674848e-01
9.99769895e-01
9.99865127e-01
9.99960523e-01
1.00005606e+00
1.00015174e+00
1.00024755e+00
1.00034349e+00
1.00043957e+00
1.00053578e+00
1.00063214e+00
1.00072866e+00
1.00082534e+00
1.00092219e+00
1.00101921e+00
1.00111641e+00
1.00121378e+00
1.00131132e+00
1.00140900e+00
1.00150680e+00
1.00160470e+00
1.00170265e+00
1.00180060e+00
1.00189851e+00
1.00199629e+00
1.00209388e+00
1.00219119e+00
1.00228812e+00
1.00238457e+00
1.00248042e+00
1.00257556e+00
1.00266985e+00
1.00276316e+00
1.00285535e+00
1.00294629e+00
1.00303582e+00
1.00312380e+00
1.00321010e+00
1.00329456e+00
1.00337706e+00
1.00345746e+00
1.00353564e+00
1.00361148e+00
1.00368488e+00
1.00375574e+00
1.00382398e+00
1.00388953e+00
1.00395233e+00
1.00401232e+00
1.00406948e+00
1.00412378e+00
1.00417521e+00
1.00422378e+00
1.00426949e+00
1.00431236e+00
1.00435243e+00
1.00438972e+00
1.00442428e+00
1.00445616e+00
1.00448541e+00
1.00451209e+00
1.00453627e+00
1.00455796e+00
1.00457724e+00
1.00459420e+00
1.00460890e+00
1.00462112e+00
1.00463100e+00
1.00463884e+00
1.00464437e+00
1.00464575e+00
1.00464683e+00
9.96391116e-01
9.96395183e-01
9.96402228e-01
9.96407255e-01
9.96415360e-01
9.96428242e-01
9.96443271e-01
9.96460262e-01
9.96480130e-01
9.96502706e-01
9.96527531e-01
9.96554699e-01
9.96584285e-01
9.96616158e-01
9.96650232e-01
9.96686504e-01
9.96724935e-01
9.96765465e-01
9.96808059e-01
9.96852692e-01
9.96899331e-01
9.96947949e-01
9.96998526e-01
9.97051045e-01
9.97105490e-01
9.97161849e-01
9.97220111e-01
9.97280266e-01
9.97342301e-01
9.97406206e-01
9.97471966e-01
9.97539564e-01
9.97608977e-01
9.97680180e-01
9.97753142e-01
9.97827825e-01
9.97904186e-01
9.97982174e-01
9.98061734e-01
9.98142804e-01
9.98225316e-01
9.98309196e-01
9.98394366e-01
9.98480745e-01
9.98568249e-01
9.98656792e-01
9.98746285e-01
9.98836643e-01
9.98927780e-01
9.99019614e-01
9.99112063e-01
9.99205055e-01
9.99298518e-01
9.99392389e-01
9.99486609e-01
9.99581128e-01
9.99675902e-01
9.99770893e-01
9.99866073e-01
9.99961418e-01
1.00005691e+00
1.00015254e+00
1.00024830e+00
1.00034420e+00
1.00044022e+00
1.00053638e+00
1.00063269e+00
1.00072915e+00
1.00082577e+00
1.00092255e+00
1.00101950e+00
1.00111661e+00
1.00121389e+00
1.00131133e+00
1.00140890e+00
1.00150658e+00
1.00160435e+00
1.00170216e+00
1.00179997e+00
1.00189772e+00
1.00199534e+00
1.00209276e+00
1.00218989e+00
1.00228663e+00
1.00238289e+00
1.00247854e+00
1.00257348e+00
1.00266756e+00
1.00276067e+00
1.00285266e+00
1.00294340e+00
1.00303273e+00
1.00312052e+00
1.00320663e+00
1.00329092e+00
1.00337324e+00
1.00345348e+00
1.00353150e+00
1.00360720e+00
1.00368047e+00
1.00375122e+00
1.00381935e+00
1.00388481e+00
1.00394752e+00
1.00400745e+00
1.00406455e+00
1.00411882e+00
1.00417022e+00
1.00421877e+00
1.00426448e+00
1.00430736e+00
1.00434745e+00
1.00438478e+00
1.00441938e+00
1.00445130e+00
1.00448063e+00
1.00450739e+00
1.00453158e+00
1.00455335e+00
1.00457285e+00
1.00458983e+00
1.00460428e+00
1.00461686e+00
1.00462746e+00
1.00463454e+00
1.00463926e+00
1.00464467e+00
1.00464781e+00
9.96397339e-01
9.96400337e-01
9.96405867e-01
9.96412490e-01
9.96422247e-01
9.96434432e-01
9.96449063e-01
9.96466448e-01
9.96486418e-01
9.96508760e-01
9.96533528e-01
9.96560712e-01
9.96590208e-01
9.96621963e-01
9.96655955e-01
9.96692133e-01
9.96730444e-01
9.96770853e-01
9.96813327e-01
9.96857831e-01
9.96904336e-01
9.96952819e-01
9.97003260e-01
9.97055641e-01
9.97109947e-01
9.97166168e-01
9.97224292e-01
9.97284309e-01
9.97346208e-01
9.97409979e-01
9.97475605e-01
9.97543072e-01
9.97612356e-01
9.97683432e-01
9.97756268e-01
9.97830827e-01
9.97907067e-01
9.97984936e-01
9.98064379e-01
9.98145333e-01
9.98227731e-01
9.98311500e-01
9.98396562e-01
9.98482836e-01
9.98570236e-01
9.98658678e-01
9.98748074e-01
9.98838338e-01
9.98929384e-01
9.99021130e-01
9.99113497e-01
9.99206408e-01
9.99299796e-01
9.99393595e-01
9.99487747e-01
9.99582202e-01
9.99676915e-01
9.99771850e-01
9.99866975e-01
9.99962267e-01
1.00005771e+00
1.00015329e+00
1.00024900e+00
1.00034484e+00
1.00044082e+00
1.00053692e+00
1.00063317e+00
1.00072957e+00
1.00082612e+00
1.00092282e+00
1.00101969e+00
1.00111672e+00
1.00121390e+00
1.00131122e+00
1.00140868e+00
1.00150624e+00
1.00160387e+00
1.00170153e+00
1.00179919e+00
1.00189677e+00
1.00199421e+00
1.00209145e+00
1.00218838e+00
1.00228493e+00
1.00238098e+00
1.00247643e+00
1.00257115e+00
1.00266502e+00
1.00275791e+00
1.00284969e+00
1.00294021e+00
1.00302933e+00
1.00311692e+00
1.00320283e+00
1.00328692e+00
1.00336906e+00
1.00344912e+00
1.00352698e+00
1.00360253e+00
1.00367565e+00
1.00374627e+00
1.00381428e+00
1.00387964e+00
1.00394226e+00
1.00400211e+00
1.00405915e+00
1.00411337e+00
1.00416474e+00
1.00421326e+00
1.00425896e+00
1.00430184e+00
1.00434193e+00
1.00437928e+00
1.00441392e+00
1.00444589e+00
1.00447525e+00
1.00450205e+00
1.00452636e+00
1.00454819e+00
1.00456761e+00
1.00458474e+00
1.00459953e+00
1.00461193e+00
1.00462217e+00
1.00463033e+00
1.00463618e+00
1.00464093e+00
1.00464353e+00
9.96405003e-01
9.96407413e-01
9.96411504e-01
9.96419699e-01
9.96429970e-01
9.96441521e-01
9.96456255e-01
9.96473937e-01
9.96493763e-01
9.96515923e-01
9.96540679e-01
9.96567805e-01
9.96597160e-01
9.96628789e-01
9.96662667e-01
9.96698706e-01
9.96736864e-01
9.96777121e-01
9.96819438e-01
9.96863777e-01
9.96910113e-01
9.96958426e-01
9.97008695e-01
9.97060902e-01
9.97115035e-01
9.97171082e-01
9.97229033e-01
9.97288879e-01
9.97350609e-01
9.97414211e-01
9.97479672e-01
9.97546975e-01
9.97616099e-01
9.97687017e-01
9.97759697e-01
9.97834104e-01
9.97910194e-01
9.97987916e-01
9.98067215e-01
9.98148029e-01
9.98230290e-01
9.98313925e-01
9.98398857e-01
9.98485004e-01
9.98572282e-01
9.98660606e-01
9.98749888e-01
9.98840043e-01
9.98930985e-01
9.99022632e-01
9.99114904e-01
9.99207727e-01
9.99301031e-01
9.99394752e-01
9.99488831e-01
9.99583218e-01
9.99677867e-01
9.99772742e-01
9.99867810e-01
9.99963049e-01
1.00005844e+00
1.00015397e+00
1.00024963e+00
1.00034542e+00
1.00044134e+00
1.00053739e+00
1.00063358e+00
1.00072991e+00
1.00082639e+00
1.00092302e+00
1.00101980e+00
1.00111674e+00
1.00121382e+00
1.00131103e+00
1.00140836e+00
1.00150578e+00
1.00160327e+00
1.00170078e+00
1.00179826e+00
1.00189567e+00
1.00199292e+00
1.00208996e+00
1.00218669e+00
1.00228302e+00
1.00237885e+00
1.00247407e+00
1.00256856e+00
1.00266220e+00
1.00275486e+00
1.00284640e+00
1.00293669e+00
1.00302558e+00
1.00311295e+00
1.00319863e+00
1.00328251e+00
1.00336445e+00
1.00344432e+00
1.00352199e+00
1.00359737e+00
1.00367034e+00
1.00374081e+00
1.00380869e+00
1.00387393e+00
1.00393645e+00
1.00399621e+00
1.00405318e+00
1.00410734e+00
1.00415866e+00
1.00420715e+00
1.00425283e+00
1.00429570e+00
1.00433580e+00
1.00437315e+00
1.00440782e+00
1.00443983e+00
1.00446922e+00
1.00449604e+00
1.00452043e+00
1.00454236e+00
1.00456176e+00
1.00457891e+00
1.00459397e+00
1.00460649e+00
1.00461644e+00
1.00462506e+00
1.00463190e+00
1.00463581e+00
1.00463820e+00
9.96412630e-01
9.96415658e-01
9.96420726e-01
9.96428202e-01
9.96437805e-01
9.96450212e-01
9.96465222e-01
9.96482401e-01
9.96502107e-01
9.96524409e-01
9.96549039e-01
9.96575940e-01
9.96605182e-01
9.96636698e-01
9.96670395e-01
9.96706248e-01
9.96744235e-01
9.96784306e-01
9.96826423e-01
9.96870561e-01
9.96916696e-01
9.96964802e-01
9.97014860e-01
9.97066858e-01
9.97120781e-01
9.97176619e-01
9.97234362e-01
9.97294001e-01
9.97355526e-01
9.97418926e-01
9.97484188e-01
9.97551295e-01
9.97620225e-01
9.97690953e-01
9.97763448e-01
9.97837672e-01
9.97913583e-01
9.97991131e-01
9.98070260e-01
9.98150908e-01
9.98233007e-01
9.98316486e-01
9.98401266e-01
9.98487266e-01
9.98574403e-01
9.98662591e-01
9.98751743e-01
9.98841774e-01
9.98932599e-01
9.99024135e-01
9.99116303e-01
9.99209028e-01
9.99302241e-01
9.99395876e-01
9.99489877e-01
9.99584190e-01
9.99678772e-01
9.99773583e-01
9.99868593e-01
9.99963776e-01
1.00005911e+00
1.00015459e+00
1.00025020e+00
1.00034594e+00
1.00044181e+00
1.00053780e+00
1.00063393e+00
1.00073020e+00
1.00082660e+00
1.00092315e+00
1.00101984e+00
1.00111668e+00
1.00121365e+00
1.00131074e+00
1.00140794e+00
1.00150522e+00
1.00160255e+00
1.00169989e+00
1.00179720e+00
1.00189441e+00
1.00199146e+00
1.00208829e+00
1.00218479e+00
1.00228089e+00
1.00237649e+00
1.00247146e+00
1.00256570e+00
1.00265909e+00
1.00275149e+00
1.00284278e+00
1.00293282e+00
1.00302146e+00
1.00310858e+00
1.00319402e+00
1.00327767e+00
1.00335939e+00
1.00343904e+00
1.00351652e+00
1.00359171e+00
1.00366450e+00
1.00373481e+00
1.00380255e+00
1.00386766e+00
1.00393006e+00
1.00398972e+00
1.00404661e+00
1.00410069e+00
1.00415196e+00
1.00420041e+00
1.00424605e+00
1.00428890e+00
1.00432900e+00
1.00436636e+00
1.00440103e+00
1.00443305e+00
1.00446249e+00
1.00448938e+00
1.00451373e+00
1.00453569e+00
1.00455531e+00
1.00457248e+00
1.00458731e+00
1.00460010e+00
1.00461066e+00
1.00461896e+00
1.00462542e+00
1.00462999e+00
1.00463277e+00
9.96422578e-01
9.96425573e-01
9.96430981e-01
9.96437993e-01
9.96447657e-01
9.96460323e-01
9.96475058e-01
9.96492112e-01
9.96511887e-01
9.96534059e-01
9.96558464e-01
9.96585234e-01
9.96614342e-01
9.96645655e-01
9.96679142e-01
9.96714799e-01
9.96752573e-01
9.96792414e-01
9.96834299e-01
9.96878204e-01
9.96924098e-01
9.96971960e-01
9.97021774e-01
9.97073526e-01
9.97127203e-01
9.97182795e-01
9.97240294e-01
9.97299691e-01
9.97360977e-01
9.97424141e-01
9.97489170e-01
9.97556048e-01
9.97624753e-01
9.97695260e-01
9.97767538e-01
9.97841551e-01
9.97917254e-01
9.97994600e-01
9.98073533e-01
9.98153990e-01
9.98235904e-01
9.98319203e-01
9.98403810e-01
9.98489643e-01
9.98576620e-01
9.98664655e-01
9.98753662e-01
9.98843555e-01
9.98934249e-01
9.99025662e-01
9.99117715e-01
9.99210333e-01
9.99303446e-01
9.99396989e-01
9.99490903e-01
9.99585138e-01
9.99679647e-01
9.99774391e-01
9.99869338e-01
9.99964462e-01
1.00005974e+00
1.00015517e+00
1.00025072e+00
1.00034641e+00
1.00044222e+00
1.00053815e+00
1.00063422e+00
1.00073041e+00
1.00082674e+00
1.00092320e+00
1.00101980e+00
1.00111653e+00
1.00121338e+00
1.00131035e+00
1.00140740e+00
1.00150453e+00
1.00160169e+00
1.00169885e+00
1.00179597e+00
1.00189297e+00
1.00198981e+00
1.00208640e+00
1.00218267e+00
1.00227852e+00
1.00237386e+00
1.00246857e+00
1.00256254e+00
1.00265566e+00
1.00274779e+00
1.00283880e+00
1.00292856e+00
1.00301693e+00
1.00310378e+00
1.00318897e+00
1.00327237e+00
1.00335384e+00
1.00343326e+00
1.00351052e+00
1.00358550e+00
1.00365810e+00
1.00372824e+00
1.00379582e+00
1.00386077e+00
1.00392305e+00
1.00398260e+00
1.00403938e+00
1.00409338e+00
1.00414458e+00
1.00419297e+00
1.00423858e+00
1.00428140e+00
1.00432147e+00
1.00435883e+00
1.00439351e+00
1.00442553e+00
1.00445498e+00
1.00448191e+00
1.00450632e+00
1.00452826e+00
1.00454791e+00
1.00456522e+00
1.00458007e+00
1.00459280e+00
1.00460361e+00
1.00461198e+00
1.00461819e+00
1.00462296e+00
1.00462572e+00
9.96434718e-01
9.96437236e-01
9.96442073e-01
9.96449409e-01
9.96459313e-01
9.96471443e-01
9.96486037e-01
9.96503315e-01
9.96522908e-01
9.96544765e-01
9.96569068e-01
9.96595723e-01
9.96624581e-01
9.96655652e-01
9.96688936e-01
9.96724359e-01
9.96761868e-01
9.96801450e-01
9.96843076e-01
9.96886707e-01
9.96932323e-01
9.96979907e-01
9.97029441e-01
9.97080911e-01
9.97134307e-01
9.97189619e-01
9.97246840e-01
9.97305961e-01
9.97366974e-01
9.97429869e-01
9.97494632e-01
9.97561248e-01
9.97629697e-01
9.97699953e-01
9.97771985e-01
9.97845757e-01
9.97921226e-01
9.97998343e-01
9.98077053e-01
9.98157294e-01
9.98239000e-01
9.98322097e-01
9.98406510e-01
9.98492157e-01
9.98578955e-01
9.98666820e-01
9.98755665e-01
9.98845405e-01
9.98935954e-01
9.99027232e-01
9.99119158e-01
9.99211658e-01
9.99304662e-01
9.99398104e-01
9.99491926e-01
9.99586075e-01
9.99680505e-01
9.99775176e-01
9.99870056e-01
9.99965116e-01
1.00006034e+00
1.00015570e+00
1.00025120e+00
1.00034683e+00
1.00044257e+00
1.00053844e+00
1.00063444e+00
1.00073056e+00
1.00082680e+00
1.00092317e+00
1.00101967e+00
1.00111628e+00
1.00121301e+00
1.00130983e+00
1.00140674e+00
1.00150370e+00
1.00160068e+00
1.00169765e+00
1.00179456e+00
1.00189134e+00
1.00198794e+00
1.00208429e+00
1.00218030e+00
1.00227589e+00
1.00237095e+00
1.00246538e+00
1.00255906e+00
1.00265188e+00
1.00274372e+00
1.00283443e+00
1.00292390e+00
1.00301198e+00
1.00309854e+00
1.00318345e+00
1.00326658e+00
1.00334779e+00
1.00342696e+00
1.00350398e+00
1.00357874e+00
1.00365114e+00
1.00372107e+00
1.00378848e+00
1.00385327e+00
1.00391540e+00
1.00397482e+00
1.00403149e+00
1.00408540e+00
1.00413651e+00
1.00418484e+00
1.00423038e+00
1.00427317e+00
1.00431321e+00
1.00435054e+00
1.00438521e+00
1.00441726e+00
1.00444670e+00
1.00447361e+00
1.00449808e+00
1.00452009e+00
1.00453965e+00
1.00455697e+00
1.00457207e+00
1.00458480e+00
1.00459533e+00
1.00460391e+00
1.00461038e+00
1.00461478e+00
1.00461718e+00
9.96447927e-01
9.96450315e-01
9.96454939e-01
9.96462272e-01
9.96471972e-01
9.96483943e-01
9.96498579e-01
9.96515662e-01
9.96534991e-01
9.96556746e-01
9.96580896e-01
9.96607277e-01
9.96635889e-01
9.96666744e-01
9.96699766e-01
9.96734898e-01
9.96772126e-01
9.96811422e-01
9.96852744e-01
9.96896067e-01
9.96941375e-01
9.96988646e-01
9.97037864e-01
9.97089018e-01
9.97142099e-01
9.97197097e-01
9.97254006e-01
9.97312818e-01
9.97373525e-01
9.97436118e-01
9.97500585e-01
9.97566909e-01
9.97635071e-01
9.97705045e-01
9.97776803e-01
9.97850306e-01
9.97925513e-01
9.98002376e-01
9.98080838e-01
9.98160840e-01
9.98242313e-01
9.98325187e-01
9.98409384e-01
9.98494824e-01
9.98581426e-01
9.98669102e-01
9.98757769e-01
9.98847340e-01
9.98937731e-01
9.99028860e-01
9.99120648e-01
9.99213019e-01
9.99305903e-01
9.99399235e-01
9.99492955e-01
9.99587011e-01
9.99681354e-01
9.99775946e-01
9.99870751e-01
9.99965742e-01
1.00006090e+00
1.00015620e+00
1.00025163e+00
1.00034719e+00
1.00044287e+00
1.00053867e+00
1.00063459e+00
1.00073062e+00
1.00082678e+00
1.00092305e+00
1.00101943e+00
1.00111592e+00
1.00121252e+00
1.00130919e+00
1.00140593e+00
1.00150271e+00
1.00159951e+00
1.00169627e+00
1.00179295e+00
1.00188950e+00
1.00198585e+00
1.00208193e+00
1.00217767e+00
1.00227297e+00
1.00236773e+00
1.00246186e+00
1.00255524e+00
1.00264774e+00
1.00273926e+00
1.00282966e+00
1.00291881e+00
1.00300658e+00
1.00309284e+00
1.00317745e+00
1.00326028e+00
1.00334121e+00
1.00342012e+00
1.00349688e+00
1.00357140e+00
1.00364357e+00
1.00371329e+00
1.00378050e+00
1.00384512e+00
1.00390709e+00
1.00396637e+00
1.00402291e+00
1.00407670e+00
1.00412772e+00
1.00417596e+00
1.00422144e+00
1.00426417e+00
1.00430418e+00
1.00434148e+00
1.00437612e+00
1.00440815e+00
1.00443761e+00
1.00446451e+00
1.00448895e+00
1.00451100e+00
1.00453063e+00
1.00454790e+00
1.00456298e+00
1.00457582e+00
1.00458633e+00
1.00459484e+00
1.00460132e+00
1.00460557e+00
1.00460787e+00
9.96462324e-01
9.96464696e-01
9.96469378e-01
9.96476391e-01
9.96485840e-01
9.96497900e-01
9.96512371e-01
9.96529119e-01
9.96548336e-01
9.96569961e-01
9.96593811e-01
9.96619921e-01
9.96648315e-01
9.96678892e-01
9.96711595e-01
9.96746425e-01
9.96783348e-01
9.96822314e-01
9.96863298e-01
9.96906285e-01
9.96951250e-01
9.96998173e-01
9.97047043e-01
9.97097849e-01
9.97150581e-01
9.97205232e-01
9.97261797e-01
9.97320268e-01
9.97380638e-01
9.97442899e-01
9.97507037e-01
9.97573040e-01
9.97640885e-01
9.97710550e-01
9.97782005e-01
9.97855213e-01
9.97930132e-01
9.98006714e-01
9.98084904e-01
9.98164641e-01
9.98245860e-01
9.98328488e-01
9.98412449e-01
9.98497663e-01
9.98584048e-01
9.98671519e-01
9.98759991e-01
9.98849378e-01
9.98939596e-01
9.99030562e-01
9.99122198e-01
9.99214428e-01
9.99307182e-01
9.99400393e-01
9.99494002e-01
9.99587955e-01
9.99682205e-01
9.99776709e-01
9.99871433e-01
9.99966347e-01
1.00006143e+00
1.00015666e+00
1.00025202e+00
1.00034751e+00
1.00044312e+00
1.00053884e+00
1.00063467e+00
1.00073061e+00
1.00082667e+00
1.00092283e+00
1.00101909e+00
1.00111545e+00
1.00121189e+00
1.00130841e+00
1.00140497e+00
1.00150156e+00
1.00159815e+00
1.00169468e+00
1.00179113e+00
1.00188742e+00
1.00198351e+00
1.00207932e+00
1.00217476e+00
1.00226975e+00
1.00236420e+00
1.00245801e+00
1.00255106e+00
1.00264323e+00
1.00273441e+00
1.00282448e+00
1.00291329e+00
1.00300073e+00
1.00308666e+00
1.00317095e+00
1.00325347e+00
1.00333410e+00
1.00341272e+00
1.00348921e+00
1.00356347e+00
1.00363539e+00
1.00370489e+00
1.00377188e+00
1.00383631e+00
1.00389810e+00
1.00395722e+00
1.00401362e+00
1.00406728e+00
1.00411819e+00
1.00416635e+00
1.00421175e+00
1.00425441e+00
1.00429435e+00
1.00433162e+00
1.00436623e+00
1.00439821e+00
1.00442766e+00
1.00445458e+00
1.00447900e+00
1.00450100e+00
1.00452068e+00
1.00453800e+00
1.00455298e+00
1.00456580e+00
1.00457645e+00
1.00458485e+00
1.00459115e+00
1.00459545e+00
1.00459772e+00
9.96478218e-01
9.96480411e-01
9.96484946e-01
9.96491813e-01
9.96501178e-01
9.96513057e-01
9.96527264e-01
9.96543882e-01
9.96562928e-01
9.96584245e-01
9.96607831e-01
9.96633715e-01
9.96661807e-01
9.96692048e-01
9.96724438e-01
9.96758944e-01
9.96795510e-01
9.96834114e-01
9.96874738e-01
9.96917355e-01
9.96961942e-01
9.97008486e-01
9.97056977e-01
9.97107402e-01
9.97159754e-01
9.97214028e-01
9.97270217e-01
9.97328317e-01
9.97388320e-01
9.97450218e-01
9.97514000e-01
9.97579651e-01
9.97647153e-01
9.97716481e-01
9.97787605e-01
9.97860491e-01
9.97935097e-01
9.98011373e-01
9.98089267e-01
9.98168718e-01
9.98249659e-01
9.98332020e-01
9.98415724e-01
9.98500692e-01
9.98586842e-01
9.98674090e-01
9.98762349e-01
9.98851536e-01
9.98941565e-01
9.99032355e-01
9.99123826e-01
9.99215902e-01
9.99308514e-01
9.99401593e-01
9.99495081e-01
9.99588922e-01
9.99683068e-01
9.99777476e-01
9.99872109e-01
9.99966938e-01
1.00006194e+00
1.00015709e+00
1.00025237e+00
1.00034778e+00
1.00044330e+00
1.00053894e+00
1.00063468e+00
1.00073052e+00
1.00082646e+00
1.00092250e+00
1.00101863e+00
1.00111485e+00
1.00121113e+00
1.00130747e+00
1.00140385e+00
1.00150024e+00
1.00159660e+00
1.00169290e+00
1.00178909e+00
1.00188511e+00
1.00198092e+00
1.00207642e+00
1.00217155e+00
1.00226623e+00
1.00236034e+00
1.00245381e+00
1.00254650e+00
1.00263833e+00
1.00272915e+00
1.00281886e+00
1.00290732e+00
1.00299440e+00
1.00307998e+00
1.00316393e+00
1.00324613e+00
1.00332643e+00
1.00340474e+00
1.00348094e+00
1.00355492e+00
1.00362657e+00
1.00369583e+00
1.00376260e+00
1.00382681e+00
1.00388841e+00
1.00394735e+00
1.00400360e+00
1.00405712e+00
1.00410790e+00
1.00415594e+00
1.00420125e+00
1.00424383e+00
1.00428371e+00
1.00432091e+00
1.00435548e+00
1.00438744e+00
1.00441683e+00
1.00444373e+00
1.00446816e+00
1.00449014e+00
1.00450977e+00
1.00452710e+00
1.00454211e+00
1.00455486e+00
1.00456547e+00
1.00457387e+00
1.00458011e+00
1.00458432e+00
1.00458648e+00
9.96495390e-01
9.96497404e-01
9.96501731e-01
9.96508532e-01
9.96517769e-01
9.96529369e-01
9.96543400e-01
9.96559870e-01
9.96578618e-01
9.96599649e-01
9.96623002e-01
9.96648581e-01
9.96676322e-01
9.96706236e-01
9.96738289e-01
9.96772418e-01
9.96808601e-01
9.96846824e-01
9.96887054e-01
9.96929266e-01
9.96973447e-01
9.97019584e-01
9.97067664e-01
9.97117678e-01
9.97169621e-01
9.97223487e-01
9.97279272e-01
9.97336971e-01
9.97396578e-01
9.97458085e-01
9.97521483e-01
9.97586756e-01
9.97653887e-01
9.97722851e-01
9.97793620e-01
9.97866159e-01
9.97940426e-01
9.98016373e-01
9.98093948e-01
9.98173089e-01
9.98253731e-01
9.98335803e-01
9.98419230e-01
9.98503933e-01
9.98589829e-01
9.98676835e-01
9.98764865e-01
9.98853835e-01
9.98943660e-01
9.99034259e-01
9.99125551e-01
9.99217460e-01
9.99309917e-01
9.99402853e-01
9.99496208e-01
9.99589925e-01
9.99683957e-01
9.99778258e-01
9.99872792e-01
9.99967526e-01
1.00006243e+00
1.00015749e+00
1.00025269e+00
1.00034801e+00
1.00044344e+00
1.00053898e+00
1.00063461e+00
1.00073035e+00
1.00082617e+00
1.00092208e+00
1.00101806e+00
1.00111412e+00
1.00121023e+00
1.00130639e+00
1.00140256e+00
1.00149872e+00
1.00159485e+00
1.00169089e+00
1.00178681e+00
1.00188255e+00
1.00197805e+00
1.00207324e+00
1.00216804e+00
1.00226237e+00
1.00235614e+00
1.00244924e+00
1.00254157e+00
1.00263302e+00
1.00272347e+00
1.00281280e+00
1.00290088e+00
1.00298759e+00
1.00307281e+00
1.00315640e+00
1.00323824e+00
1.00331820e+00
1.00339619e+00
1.00347207e+00
1.00354575e+00
1.00361712e+00
1.00368611e+00
1.00375263e+00
1.00381662e+00
1.00387801e+00
1.00393676e+00
1.00399283e+00
1.00404620e+00
1.00409684e+00
1.00414476e+00
1.00418996e+00
1.00423244e+00
1.00427224e+00
1.00430937e+00
1.00434387e+00
1.00437579e+00
1.00440514e+00
1.00443198e+00
1.00445638e+00
1.00447837e+00
1.00449795e+00
1.00451522e+00
1.00453026e+00
1.00454300e+00
1.00455350e+00
1.00456188e+00
1.00456813e+00
1.00457222e+00
1.00457426e+00
9.96513673e-01
9.96515601e-01
9.96519816e-01
9.96526448e-01
9.96535480e-01
9.96546912e-01
9.96560763e-01
9.96576945e-01
9.96595418e-01
9.96616210e-01
9.96639248e-01
9.96664470e-01
9.96691880e-01
9.96721445e-01
9.96753104e-01
9.96786835e-01
9.96822622e-01
9.96860430e-01
9.96900232e-01
9.96942015e-01
9.96985764e-01
9.97031463e-01
9.97079103e-01
9.97128679e-01
9.97180184e-01
9.97233615e-01
9.97288967e-01
9.97346238e-01
9.97405422e-01
9.97466512e-01
9.97529499e-01
9.97594368e-01
9.97661102e-01
9.97729678e-01
9.97800067e-01
9.97872234e-01
9.97946139e-01
9.98021734e-01
9.98098967e-01
9.98177776e-01
9.98258098e-01
9.98339861e-01
9.98422991e-01
9.98507408e-01
9.98593032e-01
9.98679778e-01
9.98767562e-01
9.98856298e-01
9.98945904e-01
9.99036295e-01
9.99127393e-01
9.99219123e-01
9.99311410e-01
9.99404190e-01
9.99497399e-01
9.99590982e-01
9.99684887e-01
9.99779071e-01
9.99873493e-01
9.99968121e-01
1.00006293e+00
1.00015789e+00
1.00025299e+00
1.00034820e+00
1.00044353e+00
1.00053896e+00
1.00063448e+00
1.00073009e+00
1.00082578e+00
1.00092155e+00
1.00101737e+00
1.00111326e+00
1.00120919e+00
1.00130514e+00
1.00140109e+00
1.00149702e+00
1.00159289e+00
1.00168867e+00
1.00178430e+00
1.00187973e+00
1.00197491e+00
1.00206977e+00
1.00216422e+00
1.00225819e+00
1.00235158e+00
1.00244430e+00
1.00253624e+00
1.00262729e+00
1.00271735e+00
1.00280628e+00
1.00289396e+00
1.00298028e+00
1.00306510e+00
1.00314831e+00
1.00322978e+00
1.00330939e+00
1.00338702e+00
1.00346257e+00
1.00353593e+00
1.00360701e+00
1.00367571e+00
1.00374197e+00
1.00380571e+00
1.00386687e+00
1.00392541e+00
1.00398129e+00
1.00403448e+00
1.00408497e+00
1.00413275e+00
1.00417782e+00
1.00422019e+00
1.00425989e+00
1.00429694e+00
1.00433136e+00
1.00436321e+00
1.00439252e+00
1.00441932e+00
1.00444365e+00
1.00446560e+00
1.00448517e+00
1.00450241e+00
1.00451737e+00
1.00453010e+00
1.00454059e+00
1.00454890e+00
1.00455507e+00
1.00455912e+00
1.00456112e+00
9.96533120e-01
9.96534957e-01
9.96539069e-01
9.96545516e-01
9.96554362e-01
9.96565625e-01
9.96579226e-01
9.96595127e-01
9.96613351e-01
9.96633840e-01
9.96656523e-01
9.96681406e-01
9.96708461e-01
9.96737625e-01
9.96768874e-01
9.96802196e-01
9.96837552e-01
9.96874913e-01
9.96914267e-01
9.96955597e-01
9.96998884e-01
9.97044118e-01
9.97091294e-01
9.97140405e-01
9.97191446e-01
9.97244415e-01
9.97299310e-01
9.97356127e-01
9.97414863e-01
9.97475511e-01
9.97538062e-01
9.97602503e-01
9.97668817e-01
9.97736980e-01
9.97806966e-01
9.97878739e-01
9.97952259e-01
9.98027480e-01
9.98104348e-01
9.98182804e-01
9.98262785e-01
9.98344218e-01
9.98427031e-01
9.98511144e-01
9.98596477e-01
9.98682945e-01
9.98770464e-01
9.98858951e-01
9.98948319e-01
9.99038488e-01
9.99129377e-01
9.99220910e-01
9.99313015e-01
9.99405624e-01
9.99498674e-01
9.99592109e-01
9.99685875e-01
9.99779928e-01
9.99874227e-01
9.99968738e-01
1.00006343e+00
1.00015828e+00
1.00025326e+00
1.00034837e+00
1.00044358e+00
1.00053889e+00
1.00063428e+00
1.00072976e+00
1.00082530e+00
1.00092091e+00
1.00101656e+00
1.00111226e+00
1.00120799e+00
1.00130372e+00
1.00139944e+00
1.00149512e+00
1.00159072e+00
1.00168620e+00
1.00178153e+00
1.00187664e+00
1.00197148e+00
1.00206598e+00
1.00216007e+00
1.00225365e+00
1.00234665e+00
1.00243897e+00
1.00253050e+00
1.00262114e+00
1.00271078e+00
1.00279929e+00
1.00288655e+00
1.00297246e+00
1.00305687e+00
1.00313968e+00
1.00322075e+00
1.00329998e+00
1.00337725e+00
1.00345244e+00
1.00352547e+00
1.00359622e+00
1.00366463e+00
1.00373060e+00
1.00379407e+00
1.00385499e+00
1.00391330e+00
1.00396897e+00
1.00402197e+00
1.00407228e+00
1.00411991e+00
1.00416484e+00
1.00420709e+00
1.00424667e+00
1.00428362e+00
1.00431796e+00
1.00434972e+00
1.00437895e+00
1.00440570e+00
1.00442998e+00
1.00445186e+00
1.00447139e+00
1.00448860e+00
1.00450351e+00
1.00451618e+00
1.00452665e+00
1.00453491e+00
1.00454102e+00
1.00454503e+00
1.00454700e+00
9.96553720e-01
9.96555438e-01
9.96559409e-01
9.96565716e-01
9.96574391e-01
9.96585420e-01
9.96598765e-01
9.96614421e-01
9.96632348e-01
9.96652488e-01
9.96674835e-01
9.96699362e-01
9.96726013e-01
9.96754762e-01
9.96785595e-01
9.96818475e-01
9.96853371e-01
9.96890269e-01
9.96929153e-01
9.96970000e-01
9.97012801e-01
9.97057549e-01
9.97104237e-01
9.97152858e-01
9.97203411e-01
9.97255895e-01
9.97310308e-01
9.97366649e-01
9.97424913e-01
9.97485096e-01
9.97547188e-01
9.97611178e-01
9.97677048e-01
9.97744777e-01
9.97814337e-01
9.97885694e-01
9.97958808e-01
9.98033633e-01
9.98110116e-01
9.98188199e-01
9.98267818e-01
9.98348902e-01
9.98431378e-01
9.98515167e-01
9.98600190e-01
9.98686361e-01
9.98773599e-01
9.98861817e-01
9.98950931e-01
9.99040861e-01
9.99131525e-01
9.99222846e-01
9.99314753e-01
9.99407176e-01
9.99500053e-01
9.99593324e-01
9.99686937e-01
9.99780846e-01
9.99875008e-01
9.99969386e-01
1.00006395e+00
1.00015867e+00
1.00025354e+00
1.00034851e+00
1.00044360e+00
1.00053877e+00
1.00063402e+00
1.00072934e+00
1.00082473e+00
1.00092016e+00
1.00101563e+00
1.00111113e+00
1.00120663e+00
1.00130213e+00
1.00139760e+00
1.00149301e+00
1.00158832e+00
1.00168350e+00
1.00177850e+00
1.00187327e+00
1.00196775e+00
1.00206188e+00
1.00215557e+00
1.00224876e+00
1.00234135e+00
1.00243324e+00
1.00252434e+00
1.00261455e+00
1.00270374e+00
1.00279181e+00
1.00287864e+00
1.00296411e+00
1.00304809e+00
1.00313047e+00
1.00321114e+00
1.00328996e+00
1.00336684e+00
1.00344166e+00
1.00351432e+00
1.00358474e+00
1.00365282e+00
1.00371849e+00
1.00378167e+00
1.00384232e+00
1.00390039e+00
1.00395583e+00
1.00400862e+00
1.00405875e+00
1.00410619e+00
1.00415097e+00
1.00419307e+00
1.00423253e+00
1.00426936e+00
1.00430359e+00
1.00433527e+00
1.00436441e+00
1.00439107e+00
1.00441530e+00
1.00443712e+00
1.00445658e+00
1.00447374e+00
1.00448862e+00
1.00450124e+00
1.00451165e+00
1.00451987e+00
1.00452594e+00
1.00452990e+00
1.00453182e+00
9.96575383e-01
9.96576998e-01
9.96580836e-01
9.96586994e-01
9.96595479e-01
9.96606274e-01
9.96619376e-01
9.96634754e-01
9.96652353e-01
9.96672159e-01
9.96694154e-01
9.96718283e-01
9.96744519e-01
9.96772849e-01
9.96803236e-01
9.96835647e-01
9.96870070e-01
9.96906486e-01
9.96944872e-01
9.96985217e-01
9.97027514e-01
9.97071753e-01
9.97117928e-01
9.97166038e-01
9.97216083e-01
9.97268060e-01
9.97321970e-01
9.97377812e-01
9.97435583e-01
9.97495279e-01
9.97556892e-01
9.97620410e-01
9.97685816e-01
9.97753090e-01
9.97822203e-01
9.97893123e-01
9.97965810e-01
9.98040219e-01
9.98116297e-01
9.98193986e-01
9.98273223e-01
9.98353938e-01
9.98436058e-01
9.98519504e-01
9.98604197e-01
9.98690054e-01
9.98776991e-01
9.98864923e-01
9.98953766e-01
9.99043438e-01
9.99133859e-01
9.99224953e-01
9.99316644e-01
9.99408866e-01
9.99501552e-01
9.99594645e-01
9.99688090e-01
9.99781839e-01
9.99875848e-01
9.99970080e-01
1.00006450e+00
1.00015908e+00
1.00025381e+00
1.00034864e+00
1.00044358e+00