# vtk DataFile Version 2.0
LBM Flow Field - Timestep 630
ASCII
DATASET STRUCTURED_POINTS
DIMENSIONS 128 128 1
ORIGIN 0.0 0.0 0.0
SPACING 1.0 1.0 1.0
POINT_DATA 16384
SCALARS density double 1
LOOKUP_TABLE default
9.95130457e-01
9.95129226e-01
9.95127794e-01
9.95127494e-01
9.95127536e-01
9.95127819e-01
9.95128628e-01
9.95129960e-01
9.95131661e-01
9.95133734e-01
9.95136209e-01
9.95139064e-01
9.95142285e-01
9.95145891e-01
9.95149899e-01
9.95154314e-01
9.95159151e-01
9.95164435e-01
9.95170192e-01
9.95176456e-01
9.95183274e-01
9.95190711e-01
9.95198852e-01
9.95207813e-01
9.95217748e-01
9.95228865e-01
9.95241434e-01
9.95255810e-01
9.95272444e-01
9.95291901e-01
9.95314879e-01
9.95342216e-01
9.95374897e-01
9.95414051e-01
9.95460936e-01
9.95516910e-01
9.95583382e-01
9.95661756e-01
9.95753352e-01
9.95859318e-01
9.95980532e-01
9.96117511e-01
9.96270326e-01
9.96438532e-01
9.96621143e-01
9.96816625e-01
9.97022950e-01
9.97237679e-01
9.97458088e-01
9.97681323e-01
9.97904564e-01
9.98125183e-01
9.98340885e-01
9.98549811e-01
9.98750593e-01
9.98942365e-01
9.99124730e-01
9.99297685e-01
9.99461531e-01
9.99616779e-01
9.99764058e-01
9.99904053e-01
1.00003747e+00
1.00016502e+00
1.00028746e+00
1.00040562e+00
1.00052048e+00
1.00063317e+00
1.00074503e+00
1.00085760e+00
1.00097260e+00
1.00109181e+00
1.00121704e+00
1.00134993e+00
1.00149188e+00
1.00164389e+00
1.00180644e+00
1.00197945e+00
1.00216220e+00
1.00235339e+00
1.00255114e+00
1.00275313e+00
1.00295671e+00
1.00315902e+00
1.00335722e+00
1.00354858e+00
1.00373063e+00
1.00390131e+00
1.00405901e+00
1.00420263e+00
1.00433157e+00
1.00444574e+00
1.00454549e+00
1.00463151e+00
1.00470480e+00
1.00476654e+00
1.00481803e+00
1.00486059e+00
1.00489552e+00
1.00492405e+00
1.00494729e+00
1.00496622e+00
1.00498169e+00
1.00499441e+00
1.00500497e+00
1.00501383e+00
1.00502137e+00
1.00502786e+00
1.00503353e+00
1.00503854e+00
1.00504300e+00
1.00504699e+00
1.00505058e+00
1.00505381e+00
1.00505670e+00
1.00505927e+00
1.00506153e+00
1.00506350e+00
1.00506518e+00
1.00506653e+00
1.00506758e+00
1.00506833e+00
1.00506863e+00
1.00506850e+00
1.00506819e+00
1.00506765e+00
1.00506622e+00
1.00506505e+00
9.95129855e-01
9.95129366e-01
9.95128560e-01
9.95128442e-01
9.95128613e-01
9.95129120e-01
9.95130012e-01
9.95131349e-01
9.95133067e-01
9.95135161e-01
9.95137634e-01
9.95140487e-01
9.95143716e-01
9.95147331e-01
9.95151343e-01
9.95155765e-01
9.95160614e-01
9.95165912e-01
9.95171687e-01
9.95177978e-01
9.95184835e-01
9.95192327e-01
9.95200543e-01
9.95209608e-01
9.95219685e-01
9.95230993e-01
9.95243815e-01
9.95258521e-01
9.95275578e-01
9.95295569e-01
9.95319205e-01
9.95347339e-01
9.95380963e-01
9.95421207e-01
9.95469320e-01
9.95526637e-01
9.95594532e-01
9.95674360e-01
9.95767375e-01
9.95874649e-01
9.95996975e-01
9.96134785e-01
9.96288067e-01
9.96456317e-01
9.96638502e-01
9.96833081e-01
9.97038050e-01
9.97251029e-01
9.97469388e-01
9.97690391e-01
9.97911347e-01
9.98129756e-01
9.98343437e-01
9.98550621e-01
9.98749993e-01
9.98940709e-01
9.99122354e-01
9.99294886e-01
9.99458551e-01
9.99613797e-01
9.99761201e-01
9.99901405e-01
1.00003509e+00
1.00016296e+00
1.00028579e+00
1.00040441e+00
1.00051981e+00
1.00063310e+00
1.00074563e+00
1.00085888e+00
1.00097450e+00
1.00109422e+00
1.00121975e+00
1.00135266e+00
1.00149430e+00
1.00164561e+00
1.00180708e+00
1.00197863e+00
1.00215962e+00
1.00234880e+00
1.00254442e+00
1.00274425e+00
1.00294576e+00
1.00314621e+00
1.00334284e+00
1.00353299e+00
1.00371425e+00
1.00388455e+00
1.00404229e+00
1.00418632e+00
1.00431600e+00
1.00443117e+00
1.00453210e+00
1.00461941e+00
1.00469404e+00
1.00475711e+00
1.00480986e+00
1.00485359e+00
1.00488957e+00
1.00491902e+00
1.00494305e+00
1.00496264e+00
1.00497865e+00
1.00499181e+00
1.00500271e+00
1.00501184e+00
1.00501958e+00
1.00502623e+00
1.00503201e+00
1.00503709e+00
1.00504160e+00
1.00504562e+00
1.00504923e+00
1.00505247e+00
1.00505537e+00
1.00505794e+00
1.00506020e+00
1.00506217e+00
1.00506384e+00
1.00506520e+00
1.00506627e+00
1.00506703e+00
1.00506742e+00
1.00506751e+00
1.00506736e+00
1.00506701e+00
1.00506613e+00
1.00506562e+00
9.95129247e-01
9.95129215e-01
9.95129443e-01
9.95129292e-01
9.95129440e-01
9.95130175e-01
9.95131195e-01
9.95132502e-01
9.95134224e-01
9.95136350e-01
9.95138828e-01
9.95141675e-01
9.95144912e-01
9.95148537e-01
9.95152553e-01
9.95156983e-01
9.95161844e-01
9.95167157e-01
9.95172953e-01
9.95179275e-01
9.95186174e-01
9.95193722e-01
9.95202017e-01
9.95211189e-01
9.95221410e-01
9.95232909e-01
9.95245983e-01
9.95261015e-01
9.95278487e-01
9.95298999e-01
9.95323278e-01
9.95352188e-01
9.95386730e-01
9.95428036e-01
9.95477347e-01
9.95535978e-01
9.95605274e-01
9.95686540e-01
9.95780972e-01
9.95889568e-01
9.96013044e-01
9.96151748e-01
9.96305593e-01
9.96474008e-01
9.96655920e-01
9.96849772e-01
9.97053576e-01
9.97265005e-01
9.97481511e-01
9.97700459e-01
9.97919279e-01
9.98135590e-01
9.98347321e-01
9.98552786e-01
9.98750729e-01
9.98940329e-01
9.99121166e-01
9.99293167e-01
9.99456531e-01
9.99611655e-01
9.99759064e-01
9.99899363e-01
1.00003321e+00
1.00016130e+00
1.00028440e+00
1.00040337e+00
1.00051917e+00
1.00063293e+00
1.00074596e+00
1.00085972e+00
1.00097580e+00
1.00109585e+00
1.00122152e+00
1.00135432e+00
1.00149553e+00
1.00164607e+00
1.00180643e+00
1.00197655e+00
1.00215583e+00
1.00234313e+00
1.00253676e+00
1.00273462e+00
1.00293427e+00
1.00313308e+00
1.00332835e+00
1.00351750e+00
1.00369814e+00
1.00386823e+00
1.00402612e+00
1.00417066e+00
1.00430113e+00
1.00441731e+00
1.00451941e+00
1.00460800e+00
1.00468392e+00
1.00474827e+00
1.00480223e+00
1.00484708e+00
1.00488407e+00
1.00491440e+00
1.00493918e+00
1.00495941e+00
1.00497595e+00
1.00498954e+00
1.00500078e+00
1.00501018e+00
1.00501812e+00
1.00502492e+00
1.00503081e+00
1.00503596e+00
1.00504053e+00
1.00504458e+00
1.00504821e+00
1.00505145e+00
1.00505435e+00
1.00505692e+00
1.00505918e+00
1.00506113e+00
1.00506279e+00
1.00506417e+00
1.00506523e+00
1.00506596e+00
1.00506647e+00
1.00506678e+00
1.00506663e+00
1.00506627e+00
1.00506631e+00
1.00506618e+00
9.95129732e-01
9.95129517e-01
9.95129584e-01
9.95129730e-01
9.95130192e-01
9.95130914e-01
9.95131940e-01
9.95133331e-01
9.95135089e-01
9.95137200e-01
9.95139682e-01
9.95142542e-01
9.95145780e-01
9.95149404e-01
9.95153428e-01
9.95157868e-01
9.95162741e-01
9.95168073e-01
9.95173896e-01
9.95180255e-01
9.95187206e-01
9.95194826e-01
9.95203219e-01
9.95212522e-01
9.95222919e-01
9.95234650e-01
9.95248027e-01
9.95263447e-01
9.95281411e-01
9.95302534e-01
9.95327557e-01
9.95357356e-01
9.95392937e-01
9.95435428e-01
9.95486056e-01
9.95546110e-01
9.95616891e-01
9.95699649e-01
9.95795508e-01
9.95905388e-01
9.96029916e-01
9.96169358e-01
9.96323552e-01
9.96491871e-01
9.96673215e-01
9.96866029e-01
9.97068366e-01
9.97277970e-01
9.97492396e-01
9.97709132e-01
9.97925734e-01
9.98139943e-01
9.98349789e-01
9.98553660e-01
9.98750337e-01
9.98939002e-01
9.99119206e-01
9.99290827e-01
9.99454000e-01
9.99609062e-01
9.99756486e-01
9.99896843e-01
1.00003078e+00
1.00015899e+00
1.00028228e+00
1.00040150e+00
1.00051768e+00
1.00063193e+00
1.00074556e+00
1.00086000e+00
1.00097678e+00
1.00109749e+00
1.00122368e+00
1.00135678e+00
1.00149799e+00
1.00164816e+00
1.00180776e+00
1.00197673e+00
1.00215452e+00
1.00234002e+00
1.00253165e+00
1.00272742e+00
1.00292500e+00
1.00312188e+00
1.00331546e+00
1.00350324e+00
1.00368289e+00
1.00385239e+00
1.00401011e+00
1.00415486e+00
1.00428589e+00
1.00440293e+00
1.00450610e+00
1.00459590e+00
1.00467313e+00
1.00473879e+00
1.00479404e+00
1.00484010e+00
1.00487820e+00
1.00490952e+00
1.00493518e+00
1.00495615e+00
1.00497331e+00
1.00498740e+00
1.00499906e+00
1.00500878e+00
1.00501697e+00
1.00502395e+00
1.00502998e+00
1.00503524e+00
1.00503986e+00
1.00504396e+00
1.00504760e+00
1.00505085e+00
1.00505374e+00
1.00505630e+00
1.00505854e+00
1.00506048e+00
1.00506213e+00
1.00506348e+00
1.00506456e+00
1.00506535e+00
1.00506587e+00
1.00506616e+00
1.00506629e+00
1.00506619e+00
1.00506606e+00
1.00506576e+00
9.95129936e-01
9.95129641e-01
9.95129558e-01
9.95129947e-01
9.95130534e-01
9.95131219e-01
9.95132287e-01
9.95133738e-01
9.95135492e-01
9.95137589e-01
9.95140076e-01
9.95142939e-01
9.95146172e-01
9.95149795e-01
9.95153825e-01
9.95158273e-01
9.95163158e-01
9.95168510e-01
9.95174365e-01
9.95180766e-01
9.95187778e-01
9.95195481e-01
9.95203988e-01
9.95213445e-01
9.95224047e-01
9.95236048e-01
9.95249774e-01
9.95265643e-01
9.95284170e-01
9.95305989e-01
9.95331858e-01
9.95362661e-01
9.95399411e-01
9.95443230e-01
9.95495324e-01
9.95556951e-01
9.95629361e-01
9.95713739e-01
9.95811129e-01
9.95922358e-01
9.96047957e-01
9.96188100e-01
9.96342544e-01
9.96510606e-01
9.96691156e-01
9.96882654e-01
9.97083202e-01
9.97290636e-01
9.97502631e-01
9.97716818e-01
9.97930900e-01
9.98142757e-01
9.98350531e-01
9.98552690e-01
9.98748052e-01
9.98935794e-01
9.99115429e-01
9.99286767e-01
9.99449869e-01
9.99604995e-01
9.99752560e-01
9.99893096e-01
1.00002724e+00
1.00015570e+00
1.00027930e+00
1.00039895e+00
1.00051568e+00
1.00063067e+00
1.00074518e+00
1.00086062e+00
1.00097847e+00
1.00110020e+00
1.00122728e+00
1.00136102e+00
1.00150252e+00
1.00165257e+00
1.00181156e+00
1.00197944e+00
1.00215567e+00
1.00233925e+00
1.00252867e+00
1.00272208e+00
1.00291726e+00
1.00311186e+00
1.00330339e+00
1.00348945e+00
1.00366779e+00
1.00383644e+00
1.00399377e+00
1.00413858e+00
1.00427007e+00
1.00438791e+00
1.00449215e+00
1.00458321e+00
1.00466181e+00
1.00472889e+00
1.00478553e+00
1.00483292e+00
1.00487225e+00
1.00490468e+00
1.00493130e+00
1.00495310e+00
1.00497097e+00
1.00498564e+00
1.00499776e+00
1.00500785e+00
1.00501633e+00
1.00502354e+00
1.00502972e+00
1.00503509e+00
1.00503979e+00
1.00504393e+00
1.00504759e+00
1.00505084e+00
1.00505372e+00
1.00505625e+00
1.00505847e+00
1.00506039e+00
1.00506201e+00
1.00506333e+00
1.00506438e+00
1.00506521e+00
1.00506574e+00
1.00506600e+00
1.00506622e+00
1.00506632e+00
1.00506606e+00
1.00506566e+00
9.95129581e-01
9.95129344e-01
9.95129428e-01
9.95129704e-01
9.95130199e-01
9.95131005e-01
9.95132124e-01
9.95133517e-01
9.95135260e-01
9.95137377e-01
9.95139853e-01
9.95142693e-01
9.95145921e-01
9.95149545e-01
9.95153572e-01
9.95158024e-01
9.95162923e-01
9.95168298e-01
9.95174186e-01
9.95180638e-01
9.95187720e-01
9.95195522e-01
9.95204163e-01
9.95213800e-01
9.95224641e-01
9.95236955e-01
9.95251086e-01
9.95267468e-01
9.95286639e-01
9.95309249e-01
9.95336072e-01
9.95368003e-01
9.95406056e-01
9.95451343e-01
9.95505049e-01
9.95568390e-01
9.95642559e-01
9.95728667e-01
9.95827668e-01
9.95940287e-01
9.96066955e-01
9.96207746e-01
9.96362337e-01
9.96529987e-01
9.96709549e-01
9.96899500e-01
9.97098008e-01
9.97303013e-01
9.97512326e-01
9.97723732e-01
9.97935093e-01
9.98144433e-01
9.98350014e-01
9.98550378e-01
9.98744381e-01
9.98931190e-01
9.99110272e-01
9.99281366e-01
9.99444451e-01
9.99599709e-01
9.99747491e-01
9.99888294e-01
1.00002274e+00
1.00015156e+00
1.00027560e+00
1.00039583e+00
1.00051331e+00
1.00062922e+00
1.00074485e+00
1.00086156e+00
1.00098073e+00
1.00110378e+00
1.00123202e+00
1.00136667e+00
1.00150869e+00
1.00165879e+00
1.00181729e+00
1.00198415e+00
1.00215883e+00
1.00234040e+00
1.00252747e+00
1.00271831e+00
1.00291086e+00
1.00310290e+00
1.00329210e+00
1.00347617e+00
1.00365294e+00
1.00382051e+00
1.00397727e+00
1.00412199e+00
1.00425385e+00
1.00437245e+00
1.00447776e+00
1.00457012e+00
1.00465016e+00
1.00471874e+00
1.00477689e+00
1.00482572e+00
1.00486640e+00
1.00490004e+00
1.00492774e+00
1.00495048e+00
1.00496913e+00
1.00498446e+00
1.00499711e+00
1.00500762e+00
1.00501643e+00
1.00502388e+00
1.00503025e+00
1.00503574e+00
1.00504052e+00
1.00504471e+00
1.00504840e+00
1.00505164e+00
1.00505450e+00
1.00505701e+00
1.00505920e+00
1.00506106e+00
1.00506264e+00
1.00506394e+00
1.00506495e+00
1.00506570e+00
1.00506625e+00
1.00506658e+00
1.00506669e+00
1.00506667e+00
1.00506654e+00
1.00506616e+00
9.95128927e-01
9.95128600e-01
9.95128650e-01
9.95128806e-01
9.95129282e-01
9.95130098e-01
9.95131163e-01
9.95132524e-01
9.95134262e-01
9.95136354e-01
9.95138795e-01
9.95141616e-01
9.95144832e-01
9.95148442e-01
9.95152462e-01
9.95156917e-01
9.95161828e-01
9.95167226e-01
9.95173152e-01
9.95179661e-01
9.95186825e-01
9.95194740e-01
9.95203535e-01
9.95213380e-01
9.95224495e-01
9.95237167e-01
9.95251757e-01
9.95268722e-01
9.95288617e-01
9.95312113e-01
9.95340000e-01
9.95373181e-01
9.95412670e-01
9.95459568e-01
9.95515031e-01
9.95580228e-01
9.95656291e-01
9.95744244e-01
9.95844944e-01
9.95959010e-01
9.96086762e-01
9.96228170e-01
9.96382829e-01
9.96549944e-01
9.96728350e-01
9.96916556e-01
9.97112802e-01
9.97315145e-01
9.97521544e-01
9.97729953e-01
9.97938399e-01
9.98145063e-01
9.98348326e-01
9.98546813e-01
9.98739409e-01
9.98925271e-01
9.99103813e-01
9.99274698e-01
9.99437819e-01
9.99593273e-01
9.99741347e-01
9.99882499e-01
1.00001734e+00
1.00014663e+00
1.00027125e+00
1.00039220e+00
1.00051060e+00
1.00062765e+00
1.00074462e+00
1.00086284e+00
1.00098362e+00
1.00110825e+00
1.00123793e+00
1.00137373e+00
1.00151649e+00
1.00166680e+00
1.00182494e+00
1.00199081e+00
1.00216392e+00
1.00234339e+00
1.00252797e+00
1.00271604e+00
1.00290572e+00
1.00309495e+00
1.00328156e+00
1.00346338e+00
1.00363836e+00
1.00380464e+00
1.00396067e+00
1.00410520e+00
1.00423737e+00
1.00435671e+00
1.00446311e+00
1.00455683e+00
1.00463840e+00
1.00470859e+00
1.00476836e+00
1.00481876e+00
1.00486091e+00
1.00489589e+00
1.00492478e+00
1.00494854e+00
1.00496807e+00
1.00498412e+00
1.00499737e+00
1.00500835e+00
1.00501753e+00
1.00502526e+00
1.00503183e+00
1.00503746e+00
1.00504234e+00
1.00504658e+00
1.00505028e+00
1.00505353e+00
1.00505636e+00
1.00505883e+00
1.00506097e+00
1.00506278e+00
1.00506429e+00
1.00506552e+00
1.00506648e+00
1.00506716e+00
1.00506762e+00
1.00506792e+00
1.00506798e+00
1.00506780e+00
1.00506760e+00
1.00506709e+00
9.95127738e-01
9.95127146e-01
9.95126991e-01
9.95127104e-01
9.95127532e-01
9.95128208e-01
9.95129204e-01
9.95130556e-01
9.95132239e-01
9.95134263e-01
9.95136672e-01
9.95139467e-01
9.95142648e-01
9.95146233e-01
9.95150243e-01
9.95154696e-01
9.95159614e-01
9.95165035e-01
9.95171003e-01
9.95177576e-01
9.95184833e-01
9.95192878e-01
9.95201852e-01
9.95211934e-01
9.95223363e-01
9.95236441e-01
9.95251552e-01
9.95269171e-01
9.95289878e-01
9.95314361e-01
9.95343425e-01
9.95377983e-01
9.95419045e-01
9.95467696e-01
9.95525060e-01
9.95592253e-01
9.95670334e-01
9.95760238e-01
9.95862716e-01
9.95978272e-01
9.96107110e-01
9.96249096e-01
9.96403741e-01
9.96570197e-01
9.96747292e-01
9.96933570e-01
9.97127357e-01
9.97326837e-01
9.97530128e-01
9.97735358e-01
9.97940733e-01
9.98144590e-01
9.98345434e-01
9.98541971e-01
9.98733117e-01
9.98918012e-01
9.99096018e-01
9.99266719e-01
9.99429916e-01
9.99585625e-01
9.99734068e-01
9.99875664e-01
1.00001102e+00
1.00014091e+00
1.00026626e+00
1.00038812e+00
1.00050764e+00
1.00062606e+00
1.00074462e+00
1.00086461e+00
1.00098726e+00
1.00111374e+00
1.00124512e+00
1.00138230e+00
1.00152600e+00
1.00167669e+00
1.00183457e+00
1.00199950e+00
1.00217102e+00
1.00234833e+00
1.00253028e+00
1.00271540e+00
1.00290201e+00
1.00308820e+00
1.00327197e+00
1.00345131e+00
1.00362428e+00
1.00378910e+00
1.00394425e+00
1.00408848e+00
1.00422090e+00
1.00434096e+00
1.00444849e+00
1.00454363e+00
1.00462681e+00
1.00469873e+00
1.00476024e+00
1.00481234e+00
1.00485608e+00
1.00489252e+00
1.00492271e+00
1.00494760e+00
1.00496809e+00
1.00498494e+00
1.00499884e+00
1.00501035e+00
1.00501994e+00
1.00502798e+00
1.00503478e+00
1.00504058e+00
1.00504556e+00
1.00504986e+00
1.00505359e+00
1.00505682e+00
1.00505963e+00
1.00506205e+00
1.00506411e+00
1.00506585e+00
1.00506728e+00
1.00506840e+00
1.00506926e+00
1.00506987e+00
1.00507021e+00
1.00507033e+00
1.00507029e+00
1.00507002e+00
1.00506958e+00
1.00506875e+00
9.95125562e-01
9.95124685e-01
9.95124310e-01
9.95124274e-01
9.95124548e-01
9.95125105e-01
9.95126022e-01
9.95127277e-01
9.95128866e-01
9.95130829e-01
9.95133181e-01
9.95135915e-01
9.95139049e-01
9.95142603e-01
9.95146590e-01
9.95151030e-01
9.95155953e-01
9.95161397e-01
9.95167408e-01
9.95174052e-01
9.95181413e-01
9.95189607e-01
9.95198781e-01
9.95209133e-01
9.95220916e-01
9.95234452e-01
9.95250146e-01
9.95268496e-01
9.95290102e-01
9.95315674e-01
9.95346030e-01
9.95382091e-01
9.95424863e-01
9.95475408e-01
9.95534812e-01
9.95604136e-01
9.95684358e-01
9.95776316e-01
9.95880649e-01
9.95997739e-01
9.96127672e-01
9.96270207e-01
9.96424770e-01
9.96590467e-01
9.96766121e-01
9.96950319e-01
9.97141481e-01
9.97337927e-01
9.97537941e-01
9.97739834e-01
9.97941994e-01
9.98142918e-01
9.98341238e-01
9.98535741e-01
9.98725377e-01
9.98909269e-01
9.99086727e-01
9.99257257e-01
9.99420571e-01
9.99576604e-01
9.99725512e-01
9.99867680e-01
1.00000371e+00
1.00013438e+00
1.00026068e+00
1.00038368e+00
1.00050459e+00
1.00062465e+00
1.00074509e+00
1.00086713e+00
1.00099193e+00
1.00112053e+00
1.00125385e+00
1.00139263e+00
1.00153744e+00
1.00168864e+00
1.00184633e+00
1.00201035e+00
1.00218026e+00
1.00235532e+00
1.00253451e+00
1.00271653e+00
1.00289986e+00
1.00308279e+00
1.00326352e+00
1.00344017e+00
1.00361095e+00
1.00377416e+00
1.00392831e+00
1.00407217e+00
1.00420480e+00
1.00432559e+00
1.00443428e+00
1.00453091e+00
1.00461581e+00
1.00468956e+00
1.00475295e+00
1.00480687e+00
1.00485233e+00
1.00489036e+00
1.00492195e+00
1.00494808e+00
1.00496961e+00
1.00498735e+00
1.00500197e+00
1.00501405e+00
1.00502409e+00
1.00503248e+00
1.00503953e+00
1.00504551e+00
1.00505061e+00
1.00505497e+00
1.00505872e+00
1.00506195e+00
1.00506471e+00
1.00506707e+00
1.00506905e+00
1.00507068e+00
1.00507200e+00
1.00507300e+00
1.00507371e+00
1.00507416e+00
1.00507437e+00
1.00507431e+00
1.00507406e+00
1.00507358e+00
1.00507286e+00
1.00507167e+00
9.95122015e-01
9.95120804e-01
9.95120207e-01
9.95119930e-01
9.95120001e-01
9.95120427e-01
9.95121197e-01
9.95122302e-01
9.95123789e-01
9.95125661e-01
9.95127915e-01
9.95130568e-01
9.95133643e-01
9.95137146e-01
9.95141094e-01
9.95145513e-01
9.95150436e-01
9.95155899e-01
9.95161955e-01
9.95168677e-01
9.95176155e-01
9.95184514e-01
9.95193915e-01
9.95204571e-01
9.95216751e-01
9.95230799e-01
9.95247142e-01
9.95266301e-01
9.95288899e-01
9.95315666e-01
9.95347433e-01
9.95385127e-01
9.95429743e-01
9.95482322e-01
9.95543906e-01
9.95615492e-01
9.95697972e-01
9.95792080e-01
9.95898338e-01
9.96017003e-01
9.96148038e-01
9.96291094e-01
9.96445516e-01
9.96610366e-01
9.96784468e-01
9.96966461e-01
9.97154865e-01
9.97348141e-01
9.97544746e-01
9.97743180e-01
9.97942012e-01
9.98139903e-01
9.98335613e-01
9.98528011e-01
9.98716081e-01
9.98898935e-01
9.99075831e-01
9.99246202e-01
9.99409676e-01
9.99566110e-01
9.99715598e-01
9.99858491e-01
9.99995377e-01
1.00012707e+00
1.00025456e+00
1.00037900e+00
1.00050158e+00
1.00062358e+00
1.00074620e+00
1.00087061e+00
1.00099785e+00
1.00112883e+00
1.00126432e+00
1.00140490e+00
1.00155099e+00
1.00170282e+00
1.00186039e+00
1.00202353e+00
1.00219179e+00
1.00236454e+00
1.00254086e+00
1.00271963e+00
1.00289952e+00
1.00307903e+00
1.00325652e+00
1.00343031e+00
1.00359874e+00
1.00376020e+00
1.00391326e+00
1.00405669e+00
1.00418951e+00
1.00431106e+00
1.00442096e+00
1.00451916e+00
1.00460588e+00
1.00468159e+00
1.00474697e+00
1.00480286e+00
1.00485018e+00
1.00488991e+00
1.00492303e+00
1.00495049e+00
1.00497317e+00
1.00499186e+00
1.00500726e+00
1.00501998e+00
1.00503051e+00
1.00503927e+00
1.00504661e+00
1.00505279e+00
1.00505801e+00
1.00506245e+00
1.00506622e+00
1.00506943e+00
1.00507214e+00
1.00507442e+00
1.00507629e+00
1.00507780e+00
1.00507896e+00
1.00507981e+00
1.00508035e+00
1.00508058e+00
1.00508057e+00
1.00508030e+00
1.00507977e+00
1.00507899e+00
1.00507797e+00
1.00507635e+00
9.95116691e-01
9.95115070e-01
9.95114169e-01
9.95113627e-01
9.95113473e-01
9.95113684e-01
9.95114255e-01
9.95115199e-01
9.95116540e-01
9.95118267e-01
9.95120400e-01
9.95122957e-01
9.95125944e-01
9.95129373e-01
9.95133269e-01
9.95137658e-01
9.95142570e-01
9.95148048e-01
9.95154152e-01
9.95160957e-01
9.95168564e-01
9.95177107e-01
9.95186763e-01
9.95197757e-01
9.95210381e-01
9.95224999e-01
9.95242060e-01
9.95262111e-01
9.95285797e-01
9.95313868e-01
9.95347167e-01
9.95386622e-01
9.95433220e-01
9.95487972e-01
9.95551873e-01
9.95625848e-01
9.95710700e-01
9.95807054e-01
9.95915307e-01
9.96035589e-01
9.96167739e-01
9.96311301e-01
9.96465541e-01
9.96629482e-01
9.96801953e-01
9.96981651e-01
9.97167201e-01
9.97357211e-01
9.97550314e-01
9.97745198e-01
9.97940616e-01
9.98135392e-01
9.98328416e-01
9.98518641e-01
9.98705087e-01
9.98886860e-01
9.99063175e-01
9.99233398e-01
9.99397080e-01
9.99554005e-01
9.99704213e-01
9.99848016e-01
9.99985997e-01
1.00011898e+00
1.00024798e+00
1.00037417e+00
1.00049879e+00
1.00062307e+00
1.00074821e+00
1.00087530e+00
1.00100527e+00
1.00113889e+00
1.00127678e+00
1.00141935e+00
1.00156686e+00
1.00171942e+00
1.00187694e+00
1.00203920e+00
1.00220581e+00
1.00237617e+00
1.00254954e+00
1.00272494e+00
1.00290126e+00
1.00307719e+00
1.00325130e+00
1.00342210e+00
1.00358806e+00
1.00374768e+00
1.00389958e+00
1.00404254e+00
1.00417556e+00
1.00429789e+00
1.00440908e+00
1.00450894e+00
1.00459759e+00
1.00467539e+00
1.00474292e+00
1.00480090e+00
1.00485022e+00
1.00489179e+00
1.00492656e+00
1.00495547e+00
1.00497938e+00
1.00499911e+00
1.00501536e+00
1.00502876e+00
1.00503983e+00
1.00504901e+00
1.00505665e+00
1.00506304e+00
1.00506841e+00
1.00507292e+00
1.00507671e+00
1.00507990e+00
1.00508255e+00
1.00508472e+00
1.00508647e+00
1.00508782e+00
1.00508880e+00
1.00508944e+00
1.00508975e+00
1.00508975e+00
1.00508945e+00
1.00508888e+00
1.00508804e+00
1.00508689e+00
1.00508548e+00
1.00508335e+00
9.95109022e-01
9.95106930e-01
9.95105673e-01
9.95104829e-01
9.95104394e-01
9.95104330e-01
9.95104668e-01
9.95105408e-01
9.95106548e-01
9.95108101e-01
9.95110088e-01
9.95112512e-01
9.95115382e-01
9.95118721e-01
9.95122550e-01
9.95126892e-01
9.95131784e-01
9.95137275e-01
9.95143427e-01
9.95150322e-01
9.95158071e-01
9.95166820e-01
9.95176759e-01
9.95188132e-01
9.95201249e-01
9.95216498e-01
9.95234353e-01
9.95255383e-01
9.95280258e-01
9.95309745e-01
9.95344700e-01
9.95386050e-01
9.95434769e-01
9.95491834e-01
9.95558187e-01
9.95634678e-01
9.95722015e-01
9.95820707e-01
9.95931026e-01
9.96052969e-01
9.96186253e-01
9.96330317e-01
9.96484350e-01
9.96647340e-01
9.96818130e-01
9.96995477e-01
9.97178116e-01
9.97364804e-01
9.97554351e-01
9.97745630e-01
9.97937581e-01
9.98129188e-01
9.98319469e-01
9.98507464e-01
9.98692236e-01
9.98872891e-01
9.99048610e-01
9.99218701e-01
9.99382651e-01
9.99540178e-01
9.99691269e-01
9.99836205e-01
9.99975554e-01
1.00011014e+00
1.00024101e+00
1.00036934e+00
1.00049637e+00
1.00062333e+00
1.00075136e+00
1.00088146e+00
1.00101446e+00
1.00115099e+00
1.00129149e+00
1.00143623e+00
1.00158529e+00
1.00173867e+00
1.00189619e+00
1.00205760e+00
1.00222253e+00
1.00239047e+00
1.00256081e+00
1.00273277e+00
1.00290541e+00
1.00307766e+00
1.00324830e+00
1.00341601e+00
1.00357941e+00
1.00373713e+00
1.00388784e+00
1.00403032e+00
1.00416356e+00
1.00428672e+00
1.00439927e+00
1.00450090e+00
1.00459161e+00
1.00467164e+00
1.00474145e+00
1.00480169e+00
1.00485314e+00
1.00489669e+00
1.00493324e+00
1.00496371e+00
1.00498896e+00
1.00500981e+00
1.00502699e+00
1.00504113e+00
1.00505279e+00
1.00506242e+00
1.00507039e+00
1.00507702e+00
1.00508253e+00
1.00508712e+00
1.00509094e+00
1.00509409e+00
1.00509667e+00
1.00509872e+00
1.00510031e+00
1.00510148e+00
1.00510225e+00
1.00510263e+00
1.00510266e+00
1.00510236e+00
1.00510173e+00
1.00510078e+00
1.00509955e+00
1.00509800e+00
1.00509613e+00
1.00509338e+00
9.95098386e-01
9.95095771e-01
9.95094115e-01
9.95092900e-01
9.95092123e-01
9.95091752e-01
9.95091811e-01
9.95092285e-01
9.95093189e-01
9.95094538e-01
9.95096337e-01
9.95098593e-01
9.95101327e-01
9.95104554e-01
9.95108294e-01
9.95112576e-01
9.95117442e-01
9.95122942e-01
9.95129143e-01
9.95136137e-01
9.95144045e-01
9.95153024e-01
9.95163279e-01
9.95175073e-01
9.95188738e-01
9.95204684e-01
9.95223411e-01
9.95245513e-01
9.95271683e-01
9.95302704e-01
9.95339444e-01
9.95382826e-01
9.95433806e-01
9.95493325e-01
9.95562266e-01
9.95641400e-01
9.95731332e-01
9.95832455e-01
9.95944910e-01
9.96068565e-01
9.96203012e-01
9.96347587e-01
9.96501409e-01
9.96663437e-01
9.96832527e-01
9.97007506e-01
9.97187219e-01
9.97370572e-01
9.97556548e-01
9.97744208e-01
9.97932669e-01
9.98121076e-01
9.98308575e-01
9.98494297e-01
9.98677352e-01
9.98856855e-01
9.99031968e-01
9.99201954e-01
9.99366245e-01
9.99524504e-01
9.99676674e-01
9.99823003e-01
9.99964041e-01
1.00010061e+00
1.00023376e+00
1.00036465e+00
1.00049453e+00
1.00062458e+00
1.00075589e+00
1.00088936e+00
1.00102571e+00
1.00116540e+00
1.00130873e+00
1.00145579e+00
1.00160653e+00
1.00176080e+00
1.00191838e+00
1.00207896e+00
1.00224221e+00
1.00240772e+00
1.00257500e+00
1.00274345e+00
1.00291236e+00
1.00308087e+00
1.00324796e+00
1.00341253e+00
1.00357334e+00
1.00372913e+00
1.00387863e+00
1.00402066e+00
1.00415416e+00
1.00427823e+00
1.00439223e+00
1.00449575e+00
1.00458865e+00
1.00467105e+00
1.00474331e+00
1.00480596e+00
1.00485971e+00
1.00490539e+00
1.00494385e+00
1.00497600e+00
1.00500270e+00
1.00502477e+00
1.00504295e+00
1.00505790e+00
1.00507020e+00
1.00508031e+00
1.00508865e+00
1.00509553e+00
1.00510121e+00
1.00510589e+00
1.00510972e+00
1.00511284e+00
1.00511532e+00
1.00511724e+00
1.00511866e+00
1.00511960e+00
1.00512011e+00
1.00512021e+00
1.00511991e+00
1.00511924e+00
1.00511822e+00
1.00511684e+00
1.00511515e+00
1.00511310e+00
1.00511070e+00
1.00510728e+00
9.95084105e-01
9.95080897e-01
9.95078784e-01
9.95077145e-01
9.95075976e-01
9.95075249e-01
9.95074972e-01
9.95075139e-01
9.95075772e-01
9.95076872e-01
9.95078447e-01
9.95080512e-01
9.95083083e-01
9.95086173e-01
9.95089808e-01
9.95094021e-01
9.95098853e-01
9.95104359e-01
9.95110615e-01
9.95117721e-01
9.95125806e-01
9.95135043e-01
9.95145652e-01
9.95157916e-01
9.95172188e-01
9.95188904e-01
9.95208589e-01
9.95231863e-01
9.95259439e-01
9.95292119e-01
9.95330776e-01
9.95376331e-01
9.95429715e-01
9.95491830e-01
9.95563496e-01
9.95645398e-01
9.95738038e-01
9.95841686e-01
9.95956352e-01
9.96081773e-01
9.96217421e-01
9.96362534e-01
9.96516163e-01
9.96677242e-01
9.96844649e-01
9.97017280e-01
9.97194092e-01
9.97374137e-01
9.97556571e-01
9.97740634e-01
9.97925617e-01
9.98110823e-01
9.98295525e-01
9.98478946e-01
9.98660254e-01
9.98838587e-01
9.99013095e-01
9.99183016e-01
9.99347742e-01
9.99506891e-01
9.99660367e-01
9.99808385e-01
9.99951476e-01
1.00009045e+00
1.00022632e+00
1.00036026e+00
1.00049346e+00
1.00062706e+00
1.00076206e+00
1.00089928e+00
1.00103928e+00
1.00118240e+00
1.00132876e+00
1.00147830e+00
1.00163083e+00
1.00178608e+00
1.00194376e+00
1.00210354e+00
1.00226513e+00
1.00242820e+00
1.00259242e+00
1.00275737e+00
1.00292253e+00
1.00308728e+00
1.00325082e+00
1.00341223e+00
1.00357045e+00
1.00372431e+00
1.00387264e+00
1.00401426e+00
1.00414808e+00
1.00427314e+00
1.00438870e+00
1.00449423e+00
1.00458947e+00
1.00467441e+00
1.00474927e+00
1.00481449e+00
1.00487071e+00
1.00491867e+00
1.00495920e+00
1.00499317e+00
1.00502144e+00
1.00504483e+00
1.00506410e+00
1.00507993e+00
1.00509292e+00
1.00510357e+00
1.00511231e+00
1.00511947e+00
1.00512533e+00
1.00513010e+00
1.00513396e+00
1.00513703e+00
1.00513941e+00
1.00514118e+00
1.00514239e+00
1.00514309e+00
1.00514331e+00
1.00514307e+00
1.00514240e+00
1.00514131e+00
1.00513983e+00
1.00513797e+00
1.00513575e+00
1.00513313e+00
1.00513013e+00
1.00512592e+00
9.95065428e-01
9.95061556e-01
9.95058916e-01
9.95056807e-01
9.95055199e-01
9.95054059e-01
9.95053404e-01
9.95053228e-01
9.95053547e-01
9.95054361e-01
9.95055686e-01
9.95057534e-01
9.95059916e-01
9.95062852e-01
9.95066371e-01
9.95070505e-01
9.95075299e-01
9.95080816e-01
9.95087137e-01
9.95094370e-01
9.95102657e-01
9.95112185e-01
9.95123192e-01
9.95135980e-01
9.95150927e-01
9.95168493e-01
9.95189229e-01
9.95213780e-01
9.95242881e-01
9.95277350e-01
9.95318065e-01
9.95365937e-01
9.95421873e-01
9.95486729e-01
9.95561258e-01
9.95646056e-01
9.95741516e-01
9.95847784e-01
9.95964740e-01
9.96091991e-01
9.96228892e-01
9.96374584e-01
9.96528061e-01
9.96688235e-01
9.96854011e-01
9.97024352e-01
9.97198329e-01
9.97375139e-01
9.97554100e-01
9.97734626e-01
9.97916177e-01
9.98098208e-01
9.98280121e-01
9.98461234e-01
9.98640782e-01
9.98817936e-01
9.98991858e-01
9.99161771e-01
9.99327045e-01
9.99487266e-01
9.99642307e-01
9.99792350e-01
9.99937897e-01
1.00007973e+00
1.00021883e+00
1.00035632e+00
1.00049335e+00
1.00063098e+00
1.00077012e+00
1.00091146e+00
1.00105543e+00
1.00120224e+00
1.00135183e+00
1.00150400e+00
1.00165842e+00
1.00181473e+00
1.00197257e+00
1.00213160e+00
1.00229156e+00
1.00245224e+00
1.00261342e+00
1.00277490e+00
1.00293635e+00
1.00309738e+00
1.00325740e+00
1.00341569e+00
1.00357134e+00
1.00372333e+00
1.00387054e+00
1.00401181e+00
1.00414603e+00
1.00427218e+00
1.00438942e+00
1.00449711e+00
1.00459483e+00
1.00468246e+00
1.00476010e+00
1.00482809e+00
1.00488695e+00
1.00493736e+00
1.00498011e+00
1.00501605e+00
1.00504601e+00
1.00507084e+00
1.00509130e+00
1.00510810e+00
1.00512185e+00
1.00513309e+00
1.00514226e+00
1.00514973e+00
1.00515580e+00
1.00516068e+00
1.00516456e+00
1.00516759e+00
1.00516987e+00
1.00517147e+00
1.00517246e+00
1.00517289e+00
1.00517278e+00
1.00517217e+00
1.00517109e+00
1.00516954e+00
1.00516755e+00
1.00516514e+00
1.00516233e+00
1.00515909e+00
1.00515539e+00
1.00515031e+00
9.95041534e-01
9.95036937e-01
9.95033715e-01
9.95031089e-01
9.95028994e-01
9.95027403e-01
9.95026333e-01
9.95025778e-01
9.95025749e-01
9.95026252e-01
9.95027304e-01
9.95028910e-01
9.95031089e-01
9.95033862e-01
9.95037256e-01
9.95041308e-01
9.95046069e-01
9.95051606e-01
9.95058008e-01
9.95065392e-01
9.95073914e-01
9.95083775e-01
9.95095232e-01
9.95108608e-01
9.95124306e-01
9.95142810e-01
9.95164700e-01
9.95190643e-01
9.95221398e-01
9.95257793e-01
9.95300711e-01
9.95351051e-01
9.95409691e-01
9.95477437e-01
9.95554969e-01
9.95642792e-01
9.95741186e-01
9.95850175e-01
9.95969506e-01
9.96098659e-01
9.96236875e-01
9.96383210e-01
9.96536599e-01
9.96695940e-01
9.96860167e-01
9.97028316e-01
9.97199564e-01
9.97373248e-01
9.97548845e-01
9.97725932e-01
9.97904130e-01
9.98083043e-01
9.98262198e-01
9.98441018e-01
9.98618811e-01
9.98794797e-01
9.98968166e-01
9.99138148e-01
9.99304105e-01
9.99465608e-01
9.99622500e-01
9.99774936e-01
9.99923376e-01
1.00006856e+00
1.00021142e+00