# vtk DataFile Version 2.0
LBM Flow Field - Timestep 1870
ASCII
DATASET STRUCTURED_POINTS
DIMENSIONS 128 128 1
ORIGIN 0.0 0.0 0.0
SPACING 1.0 1.0 1.0
POINT_DATA 16384
SCALARS density double 1
LOOKUP_TABLE default
9.96554499e-01
9.96549924e-01
9.96544932e-01
9.96546984e-01
9.96550169e-01
9.96553181e-01
9.96557853e-01
9.96564225e-01
9.96571460e-01
9.96579794e-01
9.96589683e-01
9.96601109e-01
9.96614077e-01
9.96628809e-01
9.96645471e-01
9.96664140e-01
9.96684940e-01
9.96708024e-01
9.96733515e-01
9.96761526e-01
9.96792184e-01
9.96825610e-01
9.96861914e-01
9.96901204e-01
9.96943581e-01
9.96989140e-01
9.97037963e-01
9.97090123e-01
9.97145680e-01
9.97204678e-01
9.97267144e-01
9.97333089e-01
9.97402500e-01
9.97475342e-01
9.97551557e-01
9.97631063e-01
9.97713749e-01
9.97799480e-01
9.97888096e-01
9.97979411e-01
9.98073217e-01
9.98169284e-01
9.98267365e-01
9.98367198e-01
9.98468511e-01
9.98571025e-01
9.98674460e-01
9.98778537e-01
9.98882989e-01
9.98987556e-01
9.99092000e-01
9.99196100e-01
9.99299663e-01
9.99402522e-01
9.99504541e-01
9.99605615e-01
9.99705674e-01
9.99804678e-01
9.99902624e-01
9.99999536e-01
1.00009547e+00
1.00019052e+00
1.00028477e+00
1.00037837e+00
1.00047146e+00
1.00056419e+00
1.00065672e+00
1.00074923e+00
1.00084187e+00
1.00093481e+00
1.00102818e+00
1.00112212e+00
1.00121671e+00
1.00131205e+00
1.00140816e+00
1.00150506e+00
1.00160272e+00
1.00170107e+00
1.00179999e+00
1.00189932e+00
1.00199887e+00
1.00209839e+00
1.00219761e+00
1.00229623e+00
1.00239389e+00
1.00249024e+00
1.00258492e+00
1.00267752e+00
1.00276769e+00
1.00285505e+00
1.00293924e+00
1.00301994e+00
1.00309686e+00
1.00316974e+00
1.00323838e+00
1.00330260e+00
1.00336228e+00
1.00341736e+00
1.00346782e+00
1.00351367e+00
1.00355499e+00
1.00359188e+00
1.00362447e+00
1.00365293e+00
1.00367746e+00
1.00369826e+00
1.00371557e+00
1.00372961e+00
1.00374064e+00
1.00374890e+00
1.00375465e+00
1.00375815e+00
1.00375963e+00
1.00375938e+00
1.00375763e+00
1.00375459e+00
1.00375053e+00
1.00374577e+00
1.00374043e+00
1.00373461e+00
1.00372881e+00
1.00372341e+00
1.00371759e+00
1.00371143e+00
1.00370717e+00
1.00370379e+00
1.00369284e+00
1.00368388e+00
9.96551197e-01
9.96550845e-01
9.96548875e-01
9.96550563e-01
9.96553392e-01
9.96556972e-01
9.96561754e-01
9.96567902e-01
9.96575205e-01
9.96583722e-01
9.96593651e-01
9.96605102e-01
9.96618167e-01
9.96632977e-01
9.96649675e-01
9.96668386e-01
9.96689235e-01
9.96712351e-01
9.96737863e-01
9.96765895e-01
9.96796567e-01
9.96830000e-01
9.96866305e-01
9.96905591e-01
9.96947957e-01
9.96993498e-01
9.97042297e-01
9.97094424e-01
9.97149939e-01
9.97208886e-01
9.97271292e-01
9.97337165e-01
9.97406493e-01
9.97479240e-01
9.97555350e-01
9.97634738e-01
9.97717295e-01
9.97802888e-01
9.97891357e-01
9.97982517e-01
9.98076161e-01
9.98172063e-01
9.98269977e-01
9.98369644e-01
9.98470793e-01
9.98573149e-01
9.98676431e-01
9.98780366e-01
9.98884683e-01
9.98989128e-01
9.99093460e-01
9.99197461e-01
9.99300935e-01
9.99403716e-01
9.99505666e-01
9.99606678e-01
9.99706680e-01
9.99805632e-01
9.99903526e-01
1.00000039e+00
1.00009627e+00
1.00019125e+00
1.00028544e+00
1.00037897e+00
1.00047197e+00
1.00056461e+00
1.00065704e+00
1.00074943e+00
1.00084195e+00
1.00093475e+00
1.00102798e+00
1.00112175e+00
1.00121618e+00
1.00131134e+00
1.00140727e+00
1.00150397e+00
1.00160143e+00
1.00169956e+00
1.00179825e+00
1.00189735e+00
1.00199666e+00
1.00209594e+00
1.00219491e+00
1.00229327e+00
1.00239068e+00
1.00248678e+00
1.00258119e+00
1.00267355e+00
1.00276348e+00
1.00285060e+00
1.00293458e+00
1.00301509e+00
1.00309183e+00
1.00316456e+00
1.00323306e+00
1.00329717e+00
1.00335677e+00
1.00341180e+00
1.00346223e+00
1.00350808e+00
1.00354942e+00
1.00358635e+00
1.00361901e+00
1.00364756e+00
1.00367220e+00
1.00369313e+00
1.00371058e+00
1.00372478e+00
1.00373599e+00
1.00374444e+00
1.00375040e+00
1.00375411e+00
1.00375584e+00
1.00375582e+00
1.00375431e+00
1.00375155e+00
1.00374779e+00
1.00374326e+00
1.00373817e+00
1.00373273e+00
1.00372718e+00
1.00372173e+00
1.00371619e+00
1.00371091e+00
1.00370628e+00
1.00370229e+00
1.00369492e+00
1.00369164e+00
9.96548878e-01
9.96551593e-01
9.96555393e-01
9.96556049e-01
9.96557861e-01
9.96562390e-01
9.96567624e-01
9.96573443e-01
9.96580767e-01
9.96589576e-01
9.96599601e-01
9.96611077e-01
9.96624261e-01
9.96639194e-01
9.96655963e-01
9.96674744e-01
9.96695674e-01
9.96718858e-01
9.96744423e-01
9.96772505e-01
9.96803222e-01
9.96836687e-01
9.96873016e-01
9.96912317e-01
9.96954690e-01
9.97000226e-01
9.97049008e-01
9.97101108e-01
9.97156584e-01
9.97215479e-01
9.97277820e-01
9.97343614e-01
9.97412850e-01
9.97485492e-01
9.97561482e-01
9.97640738e-01
9.97723151e-01
9.97808589e-01
9.97896892e-01
9.97987879e-01
9.98081344e-01
9.98177061e-01
9.98274788e-01
9.98374266e-01
9.98475228e-01
9.98577398e-01
9.98680499e-01
9.98784255e-01
9.98888400e-01
9.98992678e-01
9.99096847e-01
9.99200689e-01
9.99304008e-01
9.99406634e-01
9.99508428e-01
9.99609283e-01
9.99709122e-01
9.99807904e-01
9.99905619e-01
1.00000229e+00
1.00009797e+00
1.00019274e+00
1.00028669e+00
1.00037997e+00
1.00047271e+00
1.00056507e+00
1.00065721e+00
1.00074930e+00
1.00084150e+00
1.00093398e+00
1.00102687e+00
1.00112031e+00
1.00121440e+00
1.00130921e+00
1.00140479e+00
1.00150115e+00
1.00159826e+00
1.00169606e+00
1.00179442e+00
1.00189319e+00
1.00199217e+00
1.00209113e+00
1.00218980e+00
1.00228785e+00
1.00238497e+00
1.00248078e+00
1.00257493e+00
1.00266704e+00
1.00275672e+00
1.00284362e+00
1.00292739e+00
1.00300771e+00
1.00308429e+00
1.00315688e+00
1.00322526e+00
1.00328929e+00
1.00334882e+00
1.00340381e+00
1.00345423e+00
1.00350010e+00
1.00354148e+00
1.00357848e+00
1.00361123e+00
1.00363990e+00
1.00366468e+00
1.00368577e+00
1.00370341e+00
1.00371782e+00
1.00372926e+00
1.00373796e+00
1.00374418e+00
1.00374818e+00
1.00375020e+00
1.00375049e+00
1.00374930e+00
1.00374689e+00
1.00374348e+00
1.00373923e+00
1.00373447e+00
1.00372952e+00
1.00372424e+00
1.00371867e+00
1.00371381e+00
1.00370975e+00
1.00370411e+00
1.00369867e+00
1.00369890e+00
1.00369933e+00
9.96554645e-01
9.96556801e-01
9.96559646e-01
9.96561869e-01
9.96565208e-01
9.96569319e-01
9.96574365e-01
9.96580694e-01
9.96588269e-01
9.96597059e-01
9.96607241e-01
9.96618961e-01
9.96632291e-01
9.96647353e-01
9.96664294e-01
9.96683237e-01
9.96704301e-01
9.96727617e-01
9.96753315e-01
9.96781514e-01
9.96812335e-01
9.96845895e-01
9.96882308e-01
9.96921677e-01
9.96964103e-01
9.97009677e-01
9.97058481e-01
9.97110585e-01
9.97166047e-01
9.97224909e-01
9.97287196e-01
9.97352918e-01
9.97422060e-01
9.97494588e-01
9.97570444e-01
9.97649547e-01
9.97731789e-01
9.97817037e-01
9.97905135e-01
9.97995902e-01
9.98089135e-01
9.98184609e-01
9.98282085e-01
9.98381305e-01
9.98482004e-01
9.98583908e-01
9.98686741e-01
9.98790230e-01
9.98894108e-01
9.98998118e-01
9.99102021e-01
9.99205596e-01
9.99308647e-01
9.99411004e-01
9.99512525e-01
9.99613100e-01
9.99712653e-01
9.99811140e-01
9.99908549e-01
1.00000490e+00
1.00010025e+00
1.00019467e+00
1.00028826e+00
1.00038116e+00
1.00047351e+00
1.00056546e+00
1.00065717e+00
1.00074882e+00
1.00084058e+00
1.00093260e+00
1.00102503e+00
1.00111799e+00
1.00121160e+00
1.00130594e+00
1.00140104e+00
1.00149693e+00
1.00159357e+00
1.00169089e+00
1.00178879e+00
1.00188710e+00
1.00198564e+00
1.00208417e+00
1.00218241e+00
1.00228006e+00
1.00237678e+00
1.00247222e+00
1.00256602e+00
1.00265779e+00
1.00274717e+00
1.00283379e+00
1.00291730e+00
1.00299740e+00
1.00307379e+00
1.00314622e+00
1.00321448e+00
1.00327842e+00
1.00333791e+00
1.00339289e+00
1.00344333e+00
1.00348925e+00
1.00353073e+00
1.00356785e+00
1.00360076e+00
1.00362962e+00
1.00365462e+00
1.00367596e+00
1.00369387e+00
1.00370858e+00
1.00372034e+00
1.00372938e+00
1.00373596e+00
1.00374034e+00
1.00374275e+00
1.00374346e+00
1.00374269e+00
1.00374068e+00
1.00373768e+00
1.00373393e+00
1.00372957e+00
1.00372487e+00
1.00372009e+00
1.00371525e+00
1.00371036e+00
1.00370602e+00
1.00370243e+00
1.00369877e+00
1.00369744e+00
1.00369719e+00
9.96562312e-01
9.96564134e-01
9.96565952e-01
9.96569656e-01
9.96573700e-01
9.96577508e-01
9.96582828e-01
9.96589642e-01
9.96597361e-01
9.96606263e-01
9.96616731e-01
9.96628722e-01
9.96642254e-01
9.96657539e-01
9.96674729e-01
9.96693900e-01
9.96715177e-01
9.96738707e-01
9.96764611e-01
9.96792999e-01
9.96823997e-01
9.96857720e-01
9.96894278e-01
9.96933775e-01
9.96976309e-01
9.97021970e-01
9.97070838e-01
9.97122982e-01
9.97178458e-01
9.97237308e-01
9.97299556e-01
9.97365210e-01
9.97434257e-01
9.97506661e-01
9.97582365e-01
9.97661288e-01
9.97743323e-01
9.97828339e-01
9.97916182e-01
9.98006671e-01
9.98099607e-01
9.98194768e-01
9.98291915e-01
9.98390795e-01
9.98491143e-01
9.98592689e-01
9.98695158e-01
9.98798278e-01
9.98901784e-01
9.99005421e-01
9.99108948e-01
9.99212146e-01
9.99314816e-01
9.99416788e-01
9.99517919e-01
9.99618098e-01
9.99717246e-01
9.99815317e-01
9.99912299e-01
1.00000821e+00
1.00010310e+00
1.00019705e+00
1.00029015e+00
1.00038255e+00
1.00047437e+00
1.00056578e+00
1.00065694e+00
1.00074802e+00
1.00083920e+00
1.00093063e+00
1.00102245e+00
1.00111481e+00
1.00120781e+00
1.00130153e+00
1.00139602e+00
1.00149130e+00
1.00158733e+00
1.00168405e+00
1.00178135e+00
1.00187909e+00
1.00197705e+00
1.00207502e+00
1.00217272e+00
1.00226985e+00
1.00236607e+00
1.00246103e+00
1.00255438e+00
1.00264573e+00
1.00273472e+00
1.00282099e+00
1.00290419e+00
1.00298402e+00
1.00306018e+00
1.00313243e+00
1.00320056e+00
1.00326441e+00
1.00332386e+00
1.00337885e+00
1.00342934e+00
1.00347537e+00
1.00351699e+00
1.00355430e+00
1.00358744e+00
1.00361657e+00
1.00364187e+00
1.00366355e+00
1.00368182e+00
1.00369693e+00
1.00370910e+00
1.00371860e+00
1.00372565e+00
1.00373051e+00
1.00373343e+00
1.00373465e+00
1.00373441e+00
1.00373293e+00
1.00373043e+00
1.00372723e+00
1.00372345e+00
1.00371914e+00
1.00371474e+00
1.00371065e+00
1.00370635e+00
1.00370177e+00
1.00369896e+00
1.00369733e+00
1.00369498e+00
1.00369416e+00
9.96570695e-01
9.96573053e-01
9.96575788e-01
9.96579068e-01
9.96582791e-01
9.96587580e-01
9.96593420e-01
9.96600101e-01
9.96608052e-01
9.96617441e-01
9.96628178e-01
9.96640368e-01
9.96654228e-01
9.96669854e-01
9.96687324e-01
9.96706779e-01
9.96728361e-01
9.96752178e-01
9.96778346e-01
9.96806993e-01
9.96838236e-01
9.96872183e-01
9.96908943e-01
9.96948621e-01
9.96991311e-01
9.97037101e-01
9.97086069e-01
9.97138282e-01
9.97193796e-01
9.97252649e-01
9.97314866e-01
9.97380454e-01
9.97449397e-01
9.97521662e-01
9.97597191e-01
9.97675904e-01
9.97757695e-01
9.97842435e-01
9.97929970e-01
9.98020125e-01
9.98112700e-01
9.98207477e-01
9.98304220e-01
9.98402679e-01
9.98502592e-01
9.98603691e-01
9.98705704e-01
9.98808360e-01
9.98911397e-01
9.99014558e-01
9.99117606e-01
9.99220320e-01
9.99322501e-01
9.99423978e-01
9.99524607e-01
9.99624275e-01
9.99722903e-01
9.99820441e-01
9.99916875e-01
1.00001222e+00
1.00010653e+00
1.00019988e+00
1.00029238e+00
1.00038414e+00
1.00047531e+00
1.00056605e+00
1.00065652e+00
1.00074690e+00
1.00083736e+00
1.00092806e+00
1.00101915e+00
1.00111076e+00
1.00120301e+00
1.00129598e+00
1.00138972e+00
1.00148425e+00
1.00157954e+00
1.00167552e+00
1.00177210e+00
1.00186912e+00
1.00196639e+00
1.00206368e+00
1.00216072e+00
1.00225721e+00
1.00235283e+00
1.00244722e+00
1.00254002e+00
1.00263087e+00
1.00271941e+00
1.00280526e+00
1.00288810e+00
1.00296762e+00
1.00304352e+00
1.00311557e+00
1.00318355e+00
1.00324731e+00
1.00330673e+00
1.00336174e+00
1.00341232e+00
1.00345848e+00
1.00350029e+00
1.00353784e+00
1.00357127e+00
1.00360073e+00
1.00362641e+00
1.00364851e+00
1.00366724e+00
1.00368283e+00
1.00369553e+00
1.00370557e+00
1.00371319e+00
1.00371865e+00
1.00372218e+00
1.00372401e+00
1.00372439e+00
1.00372356e+00
1.00372172e+00
1.00371905e+00
1.00371586e+00
1.00371233e+00
1.00370845e+00
1.00370448e+00
1.00370098e+00
1.00369769e+00
1.00369461e+00
1.00369261e+00
1.00369139e+00
1.00369129e+00
9.96581716e-01
9.96584065e-01
9.96587144e-01
9.96590212e-01
9.96594191e-01
9.96599494e-01
9.96605462e-01
9.96612397e-01
9.96620791e-01
9.96630504e-01
9.96641512e-01
9.96654072e-01
9.96668323e-01
9.96684297e-01
9.96702118e-01
9.96721945e-01
9.96743885e-01
9.96768042e-01
9.96794544e-01
9.96823512e-01
9.96855053e-01
9.96889277e-01
9.96926291e-01
9.96966196e-01
9.97009082e-01
9.97055036e-01
9.97104133e-01
9.97156439e-01
9.97212007e-01
9.97270873e-01
9.97333063e-01
9.97398579e-01
9.97467408e-01
9.97539515e-01
9.97614844e-01
9.97693313e-01
9.97774820e-01
9.97859236e-01
9.97946412e-01
9.98036172e-01
9.98128321e-01
9.98222644e-01
9.98318908e-01
9.98416866e-01
9.98516260e-01
9.98616824e-01
9.98718290e-01
9.98820389e-01
9.98922858e-01
9.99025446e-01
9.99127914e-01
9.99230041e-01
9.99331628e-01
9.99432505e-01
9.99532524e-01
9.99631573e-01
9.99729568e-01
9.99826461e-01
9.99922235e-01
1.00001691e+00
1.00011052e+00
1.00020316e+00
1.00029491e+00
1.00038592e+00
1.00047631e+00
1.00056625e+00
1.00065591e+00
1.00074546e+00
1.00083508e+00
1.00092492e+00
1.00101513e+00
1.00110587e+00
1.00119724e+00
1.00128932e+00
1.00138217e+00
1.00147582e+00
1.00157023e+00
1.00166535e+00
1.00176107e+00
1.00185725e+00
1.00195370e+00
1.00205020e+00
1.00214647e+00
1.00224222e+00
1.00233713e+00
1.00243085e+00
1.00252303e+00
1.00261330e+00
1.00270130e+00
1.00278669e+00
1.00286911e+00
1.00294827e+00
1.00302388e+00
1.00309570e+00
1.00316352e+00
1.00322719e+00
1.00328658e+00
1.00334163e+00
1.00339231e+00
1.00343865e+00
1.00348069e+00
1.00351853e+00
1.00355230e+00
1.00358216e+00
1.00360829e+00
1.00363088e+00
1.00365014e+00
1.00366631e+00
1.00367962e+00
1.00369029e+00
1.00369858e+00
1.00370472e+00
1.00370896e+00
1.00371151e+00
1.00371261e+00
1.00371249e+00
1.00371139e+00
1.00370944e+00
1.00370686e+00
1.00370399e+00
1.00370090e+00
1.00369748e+00
1.00369430e+00
1.00369178e+00
1.00368926e+00
1.00368715e+00
1.00368643e+00
1.00368639e+00
9.96595208e-01
9.96597162e-01
9.96599854e-01
9.96603406e-01
9.96607839e-01
9.96612998e-01
9.96619215e-01
9.96626776e-01
9.96635481e-01
9.96645415e-01
9.96656870e-01
9.96669902e-01
9.96684520e-01
9.96700887e-01
9.96719157e-01
9.96739409e-01
9.96761748e-01
9.96786308e-01
9.96813206e-01
9.96842544e-01
9.96874434e-01
9.96908985e-01
9.96946298e-01
9.96986468e-01
9.97029586e-01
9.97075735e-01
9.97124987e-01
9.97177404e-01
9.97233038e-01
9.97291924e-01
9.97354084e-01
9.97419521e-01
9.97488221e-01
9.97560148e-01
9.97635246e-01
9.97713436e-01
9.97794615e-01
9.97878659e-01
9.97965418e-01
9.98054722e-01
9.98146378e-01
9.98240175e-01
9.98335883e-01
9.98433259e-01
9.98532049e-01
9.98631990e-01
9.98732816e-01
9.98834263e-01
9.98936070e-01
9.99037986e-01
9.99139773e-01
9.99241211e-01
9.99342103e-01
9.99442275e-01
9.99541581e-01
9.99639905e-01
9.99737163e-01
9.99833304e-01
9.99928309e-01
1.00002219e+00
1.00011500e+00
1.00020681e+00
1.00029772e+00
1.00038785e+00
1.00047736e+00
1.00056639e+00
1.00065511e+00
1.00074371e+00
1.00083236e+00
1.00092121e+00
1.00101044e+00
1.00110017e+00
1.00119053e+00
1.00128160e+00
1.00137344e+00
1.00146607e+00
1.00155948e+00
1.00165361e+00
1.00174835e+00
1.00184357e+00
1.00193909e+00
1.00203467e+00
1.00213006e+00
1.00222496e+00
1.00231906e+00
1.00241202e+00
1.00250349e+00
1.00259310e+00
1.00268051e+00
1.00276535e+00
1.00284731e+00
1.00292607e+00
1.00300135e+00
1.00307291e+00
1.00314056e+00
1.00320413e+00
1.00326350e+00
1.00331860e+00
1.00336941e+00
1.00341594e+00
1.00345825e+00
1.00349642e+00
1.00353059e+00
1.00356091e+00
1.00358754e+00
1.00361069e+00
1.00363056e+00
1.00364738e+00
1.00366138e+00
1.00367278e+00
1.00368182e+00
1.00368873e+00
1.00369375e+00
1.00369712e+00
1.00369904e+00
1.00369971e+00
1.00369937e+00
1.00369827e+00
1.00369651e+00
1.00369422e+00
1.00369176e+00
1.00368930e+00
1.00368665e+00
1.00368423e+00
1.00368239e+00
1.00368094e+00
1.00367994e+00
1.00367959e+00
9.96610213e-01
9.96612133e-01
9.96614769e-01
9.96618518e-01
9.96623078e-01
9.96628463e-01
9.96635119e-01
9.96642990e-01
9.96651997e-01
9.96662406e-01
9.96674331e-01
9.96687763e-01
9.96702832e-01
9.96719699e-01
9.96738441e-01
9.96759150e-01
9.96781957e-01
9.96806980e-01
9.96834315e-01
9.96864070e-01
9.96896358e-01
9.96931280e-01
9.96968929e-01
9.97009401e-01
9.97052783e-01
9.97099152e-01
9.97148578e-01
9.97201121e-01
9.97256830e-01
9.97315737e-01
9.97377862e-01
9.97443209e-01
9.97511761e-01
9.97583482e-01
9.97658317e-01
9.97736188e-01
9.97816995e-01
9.97900613e-01
9.97986898e-01
9.98075681e-01
9.98166774e-01
9.98259969e-01
9.98355042e-01
9.98451753e-01
9.98549851e-01
9.98649079e-01
9.98749174e-01
9.98849875e-01
9.98950922e-01
9.99052068e-01
9.99153077e-01
9.99253729e-01
9.99353825e-01
9.99453192e-01
9.99551684e-01
9.99649183e-01
9.99745603e-01
9.99840891e-01
9.99935028e-01
1.00002803e+00
1.00011993e+00
1.00021081e+00
1.00030076e+00
1.00038992e+00
1.00047843e+00
1.00056644e+00
1.00065413e+00
1.00074166e+00
1.00082923e+00
1.00091699e+00
1.00100510e+00
1.00109371e+00
1.00118294e+00
1.00127287e+00
1.00136358e+00
1.00145508e+00
1.00154737e+00
1.00164038e+00
1.00173403e+00
1.00182817e+00
1.00192263e+00
1.00201718e+00
1.00211158e+00
1.00220554e+00
1.00229873e+00
1.00239084e+00
1.00248151e+00
1.00257038e+00
1.00265712e+00
1.00274136e+00
1.00282279e+00
1.00290110e+00
1.00297602e+00
1.00304731e+00
1.00311476e+00
1.00317822e+00
1.00323756e+00
1.00329273e+00
1.00334368e+00
1.00339043e+00
1.00343304e+00
1.00347159e+00
1.00350620e+00
1.00353702e+00
1.00356422e+00
1.00358799e+00
1.00360854e+00
1.00362608e+00
1.00364084e+00
1.00365303e+00
1.00366291e+00
1.00367068e+00
1.00367657e+00
1.00368081e+00
1.00368362e+00
1.00368521e+00
1.00368573e+00
1.00368544e+00
1.00368454e+00
1.00368311e+00
1.00368131e+00
1.00367948e+00
1.00367761e+00
1.00367567e+00
1.00367416e+00
1.00367312e+00
1.00367222e+00
1.00367191e+00
9.96626861e-01
9.96628871e-01
9.96631754e-01
9.96635463e-01
9.96640123e-01
9.96645986e-01
9.96652967e-01
9.96661063e-01
9.96670548e-01
9.96681479e-01
9.96693812e-01
9.96707709e-01
9.96723328e-01
9.96740713e-01
9.96759950e-01
9.96781182e-01
9.96804514e-01
9.96830033e-01
9.96857848e-01
9.96888071e-01
9.96920798e-01
9.96956125e-01
9.96994146e-01
9.97034951e-01
9.97078621e-01
9.97125231e-01
9.97174848e-01
9.97227528e-01
9.97283315e-01
9.97342241e-01
9.97404324e-01
9.97469564e-01
9.97537945e-01
9.97609432e-01
9.97683969e-01
9.97761479e-01
9.97841863e-01
9.97925001e-01
9.98010750e-01
9.98098946e-01
9.98189405e-01
9.98281922e-01
9.98376278e-01
9.98472239e-01
9.98569559e-01
9.98667983e-01
9.98767254e-01
9.98867114e-01
9.98967307e-01
9.99067587e-01
9.99167720e-01
9.99267487e-01
9.99366691e-01
9.99465158e-01
9.99562740e-01
9.99659318e-01
9.99754805e-01
9.99849147e-01
9.99942320e-01
1.00003434e+00
1.00012524e+00
1.00021509e+00
1.00030400e+00
1.00039209e+00
1.00047950e+00
1.00056640e+00
1.00065294e+00
1.00073932e+00
1.00082570e+00
1.00091225e+00
1.00099915e+00
1.00108653e+00
1.00117452e+00
1.00126321e+00
1.00135266e+00
1.00144292e+00
1.00153396e+00
1.00162575e+00
1.00171818e+00
1.00181113e+00
1.00190442e+00
1.00199784e+00
1.00209115e+00
1.00218405e+00
1.00227625e+00
1.00236741e+00
1.00245719e+00
1.00254525e+00
1.00263124e+00
1.00271482e+00
1.00279568e+00
1.00287350e+00
1.00294801e+00
1.00301899e+00
1.00308622e+00
1.00314956e+00
1.00320888e+00
1.00326411e+00
1.00331521e+00
1.00336221e+00
1.00340514e+00
1.00344410e+00
1.00347919e+00
1.00351056e+00
1.00353838e+00
1.00356283e+00
1.00358411e+00
1.00360244e+00
1.00361802e+00
1.00363109e+00
1.00364186e+00
1.00365056e+00
1.00365741e+00
1.00366261e+00
1.00366636e+00
1.00366890e+00
1.00367041e+00
1.00367102e+00
1.00367095e+00
1.00367044e+00
1.00366950e+00
1.00366825e+00
1.00366701e+00
1.00366583e+00
1.00366467e+00
1.00366380e+00
1.00366328e+00
1.00366316e+00
9.96645533e-01
9.96647521e-01
9.96650476e-01
9.96654338e-01
9.96659277e-01
9.96665412e-01
9.96672673e-01
9.96681226e-01
9.96691189e-01
9.96702533e-01
9.96715366e-01
9.96729835e-01
9.96745990e-01
9.96763906e-01
9.96783715e-01
9.96805518e-01
9.96829395e-01
9.96855451e-01
9.96883795e-01
9.96914520e-01
9.96947716e-01
9.96983481e-01
9.97021904e-01
9.97063066e-01
9.97107044e-01
9.97153912e-01
9.97203730e-01
9.97256550e-01
9.97312415e-01
9.97371354e-01
9.97433381e-01
9.97498496e-01
9.97566681e-01
9.97637901e-01
9.97712101e-01
9.97789205e-01
9.97869116e-01
9.97951716e-01
9.98036866e-01
9.98124406e-01
9.98214156e-01
9.98305918e-01
9.98399476e-01
9.98494602e-01
9.98591054e-01
9.98688584e-01
9.98786939e-01
9.98885864e-01
9.98985107e-01
9.99084427e-01
9.99183589e-01
9.99282378e-01
9.99380597e-01
9.99478070e-01
9.99574651e-01
9.99670218e-01
9.99764683e-01
9.99857990e-01
9.99950113e-01
1.00004106e+00
1.00013087e+00
1.00021962e+00
1.00030740e+00
1.00039433e+00
1.00048056e+00
1.00056625e+00
1.00065157e+00
1.00073668e+00
1.00082179e+00
1.00090704e+00
1.00099262e+00
1.00107867e+00
1.00116532e+00
1.00125265e+00
1.00134076e+00
1.00142966e+00
1.00151935e+00
1.00160980e+00
1.00170091e+00
1.00179256e+00
1.00188458e+00
1.00197676e+00
1.00206886e+00
1.00216062e+00
1.00225171e+00
1.00234184e+00
1.00243066e+00
1.00251783e+00
1.00260301e+00
1.00268586e+00
1.00276608e+00
1.00284336e+00
1.00291743e+00
1.00298807e+00
1.00305507e+00
1.00311827e+00
1.00317755e+00
1.00323284e+00
1.00328411e+00
1.00333136e+00
1.00337464e+00
1.00341403e+00
1.00344964e+00
1.00348160e+00
1.00351008e+00
1.00353526e+00
1.00355733e+00
1.00357649e+00
1.00359297e+00
1.00360696e+00
1.00361870e+00
1.00362839e+00
1.00363624e+00
1.00364247e+00
1.00364726e+00
1.00365080e+00
1.00365331e+00
1.00365494e+00
1.00365581e+00
1.00365613e+00
1.00365606e+00
1.00365564e+00
1.00365502e+00
1.00365441e+00
1.00365379e+00
1.00365327e+00
1.00365299e+00
1.00365296e+00
9.96666123e-01
9.96668104e-01
9.96671095e-01
9.96675211e-01
9.96680431e-01
9.96686781e-01
9.96694429e-01
9.96703470e-01
9.96713849e-01
9.96725670e-01
9.96739082e-01
9.96754110e-01
9.96770813e-01
9.96789328e-01
9.96809747e-01
9.96832134e-01
9.96856593e-01
9.96883229e-01
9.96912130e-01
9.96943381e-01
9.96977077e-01
9.97013307e-01
9.97052151e-01
9.97093686e-01
9.97137989e-01
9.97185123e-01
9.97235146e-01
9.97288107e-01
9.97344045e-01
9.97402984e-01
9.97464938e-01
9.97529905e-01
9.97597865e-01
9.97668783e-01
9.97742604e-01
9.97819253e-01
9.97898637e-01
9.97980640e-01
9.98065126e-01
9.98151940e-01
9.98240907e-01
9.98331834e-01
9.98424512e-01
9.98518716e-01
9.98614213e-01
9.98710759e-01
9.98808105e-01
9.98906002e-01
9.99004204e-01
9.99102470e-01
9.99200570e-01
9.99298289e-01
9.99395432e-01
9.99491823e-01
9.99587316e-01
9.99681787e-01
9.99775148e-01
9.99867338e-01
9.99958331e-01
1.00004813e+00
1.00013678e+00
1.00022434e+00
1.00031091e+00
1.00039661e+00
1.00048159e+00
1.00056599e+00
1.00064999e+00
1.00073377e+00
1.00081751e+00
1.00090139e+00
1.00098556e+00
1.00107019e+00
1.00115540e+00
1.00124129e+00
1.00132793e+00
1.00141538e+00
1.00150362e+00
1.00159263e+00
1.00168231e+00
1.00177255e+00
1.00186320e+00
1.00195404e+00
1.00204485e+00
1.00213535e+00
1.00222527e+00
1.00231427e+00
1.00240204e+00
1.00248824e+00
1.00257253e+00
1.00265460e+00
1.00273413e+00
1.00281082e+00
1.00288441e+00
1.00295467e+00
1.00302141e+00
1.00308445e+00
1.00314369e+00
1.00319904e+00
1.00325048e+00
1.00329800e+00
1.00334164e+00
1.00338148e+00
1.00341763e+00
1.00345022e+00
1.00347939e+00
1.00350534e+00
1.00352824e+00
1.00354829e+00
1.00356570e+00
1.00358068e+00
1.00359343e+00
1.00360417e+00
1.00361308e+00
1.00362039e+00
1.00362627e+00
1.00363090e+00
1.00363444e+00
1.00363709e+00
1.00363899e+00
1.00364023e+00
1.00364100e+00
1.00364144e+00
1.00364156e+00
1.00364148e+00
1.00364140e+00
1.00364134e+00
1.00364128e+00
1.00364138e+00
9.96688584e-01
9.96690665e-01
9.96693802e-01
9.96698088e-01
9.96703541e-01
9.96710246e-01
9.96718312e-01
9.96727747e-01
9.96738600e-01
9.96750990e-01
9.96764950e-01
9.96780534e-01
9.96797856e-01
9.96817001e-01
9.96838027e-01
9.96861030e-01
9.96886111e-01
9.96913347e-01
9.96942821e-01
9.96974624e-01
9.97008842e-01
9.97045551e-01
9.97084829e-01
9.97126751e-01
9.97171384e-01
9.97218786e-01
9.97269014e-01
9.97322110e-01
9.97378108e-01
9.97437032e-01
9.97498892e-01
9.97563682e-01
9.97631384e-01
9.97701960e-01
9.97775357e-01
9.97851502e-01
9.97930302e-01
9.98011646e-01
9.98095402e-01
9.98181420e-01
9.98269528e-01
9.98359541e-01
9.98451255e-01
9.98544453e-01
9.98638906e-01
9.98734378e-01
9.98830625e-01
9.98927404e-01
9.99024472e-01
9.99121594e-01
9.99218541e-01
9.99315103e-01
9.99411084e-01
9.99506310e-01
9.99600632e-01
9.99693929e-01
9.99786107e-01
9.99877106e-01
9.99966897e-01
1.00005548e+00
1.00014290e+00
1.00022920e+00
1.00031450e+00
1.00039890e+00
1.00048255e+00
1.00056559e+00
1.00064822e+00
1.00073059e+00
1.00081290e+00
1.00089531e+00
1.00097800e+00
1.00106112e+00
1.00114481e+00
1.00122916e+00
1.00131427e+00
1.00140017e+00
1.00148686e+00
1.00157433e+00
1.00166249e+00
1.00175123e+00
1.00184040e+00
1.00192981e+00
1.00201923e+00
1.00210840e+00
1.00219703e+00
1.00228483e+00
1.00237147e+00
1.00245662e+00
1.00253997e+00
1.00262118e+00
1.00269996e+00
1.00277602e+00
1.00284909e+00
1.00291894e+00
1.00298538e+00
1.00304825e+00
1.00310742e+00
1.00316283e+00
1.00321443e+00
1.00326222e+00
1.00330623e+00
1.00334655e+00
1.00338325e+00
1.00341649e+00
1.00344639e+00
1.00347313e+00
1.00349690e+00
1.00351787e+00
1.00353626e+00
1.00355226e+00
1.00356607e+00
1.00357790e+00
1.00358793e+00
1.00359635e+00
1.00360335e+00
1.00360911e+00
1.00361376e+00
1.00361747e+00
1.00362039e+00
1.00362265e+00
1.00362432e+00
1.00362556e+00
1.00362645e+00
1.00362705e+00
1.00362747e+00
1.00362782e+00
1.00362809e+00
1.00362840e+00
9.96713085e-01
9.96715265e-01
9.96718575e-01
9.96723039e-01
9.96728758e-01
9.96735842e-01
9.96744293e-01
9.96754157e-01
9.96765542e-01
9.96778476e-01
9.96792988e-01
9.96809183e-01
9.96827141e-01
9.96846908e-01
9.96868569e-01
9.96892220e-01
9.96917932e-01
9.96945777e-01
9.96975845e-01
9.97008216e-01
9.97042962e-01
9.97080158e-01
9.97119879e-01
9.97162189e-01
9.97207150e-01
9.97254818e-01
9.97305241e-01
9.97358459e-01
9.97414501e-01
9.97473388e-01
9.97535126e-01
9.97599708e-01
9.97667114e-01
9.97737306e-01
9.97810232e-01
9.97885819e-01
9.97963978e-01
9.98044601e-01
9.98127559e-01
9.98212708e-01
9.98299882e-01
9.98388902e-01
9.98479570e-01
9.98571676e-01
9.98664999e-01
9.98759308e-01
9.98854368e-01
9.98949939e-01
9.99045785e-01
9.99141675e-01
9.99237384e-01
9.99332703e-01
9.99427440e-01
9.99521421e-01
9.99614496e-01
9.99706544e-01
9.99797469e-01
9.99887209e-01
9.99975732e-01
1.00006304e+00
1.00014916e+00
1.00023415e+00
1.00031811e+00
1.00040115e+00
1.00048342e+00
1.00056505e+00
1.00064623e+00
1.00072714e+00
1.00080795e+00
1.00088884e+00
1.00096998e+00
1.00105152e+00
1.00113361e+00
1.00121636e+00
1.00129984e+00
1.00138410e+00
1.00146917e+00
1.00155501e+00
1.00164156e+00
1.00172871e+00
1.00181631e+00
1.00190419e+00
1.00199213e+00
1.00207987e+00
1.00216715e+00
1.00225365e+00
1.00233909e+00
1.00242313e+00
1.00250545e+00
1.00258576e+00
1.00266373e+00
1.00273910e+00
1.00281160e+00
1.00288100e+00
1.00294712e+00
1.00300978e+00
1.00306888e+00
1.00312433e+00
1.00317608e+00
1.00322414e+00
1.00326853e+00
1.00330932e+00
1.00334660e+00
1.00338049e+00
1.00341114e+00
1.00343870e+00
1.00346336e+00
1.00348529e+00
1.00350468e+00
1.00352173e+00
1.00353664e+00
1.00354959e+00
1.00356077e+00
1.00357035e+00
1.00357851e+00
1.00358541e+00
1.00359121e+00
1.00359603e+00
1.00359999e+00
1.00360326e+00
1.00360589e+00
1.00360797e+00
1.00360963e+00
1.00361092e+00
1.00361190e+00
1.00361267e+00
1.00361330e+00
1.00361384e+00
9.96739745e-01
9.96742006e-01
9.96745455e-01
9.96750153e-01
9.96756175e-01
9.96763591e-01
9.96772442e-01
9.96782798e-01
9.96794694e-01
9.96808156e-01
9.96823264e-01
9.96840087e-01
9.96858663e-01
9.96879070e-01
9.96901392e-01
9.96925691e-01
9.96952033e-01
9.96980502e-01
9.97011173e-01
9.97044110e-01
9.97079385e-01
9.97117071e-01
9.97157230e-01
9.97199922e-01
9.97245203e-01
9.97293124e-01
9.97343727e-01
9.97397047e-01
9.97453110e-01
9.97511932e-01
9.97573516e-01
9.97637854e-01
9.97704923e-01
9.97774687e-01
9.97847091e-01
9.97922065e-01
9.97999524e-01
9.98079361e-01
9.98161453e-01
9.98245661e-01
9.98331826e-01
9.98419773e-01
9.98509314e-01
9.98600246e-01
9.98692353e-01
9.98785414e-01
9.98879199e-01
9.98973477e-01
9.99068015e-01
9.99162588e-01
9.99256976e-01
9.99350973e-01
9.99444388e-01
9.99537048e-01
9.99628805e-01
9.99719536e-01
9.99809143e-01
9.99897562e-01
9.99984758e-01
1.00007073e+00
1.00015550e+00
1.00023913e+00
1.00032171e+00
1.00040334e+00
1.00048417e+00
1.00056435e+00
1.00064404e+00
1.00072342e+00
1.00080268e+00
1.00088199e+00
1.00096152e+00
1.00104143e+00
1.00112186e+00
1.00120292e+00
1.00128471e+00
1.00136727e+00
1.00145063e+00
1.00153476e+00
1.00161961e+00
1.00170509e+00
1.00179105e+00
1.00187732e+00
1.00196369e+00
1.00204992e+00
1.00213575e+00
1.00222090e+00
1.00230505e+00
1.00238790e+00
1.00246914e+00
1.00254847e+00
1.00262558e+00
1.00270021e+00
1.00277209e+00
1.00284101e+00
1.00290677e+00
1.00296920e+00
1.00302820e+00
1.00308367e+00
1.00313557e+00
1.00318388e+00
1.00322864e+00
1.00326991e+00
1.00330776e+00
1.00334233e+00
1.00337373e+00
1.00340212e+00
1.00342768e+00
1.00345058e+00
1.00347100e+00
1.00348912e+00
1.00350515e+00
1.00351924e+00
1.00353158e+00
1.00354235e+00
1.00355170e+00
1.00355978e+00
1.00356672e+00
1.00357268e+00
1.00357773e+00
1.00358201e+00
1.00358560e+00
1.00358859e+00
1.00359102e+00
1.00359299e+00
1.00359456e+00
1.00359580e+00
1.00359677e+00
1.00359754e+00
9.96768601e-01
9.96770964e-01
9.96774568e-01
9.96779504e-01
9.96785821e-01
9.96793582e-01
9.96802860e-01
9.96813692e-01
9.96826088e-01
9.96840110e-01
9.96855820e-01
9.96873248e-01
9.96892454e-01
9.96913516e-01
9.96936487e-01
9.96961426e-01
9.96988407e-01
9.97017499e-01
9.97048760e-01
9.97082257e-01
9.97118058e-01
9.97156222e-01
9.97196805e-01
9.97239864e-01
9.97285449e-01
9.97333602e-01
9.97384362e-01
9.97437758e-01
9.97493813e-01
9.97552536e-01
9.97613930e-01
9.97677983e-01
9.97744671e-01
9.97813956e-01
9.97885786e-01
9.97960091e-01
9.98036788e-01
9.98115776e-01
9.98196934e-01
9.98280130e-01
9.98365211e-01
9.98452009e-01
9.98540344e-01
9.98630019e-01
9.98720829e-01
9.98812558e-01
9.98904985e-01
9.98997885e-01
9.99091034e-01
9.99184209e-01
9.99277198e-01
9.99369796e-01
9.99461816e-01
9.99553086e-01
9.99643458e-01
9.99732808e-01
9.99821039e-01
9.99908082e-01
9.99993899e-01
1.00007848e+00
1.00016186e+00
1.00024408e+00
1.00032523e+00
1.00040542e+00
1.00048478e+00