# vtk DataFile Version 2.0
LBM Flow Field - Timestep 1390
ASCII
DATASET STRUCTURED_POINTS
DIMENSIONS 128 128 1
ORIGIN 0.0 0.0 0.0
SPACING 1.0 1.0 1.0
POINT_DATA 16384
SCALARS density double 1
LOOKUP_TABLE default
1.00333621e+00
1.00332957e+00
1.00332587e+00
1.00333931e+00
1.00335639e+00
1.00337474e+00
1.00339770e+00
1.00342533e+00
1.00345590e+00
1.00348947e+00
1.00352617e+00
1.00356538e+00
1.00360648e+00
1.00364907e+00
1.00369264e+00
1.00373653e+00
1.00378011e+00
1.00382273e+00
1.00386370e+00
1.00390232e+00
1.00393787e+00
1.00396966e+00
1.00399700e+00
1.00401924e+00
1.00403577e+00
1.00404604e+00
1.00404955e+00
1.00404591e+00
1.00403477e+00
1.00401590e+00
1.00398913e+00
1.00395442e+00
1.00391179e+00
1.00386135e+00
1.00380328e+00
1.00373783e+00
1.00366533e+00
1.00358613e+00
1.00350062e+00
1.00340923e+00
1.00331240e+00
1.00321056e+00
1.00310414e+00
1.00299357e+00
1.00287925e+00
1.00276154e+00
1.00264079e+00
1.00251731e+00
1.00239136e+00
1.00226319e+00
1.00213298e+00
1.00200091e+00
1.00186710e+00
1.00173165e+00
1.00159463e+00
1.00145610e+00
1.00131609e+00
1.00117464e+00
1.00103177e+00
1.00088751e+00
1.00074190e+00
1.00059501e+00
1.00044692e+00
1.00029773e+00
1.00014757e+00
9.99996639e-01
9.99845126e-01
9.99693277e-01
9.99541368e-01
9.99389702e-01
9.99238611e-01
9.99088443e-01
9.98939564e-01
9.98792345e-01
9.98647158e-01
9.98504370e-01
9.98364335e-01
9.98227387e-01
9.98093842e-01
9.97963985e-01
9.97838077e-01
9.97716348e-01
9.97599002e-01
9.97486218e-01
9.97378151e-01
9.97274941e-01
9.97176717e-01
9.97083600e-01
9.96995712e-01
9.96913180e-01
9.96836143e-01
9.96764749e-01
9.96699166e-01
9.96639573e-01
9.96586161e-01
9.96539133e-01
9.96498687e-01
9.96465016e-01
9.96438292e-01
9.96418657e-01
9.96406206e-01
9.96400976e-01
9.96402934e-01
9.96411963e-01
9.96427857e-01
9.96450310e-01
9.96478918e-01
9.96513176e-01
9.96552482e-01
9.96596157e-01
9.96643450e-01
9.96693541e-01
9.96745580e-01
9.96798730e-01
9.96852125e-01
9.96904869e-01
9.96956203e-01
9.97005511e-01
9.97051954e-01
9.97094759e-01
9.97133871e-01
9.97169116e-01
9.97199058e-01
9.97223790e-01
9.97245421e-01
9.97261789e-01
9.97265133e-01
9.97264185e-01
1.00332675e+00
1.00332724e+00
1.00332780e+00
1.00333917e+00
1.00335439e+00
1.00337341e+00
1.00339627e+00
1.00342322e+00
1.00345345e+00
1.00348682e+00
1.00352301e+00
1.00356165e+00
1.00360223e+00
1.00364426e+00
1.00368720e+00
1.00373046e+00
1.00377342e+00
1.00381543e+00
1.00385580e+00
1.00389385e+00
1.00392888e+00
1.00396019e+00
1.00398711e+00
1.00400901e+00
1.00402527e+00
1.00403535e+00
1.00403877e+00
1.00403512e+00
1.00402406e+00
1.00400536e+00
1.00397885e+00
1.00394448e+00
1.00390225e+00
1.00385226e+00
1.00379471e+00
1.00372982e+00
1.00365790e+00
1.00357931e+00
1.00349441e+00
1.00340364e+00
1.00330741e+00
1.00320616e+00
1.00310030e+00
1.00299025e+00
1.00287641e+00
1.00275915e+00
1.00263879e+00
1.00251565e+00
1.00238999e+00
1.00226205e+00
1.00213203e+00
1.00200008e+00
1.00186634e+00
1.00173092e+00
1.00159389e+00
1.00145531e+00
1.00131523e+00
1.00117368e+00
1.00103071e+00
1.00088634e+00
1.00074064e+00
1.00059366e+00
1.00044551e+00
1.00029628e+00
1.00014614e+00
9.99995253e-01
9.99843835e-01
9.99692128e-01
9.99540408e-01
9.99388979e-01
9.99238168e-01
9.99088322e-01
9.98939799e-01
9.98792966e-01
9.98648191e-01
9.98505831e-01
9.98366236e-01
9.98229736e-01
9.98096637e-01
9.97967224e-01
9.97841753e-01
9.97720451e-01
9.97603520e-01
9.97491139e-01
9.97383465e-01
9.97280639e-01
9.97182790e-01
9.97090043e-01
9.97002523e-01
9.96920359e-01
9.96843691e-01
9.96772670e-01
9.96707462e-01
9.96648244e-01
9.96595207e-01
9.96548545e-01
9.96508453e-01
9.96475115e-01
9.96448694e-01
9.96429320e-01
9.96417077e-01
9.96411993e-01
9.96414023e-01
9.96423041e-01
9.96438832e-01
9.96461085e-01
9.96489393e-01
9.96523249e-01
9.96562061e-01
9.96605152e-01
9.96651776e-01
9.96701138e-01
9.96752407e-01
9.96804739e-01
9.96857285e-01
9.96909230e-01
9.96959799e-01
9.97008287e-01
9.97053988e-01
9.97096334e-01
9.97134903e-01
9.97169391e-01
9.97199066e-01
9.97223926e-01
9.97243993e-01
9.97259083e-01
9.97265108e-01
9.97267881e-01
1.00331451e+00
1.00331899e+00
1.00332896e+00
1.00333659e+00
1.00334939e+00
1.00336954e+00
1.00339267e+00
1.00341852e+00
1.00344823e+00
1.00348133e+00
1.00351693e+00
1.00355484e+00
1.00359478e+00
1.00363616e+00
1.00367838e+00
1.00372094e+00
1.00376322e+00
1.00380456e+00
1.00384430e+00
1.00388176e+00
1.00391625e+00
1.00394710e+00
1.00397364e+00
1.00399523e+00
1.00401128e+00
1.00402125e+00
1.00402465e+00
1.00402108e+00
1.00401020e+00
1.00399176e+00
1.00396561e+00
1.00393167e+00
1.00388996e+00
1.00384055e+00
1.00378362e+00
1.00371941e+00
1.00364820e+00
1.00357033e+00
1.00348618e+00
1.00339615e+00
1.00330066e+00
1.00320011e+00
1.00309494e+00
1.00298555e+00
1.00287232e+00
1.00275562e+00
1.00263577e+00
1.00251308e+00
1.00238782e+00
1.00226020e+00
1.00213044e+00
1.00199869e+00
1.00186510e+00
1.00172976e+00
1.00159276e+00
1.00145417e+00
1.00131404e+00
1.00117242e+00
1.00102935e+00
1.00088488e+00
1.00073908e+00
1.00059202e+00
1.00044380e+00
1.00029455e+00
1.00014442e+00
9.99993586e-01
9.99842274e-01
9.99690729e-01
9.99539227e-01
9.99388070e-01
9.99237585e-01
9.99088115e-01
9.98940014e-01
9.98793644e-01
9.98649364e-01
9.98507528e-01
9.98368477e-01
9.98232534e-01
9.98100001e-01
9.97971156e-01
9.97846251e-01
9.97725510e-01
9.97609133e-01
9.97497295e-01
9.97390155e-01
9.97287853e-01
9.97190520e-01
9.97098283e-01
9.97011267e-01
9.96929604e-01
9.96853434e-01
9.96782909e-01
9.96718195e-01
9.96659466e-01
9.96606911e-01
9.96560719e-01
9.96521078e-01
9.96488164e-01
9.96462133e-01
9.96443104e-01
9.96431150e-01
9.96426289e-01
9.96428465e-01
9.96437542e-01
9.96453298e-01
9.96475415e-01
9.96503482e-01
9.96536992e-01
9.96575356e-01
9.96617899e-01
9.96663883e-01
9.96712532e-01
9.96763030e-01
9.96814525e-01
9.96866196e-01
9.96917304e-01
9.96967039e-01
9.97014588e-01
9.97059478e-01
9.97101334e-01
9.97139184e-01
9.97172510e-01
9.97202098e-01
9.97227504e-01
9.97245726e-01
9.97258210e-01
9.97269231e-01
9.97274189e-01
1.00331157e+00
1.00331407e+00
1.00332133e+00
1.00333065e+00
1.00334539e+00
1.00336387e+00
1.00338587e+00
1.00341177e+00
1.00344109e+00
1.00347328e+00
1.00350818e+00
1.00354547e+00
1.00358463e+00
1.00362518e+00
1.00366662e+00
1.00370840e+00
1.00374989e+00
1.00379049e+00
1.00382952e+00
1.00386633e+00
1.00390024e+00
1.00393058e+00
1.00395670e+00
1.00397797e+00
1.00399379e+00
1.00400364e+00
1.00400703e+00
1.00400355e+00
1.00399288e+00
1.00397476e+00
1.00394902e+00
1.00391559e+00
1.00387446e+00
1.00382572e+00
1.00376953e+00
1.00370610e+00
1.00363572e+00
1.00355871e+00
1.00347543e+00
1.00338628e+00
1.00329166e+00
1.00319198e+00
1.00308765e+00
1.00297905e+00
1.00286658e+00
1.00275057e+00
1.00263137e+00
1.00250926e+00
1.00238450e+00
1.00225733e+00
1.00212793e+00
1.00199648e+00
1.00186311e+00
1.00172793e+00
1.00159103e+00
1.00145248e+00
1.00131236e+00
1.00117071e+00
1.00102758e+00
1.00088306e+00
1.00073720e+00
1.00059009e+00
1.00044185e+00
1.00029261e+00
1.00014254e+00
9.99991817e-01
9.99840674e-01
9.99689357e-01
9.99538144e-01
9.99387339e-01
9.99237265e-01
9.99088260e-01
9.98940674e-01
9.98794862e-01
9.98651176e-01
9.98509963e-01
9.98371555e-01
9.98236269e-01
9.98104402e-01
9.97976223e-01
9.97851981e-01
9.97731898e-01
9.97616169e-01
9.97504971e-01
9.97398461e-01
9.97296780e-01
9.97200062e-01
9.97108435e-01
9.97022026e-01
9.96940968e-01
9.96865404e-01
9.96795485e-01
9.96731374e-01
9.96673245e-01
9.96621282e-01
9.96575667e-01
9.96536582e-01
9.96504193e-01
9.96478645e-01
9.96460046e-01
9.96448458e-01
9.96443886e-01
9.96446264e-01
9.96455445e-01
9.96471199e-01
9.96493203e-01
9.96521041e-01
9.96554208e-01
9.96592113e-01
9.96634094e-01
9.96679425e-01
9.96727326e-01
9.96777002e-01
9.96827646e-01
9.96878438e-01
9.96928589e-01
9.96977394e-01
9.97024163e-01
9.97068205e-01
9.97109021e-01
9.97146270e-01
9.97179395e-01
9.97207924e-01
9.97231838e-01
9.97250904e-01
9.97264394e-01
9.97274155e-01
9.97277658e-01
1.00330708e+00
1.00330844e+00
1.00331308e+00
1.00332432e+00
1.00333910e+00
1.00335600e+00
1.00337765e+00
1.00340337e+00
1.00343181e+00
1.00346307e+00
1.00349726e+00
1.00353372e+00
1.00357192e+00
1.00361154e+00
1.00365207e+00
1.00369292e+00
1.00373351e+00
1.00377323e+00
1.00381145e+00
1.00384751e+00
1.00388074e+00
1.00391049e+00
1.00393611e+00
1.00395699e+00
1.00397255e+00
1.00398225e+00
1.00398562e+00
1.00398226e+00
1.00397181e+00
1.00395405e+00
1.00392878e+00
1.00389593e+00
1.00385548e+00
1.00380751e+00
1.00375216e+00
1.00368964e+00
1.00362022e+00
1.00354422e+00
1.00346197e+00
1.00337385e+00
1.00328027e+00
1.00318161e+00
1.00307827e+00
1.00297063e+00
1.00285906e+00
1.00274391e+00
1.00262549e+00
1.00250409e+00
1.00237996e+00
1.00225334e+00
1.00212441e+00
1.00199335e+00
1.00186028e+00
1.00172534e+00
1.00158860e+00
1.00145016e+00
1.00131008e+00
1.00116844e+00
1.00102531e+00
1.00088076e+00
1.00073487e+00
1.00058776e+00
1.00043954e+00
1.00029037e+00
1.00014041e+00
9.99989861e-01
9.99838955e-01
9.99687945e-01
9.99537110e-01
9.99386751e-01
9.99237190e-01
9.99088760e-01
9.98941804e-01
9.98796669e-01
9.98653700e-01
9.98513232e-01
9.98375592e-01
9.98241087e-01
9.98110005e-01
9.97982612e-01
9.97859150e-01
9.97739836e-01
9.97624866e-01
9.97514415e-01
9.97408639e-01
9.97307683e-01
9.97211681e-01
9.97120764e-01
9.97035063e-01
9.96954712e-01
9.96879856e-01
9.96810645e-01
9.96747242e-01
9.96689818e-01
9.96638551e-01
9.96593617e-01
9.96555188e-01
9.96523421e-01
9.96498447e-01
9.96480363e-01
9.96469218e-01
9.96465001e-01
9.96467634e-01
9.96476960e-01
9.96492739e-01
9.96514641e-01
9.96542247e-01
9.96575052e-01
9.96612468e-01
9.96653838e-01
9.96698452e-01
9.96745543e-01
9.96794319e-01
9.96844008e-01
9.96893829e-01
9.96942962e-01
9.96990712e-01
9.97036534e-01
9.97079712e-01
9.97119499e-01
9.97155806e-01
9.97188503e-01
9.97216412e-01
9.97239048e-01
9.97258058e-01
9.97272328e-01
9.97279977e-01
9.97282892e-01
1.00329897e+00
1.00330095e+00
1.00330648e+00
1.00331630e+00
1.00332955e+00
1.00334708e+00
1.00336844e+00
1.00339272e+00
1.00342026e+00
1.00345096e+00
1.00348415e+00
1.00351947e+00
1.00355667e+00
1.00359527e+00
1.00363471e+00
1.00367449e+00
1.00371406e+00
1.00375280e+00
1.00379008e+00
1.00382528e+00
1.00385775e+00
1.00388683e+00
1.00391190e+00
1.00393235e+00
1.00394761e+00
1.00395715e+00
1.00396049e+00
1.00395724e+00
1.00394706e+00
1.00392969e+00
1.00390495e+00
1.00387275e+00
1.00383306e+00
1.00378596e+00
1.00373157e+00
1.00367008e+00
1.00360175e+00
1.00352688e+00
1.00344579e+00
1.00335886e+00
1.00326646e+00
1.00316896e+00
1.00306676e+00
1.00296023e+00
1.00284971e+00
1.00273554e+00
1.00261804e+00
1.00249748e+00
1.00237410e+00
1.00224814e+00
1.00211979e+00
1.00198920e+00
1.00185653e+00
1.00172188e+00
1.00158538e+00
1.00144710e+00
1.00130713e+00
1.00116556e+00
1.00102246e+00
1.00087793e+00
1.00073207e+00
1.00058500e+00
1.00043686e+00
1.00028780e+00
1.00013802e+00
9.99987715e-01
9.99837124e-01
9.99686506e-01
9.99536142e-01
9.99386331e-01
9.99237390e-01
9.99089648e-01
9.98943440e-01
9.98799105e-01
9.98656976e-01
9.98517382e-01
9.98380637e-01
9.98247039e-01
9.98116870e-01
9.97990386e-01
9.97867825e-01
9.97749400e-01
9.97635305e-01
9.97525712e-01
9.97420780e-01
9.97320655e-01
9.97225474e-01
9.97135371e-01
9.97050479e-01
9.96970936e-01
9.96896886e-01
9.96828482e-01
9.96765884e-01
9.96709261e-01
9.96658783e-01
9.96614620e-01
9.96576935e-01
9.96545871e-01
9.96521548e-01
9.96504049e-01
9.96493405e-01
9.96489595e-01
9.96492525e-01
9.96502026e-01
9.96517848e-01
9.96539653e-01
9.96567019e-01
9.96599442e-01
9.96636338e-01
9.96677054e-01
9.96720889e-01
9.96767104e-01
9.96814928e-01
9.96863567e-01
9.96912281e-01
9.96960357e-01
9.97007037e-01
9.97051647e-01
9.97093741e-01
9.97132802e-01
9.97168138e-01
9.97199468e-01
9.97226846e-01
9.97249626e-01
9.97267418e-01
9.97280565e-01
9.97288544e-01
9.97291637e-01
1.00329025e+00
1.00329190e+00
1.00329773e+00
1.00330648e+00
1.00331927e+00
1.00333655e+00
1.00335676e+00
1.00338012e+00
1.00340697e+00
1.00343661e+00
1.00346858e+00
1.00350281e+00
1.00353889e+00
1.00357627e+00
1.00361451e+00
1.00365313e+00
1.00369156e+00
1.00372920e+00
1.00376546e+00
1.00379972e+00
1.00383134e+00
1.00385969e+00
1.00388415e+00
1.00390413e+00
1.00391906e+00
1.00392843e+00
1.00393175e+00
1.00392864e+00
1.00391875e+00
1.00390182e+00
1.00387766e+00
1.00384618e+00
1.00380734e+00
1.00376120e+00
1.00370786e+00
1.00364751e+00
1.00358039e+00
1.00350677e+00
1.00342698e+00
1.00334137e+00
1.00325028e+00
1.00315409e+00
1.00305316e+00
1.00294786e+00
1.00283852e+00
1.00272546e+00
1.00260900e+00
1.00248938e+00
1.00236687e+00
1.00224167e+00
1.00211398e+00
1.00198396e+00
1.00185176e+00
1.00171750e+00
1.00158129e+00
1.00144324e+00
1.00130343e+00
1.00116198e+00
1.00101897e+00
1.00087452e+00
1.00072875e+00
1.00058178e+00
1.00043377e+00
1.00028491e+00
1.00013537e+00
9.99985391e-01
9.99835202e-01
9.99685069e-01
9.99535274e-01
9.99386116e-01
9.99237908e-01
9.99090971e-01
9.98945633e-01
9.98802221e-01
9.98661060e-01
9.98522467e-01
9.98386744e-01
9.98254180e-01
9.98125047e-01
9.97999594e-01
9.97878052e-01
9.97760630e-01
9.97647519e-01
9.97538892e-01
9.97434907e-01
9.97335713e-01
9.97241450e-01
9.97152254e-01
9.97068262e-01
9.96989617e-01
9.96916462e-01
9.96848951e-01
9.96787244e-01
9.96731504e-01
9.96681897e-01
9.96638585e-01
9.96601719e-01
9.96571432e-01
9.96547827e-01
9.96530973e-01
9.96520887e-01
9.96517530e-01
9.96520794e-01
9.96530498e-01
9.96546380e-01
9.96568097e-01
9.96595221e-01
9.96627244e-01
9.96663592e-01
9.96703623e-01
9.96746637e-01
9.96791911e-01
9.96838709e-01
9.96886259e-01
9.96933800e-01
9.96980665e-01
9.97026198e-01
9.97069665e-01
9.97110526e-01
9.97148486e-01
9.97182968e-01
9.97213308e-01
9.97239662e-01
9.97261980e-01
9.97279079e-01
9.97291294e-01
9.97299325e-01
9.97302010e-01
1.00328068e+00
1.00328160e+00
1.00328642e+00
1.00329514e+00
1.00330776e+00
1.00332366e+00
1.00334294e+00
1.00336579e+00
1.00339150e+00
1.00341978e+00
1.00345067e+00
1.00348374e+00
1.00351848e+00
1.00355454e+00
1.00359152e+00
1.00362887e+00
1.00366605e+00
1.00370251e+00
1.00373767e+00
1.00377091e+00
1.00380162e+00
1.00382919e+00
1.00385301e+00
1.00387249e+00
1.00388708e+00
1.00389626e+00
1.00389957e+00
1.00389661e+00
1.00388704e+00
1.00387060e+00
1.00384708e+00
1.00381639e+00
1.00377847e+00
1.00373336e+00
1.00368117e+00
1.00362206e+00
1.00355625e+00
1.00348401e+00
1.00340562e+00
1.00332143e+00
1.00323178e+00
1.00313700e+00
1.00303747e+00
1.00293352e+00
1.00282547e+00
1.00271364e+00
1.00259831e+00
1.00247975e+00
1.00235820e+00
1.00223386e+00
1.00210692e+00
1.00197755e+00
1.00184590e+00
1.00171209e+00
1.00157625e+00
1.00143849e+00
1.00129893e+00
1.00115766e+00
1.00101481e+00
1.00087050e+00
1.00072488e+00
1.00057808e+00
1.00043029e+00
1.00028169e+00
1.00013249e+00
9.99982925e-01
9.99833234e-01
9.99683687e-01
9.99534569e-01
9.99386177e-01
9.99238817e-01
9.99092806e-01
9.98948460e-01
9.98806098e-01
9.98666030e-01
9.98528563e-01
9.98393986e-01
9.98262578e-01
9.98134600e-01
9.98010293e-01
9.97889881e-01
9.97773568e-01
9.97661544e-01
9.97553980e-01
9.97451036e-01
9.97352861e-01
9.97259600e-01
9.97171393e-01
9.97088382e-01
9.97010709e-01
9.96938523e-01
9.96871978e-01
9.96811232e-01
9.96756444e-01
9.96707775e-01
9.96665378e-01
9.96629393e-01
9.96599940e-01
9.96577109e-01
9.96560950e-01
9.96551467e-01
9.96548601e-01
9.96552233e-01
9.96562165e-01
9.96578126e-01
9.96599762e-01
9.96626645e-01
9.96658265e-01
9.96694048e-01
9.96733364e-01
9.96775536e-01
9.96819839e-01
9.96865546e-01
9.96911950e-01
9.96958317e-01
9.97003910e-01
9.97048132e-01
9.97090445e-01
9.97130185e-01
9.97166815e-01
9.97200159e-01
9.97229847e-01
9.97255239e-01
9.97276313e-01
9.97293068e-01
9.97305083e-01
9.97312235e-01
9.97314236e-01
1.00326873e+00
1.00326938e+00
1.00327367e+00
1.00328200e+00
1.00329381e+00
1.00330881e+00
1.00332741e+00
1.00334915e+00
1.00337357e+00
1.00340075e+00
1.00343042e+00
1.00346208e+00
1.00349543e+00
1.00353015e+00
1.00356575e+00
1.00360172e+00
1.00363759e+00
1.00367281e+00
1.00370680e+00
1.00373896e+00
1.00376872e+00
1.00379547e+00
1.00381860e+00
1.00383756e+00
1.00385180e+00
1.00386080e+00
1.00386411e+00
1.00386133e+00
1.00385212e+00
1.00383619e+00
1.00381337e+00
1.00378352e+00
1.00374659e+00
1.00370260e+00
1.00365164e+00
1.00359385e+00
1.00352945e+00
1.00345866e+00
1.00338178e+00
1.00329912e+00
1.00321100e+00
1.00311775e+00
1.00301971e+00
1.00291720e+00
1.00281054e+00
1.00270003e+00
1.00258594e+00
1.00246853e+00
1.00234802e+00
1.00222462e+00
1.00209852e+00
1.00196988e+00
1.00183885e+00
1.00170558e+00
1.00157018e+00
1.00143279e+00
1.00129353e+00
1.00115253e+00
1.00100991e+00
1.00086583e+00
1.00072043e+00
1.00057390e+00
1.00042641e+00
1.00027817e+00
1.00012940e+00
9.99980350e-01
9.99831263e-01
9.99682414e-01
9.99534089e-01
9.99386581e-01
9.99240193e-01
9.99095231e-01
9.98952004e-01
9.98810817e-01
9.98671969e-01
9.98535751e-01
9.98402443e-01
9.98272310e-01
9.98145602e-01
9.98022551e-01
9.97903375e-01
9.97788273e-01
9.97677430e-01
9.97571017e-01
9.97469196e-01
9.97372120e-01
9.97279935e-01
9.97192787e-01
9.97110820e-01
9.97034182e-01
9.96963025e-01
9.96897502e-01
9.96837770e-01
9.96783987e-01
9.96736306e-01
9.96694872e-01
9.96659815e-01
9.96631241e-01
9.96609225e-01
9.96593801e-01
9.96584955e-01
9.96582614e-01
9.96586639e-01
9.96596822e-01
9.96612878e-01
9.96634446e-01
9.96661091e-01
9.96692308e-01
9.96727524e-01
9.96766112e-01
9.96807412e-01
9.96850731e-01
9.96895341e-01
9.96940539e-01
9.96985660e-01
9.97030014e-01
9.97072930e-01
9.97113899e-01
9.97152443e-01
9.97187965e-01
9.97220089e-01
9.97248702e-01
9.97273309e-01
9.97293499e-01
9.97309507e-01
9.97321037e-01
9.97327615e-01
9.97329362e-01
1.00325459e+00
1.00325511e+00
1.00325919e+00
1.00326669e+00
1.00327762e+00
1.00329207e+00
1.00330967e+00
1.00333008e+00
1.00335342e+00
1.00337942e+00
1.00340763e+00
1.00343785e+00
1.00346983e+00
1.00350310e+00
1.00353721e+00
1.00357177e+00
1.00360628e+00
1.00364018e+00
1.00367294e+00
1.00370400e+00
1.00373277e+00
1.00375866e+00
1.00378110e+00
1.00379953e+00
1.00381340e+00
1.00382223e+00
1.00382556e+00
1.00382297e+00
1.00381414e+00
1.00379878e+00
1.00377669e+00
1.00374774e+00
1.00371186e+00
1.00366905e+00
1.00361938e+00
1.00356300e+00
1.00350007e+00
1.00343083e+00
1.00335553e+00
1.00327448e+00
1.00318797e+00
1.00309633e+00
1.00299986e+00
1.00289889e+00
1.00279370e+00
1.00268459e+00
1.00257182e+00
1.00245563e+00
1.00233624e+00
1.00221386e+00
1.00208867e+00
1.00196084e+00
1.00183052e+00
1.00169785e+00
1.00156298e+00
1.00142605e+00
1.00128718e+00
1.00114652e+00
1.00100422e+00
1.00086046e+00
1.00071539e+00
1.00056921e+00
1.00042213e+00
1.00027436e+00
1.00012613e+00
9.99977709e-01
9.99829345e-01
9.99681316e-01
9.99533907e-01
9.99387411e-01
9.99242122e-01
9.99098339e-01
9.98956359e-01
9.98816474e-01
9.98678972e-01
9.98544128e-01
9.98412209e-01
9.98283466e-01
9.98158138e-01
9.98036449e-01
9.97918607e-01
9.97804808e-01
9.97695232e-01
9.97590052e-01
9.97489429e-01
9.97393518e-01
9.97302471e-01
9.97216438e-01
9.97135568e-01
9.97060014e-01
9.96989928e-01
9.96925468e-01
9.96866789e-01
9.96814046e-01
9.96767387e-01
9.96726948e-01
9.96692849e-01
9.96665182e-01
9.96644007e-01
9.96629344e-01
9.96621159e-01
9.96619363e-01
9.96623801e-01
9.96634251e-01
9.96650416e-01
9.96671927e-01
9.96698343e-01
9.96729157e-01
9.96763806e-01
9.96801671e-01
9.96842093e-01
9.96884403e-01
9.96927916e-01
9.96971922e-01
9.97015751e-01
9.97058807e-01
9.97100468e-01
9.97140109e-01
9.97177309e-01
9.97211708e-01
9.97242770e-01
9.97270152e-01
9.97293818e-01
9.97313417e-01
9.97328578e-01
9.97339332e-01
9.97345666e-01
9.97347241e-01
1.00323856e+00
1.00323869e+00
1.00324232e+00
1.00324922e+00
1.00325947e+00
1.00327301e+00
1.00328946e+00
1.00330882e+00
1.00333097e+00
1.00335554e+00
1.00338233e+00
1.00341116e+00
1.00344163e+00
1.00347336e+00
1.00350600e+00
1.00353910e+00
1.00357218e+00
1.00360473e+00
1.00363624e+00
1.00366616e+00
1.00369391e+00
1.00371893e+00
1.00374066e+00
1.00375855e+00
1.00377207e+00
1.00378073e+00
1.00378408e+00
1.00378172e+00
1.00377330e+00
1.00375854e+00
1.00373723e+00
1.00370921e+00
1.00367442e+00
1.00363285e+00
1.00358454e+00
1.00352961e+00
1.00346822e+00
1.00340058e+00
1.00332694e+00
1.00324756e+00
1.00316273e+00
1.00307276e+00
1.00297793e+00
1.00287855e+00
1.00277490e+00
1.00266726e+00
1.00255587e+00
1.00244097e+00
1.00232277e+00
1.00220148e+00
1.00207728e+00
1.00195033e+00
1.00182079e+00
1.00168882e+00
1.00155456e+00
1.00141816e+00
1.00127978e+00
1.00113956e+00
1.00099769e+00
1.00085435e+00
1.00070972e+00
1.00056401e+00
1.00041745e+00
1.00027027e+00
1.00012272e+00
9.99975051e-01
9.99827540e-01
9.99680463e-01
9.99534104e-01
9.99388752e-01
9.99244695e-01
9.99102224e-01
9.98961622e-01
9.98823169e-01
9.98687137e-01
9.98553789e-01
9.98423375e-01
9.98296134e-01
9.98172293e-01
9.98052065e-01
9.97935651e-01
9.97823240e-01
9.97715011e-01
9.97611134e-01
9.97511773e-01
9.97417086e-01
9.97327228e-01
9.97242355e-01
9.97162621e-01
9.97088183e-01
9.97019199e-01
9.96955826e-01
9.96898222e-01
9.96846538e-01
9.96800917e-01
9.96761488e-01
9.96728360e-01
9.96701613e-01
9.96681293e-01
9.96667401e-01
9.96659888e-01
9.96658648e-01
9.96663510e-01
9.96674237e-01
9.96690521e-01
9.96711983e-01
9.96738181e-01
9.96768603e-01
9.96802688e-01
9.96839834e-01
9.96879395e-01
9.96920701e-01
9.96963095e-01
9.97005921e-01
9.97048504e-01
9.97090230e-01
9.97130569e-01
9.97168966e-01
9.97204889e-01
9.97237999e-01
9.97267971e-01
9.97294368e-01
9.97317001e-01
9.97335753e-01
9.97350257e-01
9.97360433e-01
9.97366320e-01
9.97367526e-01
1.00322028e+00
1.00322003e+00
1.00322311e+00
1.00322947e+00
1.00323899e+00
1.00325149e+00
1.00326692e+00
1.00328520e+00
1.00330600e+00
1.00332917e+00
1.00335459e+00
1.00338192e+00
1.00341083e+00
1.00344104e+00
1.00347217e+00
1.00350376e+00
1.00353539e+00
1.00356658e+00
1.00359682e+00
1.00362557e+00
1.00365229e+00
1.00367644e+00
1.00369746e+00
1.00371482e+00
1.00372799e+00
1.00373650e+00
1.00373989e+00
1.00373777e+00
1.00372979e+00
1.00371565e+00
1.00369514e+00
1.00366811e+00
1.00363445e+00
1.00359414e+00
1.00354723e+00
1.00349380e+00
1.00343399e+00
1.00336800e+00
1.00329605e+00
1.00321839e+00
1.00313530e+00
1.00304704e+00
1.00295390e+00
1.00285617e+00
1.00275410e+00
1.00264798e+00
1.00253802e+00
1.00242447e+00
1.00230753e+00
1.00218739e+00
1.00206424e+00
1.00193825e+00
1.00180957e+00
1.00167838e+00
1.00154482e+00
1.00140906e+00
1.00127126e+00
1.00113160e+00
1.00099028e+00
1.00084747e+00
1.00070341e+00
1.00055831e+00
1.00041240e+00
1.00026595e+00
1.00011920e+00
9.99972433e-01
9.99825917e-01
9.99679933e-01
9.99534765e-01
9.99390698e-01
9.99248012e-01
9.99106987e-01
9.98967896e-01
9.98831003e-01
9.98696566e-01
9.98564831e-01
9.98436035e-01
9.98310403e-01
9.98188149e-01
9.98069475e-01
9.97954575e-01
9.97843631e-01
9.97736819e-01
9.97634308e-01
9.97536264e-01
9.97442847e-01
9.97354218e-01
9.97270538e-01
9.97191966e-01
9.97118665e-01
9.97050797e-01
9.96988523e-01
9.96931999e-01
9.96881377e-01
9.96836795e-01
9.96798376e-01
9.96766216e-01
9.96740387e-01
9.96720917e-01
9.96707794e-01
9.96700952e-01
9.96700268e-01
9.96705556e-01
9.96716564e-01
9.96732972e-01
9.96754393e-01
9.96780380e-01
9.96810423e-01
9.96843961e-01
9.96880397e-01
9.96919108e-01
9.96959443e-01
9.97000740e-01
9.97042376e-01
9.97083737e-01
9.97124198e-01
9.97163209e-01
9.97200322e-01
9.97235052e-01
9.97266936e-01
9.97295725e-01
9.97321168e-01
9.97342886e-01
9.97360711e-01
9.97374566e-01
9.97384255e-01
9.97389608e-01
9.97390462e-01
1.00319944e+00
1.00319891e+00
1.00320154e+00
1.00320726e+00
1.00321596e+00
1.00322756e+00
1.00324198e+00
1.00325901e+00
1.00327850e+00
1.00330035e+00
1.00332431e+00
1.00335010e+00
1.00337749e+00
1.00340617e+00
1.00343575e+00
1.00346584e+00
1.00349603e+00
1.00352585e+00
1.00355480e+00
1.00358240e+00
1.00360810e+00
1.00363137e+00
1.00365169e+00
1.00366852e+00
1.00368136e+00
1.00368972e+00
1.00369318e+00
1.00369131e+00
1.00368379e+00
1.00367030e+00
1.00365062e+00
1.00362459e+00
1.00359208e+00
1.00355308e+00
1.00350758e+00
1.00345568e+00
1.00339748e+00
1.00333317e+00
1.00326294e+00
1.00318703e+00
1.00310568e+00
1.00301917e+00
1.00292775e+00
1.00283169e+00
1.00273126e+00
1.00262668e+00
1.00251821e+00
1.00240605e+00
1.00229041e+00
1.00217149e+00
1.00204946e+00
1.00192450e+00
1.00179677e+00
1.00166644e+00
1.00153368e+00
1.00139866e+00
1.00126157e+00
1.00112259e+00
1.00098194e+00
1.00083981e+00
1.00069645e+00
1.00055210e+00
1.00040700e+00
1.00026142e+00
1.00011564e+00
9.99969920e-01
9.99824550e-01
9.99679810e-01
9.99535981e-01
9.99393343e-01
9.99252170e-01
9.99112728e-01
9.98975279e-01
9.98840073e-01
9.98707352e-01
9.98577346e-01
9.98450278e-01
9.98326356e-01
9.98205783e-01
9.98088750e-01
9.97975441e-01
9.97866035e-01
9.97760702e-01
9.97659612e-01
9.97562930e-01
9.97470821e-01
9.97383451e-01
9.97300985e-01
9.97223591e-01
9.97151435e-01
9.97084685e-01
9.97023506e-01
9.96968055e-01
9.96918483e-01
9.96874926e-01
9.96837498e-01
9.96806291e-01
9.96781360e-01
9.96762724e-01
9.96750355e-01
9.96744171e-01
9.96744033e-01
9.96749739e-01
9.96761024e-01
9.96777557e-01
9.96798944e-01
9.96824727e-01
9.96854402e-01
9.96887414e-01
9.96923167e-01
9.96961046e-01
9.97000430e-01
9.97040682e-01
9.97081169e-01
9.97121309e-01
9.97160546e-01
9.97198321e-01
9.97234154e-01
9.97267664e-01
9.97298441e-01
9.97326123e-01
9.97350512e-01
9.97371365e-01
9.97388422e-01
9.97401568e-01
9.97410686e-01
9.97415634e-01
9.97416241e-01
1.00317602e+00
1.00317519e+00
1.00317739e+00
1.00318245e+00
1.00319037e+00
1.00320109e+00
1.00321443e+00
1.00323025e+00
1.00324850e+00
1.00326898e+00
1.00329146e+00
1.00331577e+00
1.00334166e+00
1.00336878e+00
1.00339683e+00
1.00342544e+00
1.00345419e+00
1.00348265e+00
1.00351034e+00
1.00353679e+00
1.00356148e+00
1.00358390e+00
1.00360352e+00
1.00361984e+00
1.00363236e+00
1.00364060e+00
1.00364413e+00
1.00364254e+00
1.00363549e+00
1.00362266e+00
1.00360383e+00
1.00357881e+00
1.00354747e+00
1.00350978e+00
1.00346571e+00
1.00341534e+00
1.00335877e+00
1.00329614e+00
1.00322764e+00
1.00315349e+00
1.00307391e+00
1.00298915e+00
1.00289947e+00
1.00280511e+00
1.00270631e+00
1.00260332e+00
1.00249635e+00
1.00238563e+00
1.00227135e+00
1.00215369e+00
1.00203285e+00
1.00190899e+00
1.00178229e+00
1.00165293e+00
1.00152108e+00
1.00138692e+00
1.00125066e+00
1.00111249e+00
1.00097265e+00
1.00083136e+00
1.00068886e+00
1.00054541e+00
1.00040128e+00
1.00025675e+00
1.00011208e+00
9.99967580e-01
9.99823517e-01
9.99680179e-01
9.99537843e-01
9.99396784e-01
9.99257265e-01
9.99119545e-01
9.98983870e-01
9.98850475e-01
9.98719587e-01
9.98591420e-01
9.98466181e-01
9.98344065e-01
9.98225260e-01
9.98109947e-01
9.97998302e-01
9.97890495e-01
9.97786696e-01
9.97687072e-01
9.97591790e-01
9.97501018e-01
9.97414927e-01
9.97333689e-01
9.97257476e-01
9.97186463e-01
9.97120822e-01
9.97060722e-01
9.97006324e-01
9.96957777e-01
9.96915216e-01
9.96878751e-01
9.96848463e-01
9.96824401e-01
9.96806569e-01
9.96794926e-01
9.96789374e-01
9.96789761e-01
9.96795870e-01
9.96807422e-01
9.96824075e-01
9.96845428e-01
9.96871021e-01
9.96900342e-01
9.96932844e-01
9.96967945e-01
9.97005035e-01
9.97043499e-01
9.97082737e-01
9.97122141e-01
9.97161122e-01
9.97199156e-01
9.97235748e-01
9.97270405e-01
9.97302725e-01
9.97332399e-01
9.97359079e-01
9.97382479e-01
9.97402453e-01
9.97418800e-01
9.97431293e-01
9.97439849e-01
9.97444419e-01
9.97444780e-01
1.00314990e+00
1.00314875e+00
1.00315048e+00
1.00315495e+00
1.00316213e+00
1.00317192e+00
1.00318421e+00
1.00319891e+00
1.00321589e+00
1.00323500e+00
1.00325608e+00
1.00327894e+00
1.00330332e+00
1.00332893e+00
1.00335550e+00
1.00338265e+00
1.00340999e+00
1.00343711e+00
1.00346358e+00
1.00348891e+00
1.00351261e+00
1.00353419e+00
1.00355315e+00
1.00356898e+00
1.00358119e+00
1.00358933e+00
1.00359294e+00
1.00359164e+00
1.00358506e+00
1.00357291e+00
1.00355492e+00
1.00353092e+00
1.00350075e+00
1.00346436e+00
1.00342173e+00
1.00337289e+00
1.00331793e+00
1.00325698e+00
1.00319021e+00
1.00311781e+00
1.00303999e+00
1.00295699e+00
1.00286903e+00
1.00277637e+00
1.00267923e+00
1.00257783e+00
1.00247240e+00
1.00236314e+00
1.00225025e+00
1.00213392e+00
1.00201433e+00
1.00189166e+00
1.00176608e+00
1.00163778e+00
1.00150695e+00
1.00137378e+00
1.00123849e+00
1.00110129e+00
1.00096241e+00
1.00082211e+00
1.00068064e+00
1.00053827e+00
1.00039529e+00
1.00025197e+00
1.00010861e+00
9.99965489e-01
9.99822901e-01
9.99681127e-01
9.99540441e-01
9.99401111e-01
9.99263392e-01
9.99127529e-01
9.98993755e-01
9.98862292e-01
9.98733350e-01
9.98607127e-01
9.98483814e-01
9.98363592e-01
9.98246635e-01
9.98133114e-01
9.98023196e-01
9.97917045e-01
9.97814826e-01
9.97716706e-01
9.97622854e-01
9.97533440e-01
9.97448641e-01
9.97368633e-01
9.97293598e-01
9.97223716e-01
9.97159165e-01
9.97100119e-01
9.97046743e-01
9.96999187e-01
9.96957583e-01
9.96922038e-01
9.96892627e-01
9.96869390e-01
9.96852321e-01
9.96841364e-01
9.96836410e-01
9.96837291e-01
9.96843778e-01
9.96855580e-01
9.96872345e-01
9.96893661e-01
9.96919068e-01
9.96948055e-01
9.96980072e-01
9.97014547e-01
9.97050889e-01
9.97088492e-01
9.97126762e-01
9.97165130e-01
9.97203035e-01
9.97239942e-01
9.97275388e-01
9.97308943e-01
9.97340188e-01
9.97368793e-01
9.97394500e-01
9.97417035e-01
9.97436187e-01
9.97451806e-01
9.97463716e-01
9.97471799e-01
9.97475973e-01
9.97476065e-01
1.00312092e+00
1.00311948e+00
1.00312076e+00
1.00312464e+00
1.00313108e+00
1.00313999e+00
1.00315129e+00
1.00316488e+00
1.00318063e+00
1.00319844e+00
1.00321817e+00
1.00323961e+00
1.00326253e+00
1.00328671e+00
1.00331183e+00
1.00333755e+00
1.00336354e+00
1.00338938e+00
1.00341465e+00
1.00343890e+00
1.00346166e+00
1.00348244e+00
1.00350075e+00
1.00351611e+00
1.00352804e+00
1.00353608e+00
1.00353979e+00
1.00353878e+00
1.00353269e+00
1.00352120e+00
1.00350405e+00
1.00348105e+00
1.00345205e+00
1.00341695e+00
1.00337573e+00
1.00332840e+00
1.00327503e+00
1.00321574e+00
1.00315067e+00
1.00307999e+00
1.00300392e+00
1.00292265e+00
1.00283642e+00
1.00274545e+00
1.00264996e+00
1.00255017e+00
1.00244629e+00
1.00233853e+00
1.00222708e+00
1.00211212e+00
1.00199385e+00
1.00187244e+00
1.00174808e+00
1.00162095e+00
1.00149127e+00
1.00135922e+00
1.00122504e+00
1.00108896e+00
1.00095122e+00
1.00081209e+00
1.00067183e+00
1.00053073e+00
1.00038907e+00
1.00024716e+00
1.00010528e+00