# vtk DataFile Version 2.0
LBM Flow Field - Timestep 430
ASCII
DATASET STRUCTURED_POINTS
DIMENSIONS 128 128 1
ORIGIN 0.0 0.0 0.0
SPACING 1.0 1.0 1.0
POINT_DATA 16384
SCALARS density double 1
LOOKUP_TABLE default
1.00581326e+00
1.00581416e+00
1.00581489e+00
1.00581371e+00
1.00581222e+00
1.00581069e+00
1.00580869e+00
1.00580629e+00
1.00580377e+00
1.00580116e+00
1.00579842e+00
1.00579562e+00
1.00579278e+00
1.00578991e+00
1.00578702e+00
1.00578414e+00
1.00578130e+00
1.00577849e+00
1.00577571e+00
1.00577290e+00
1.00576998e+00
1.00576683e+00
1.00576324e+00
1.00575895e+00
1.00575359e+00
1.00574668e+00
1.00573759e+00
1.00572553e+00
1.00570948e+00
1.00568822e+00
1.00566025e+00
1.00562381e+00
1.00557693e+00
1.00551741e+00
1.00544293e+00
1.00535116e+00
1.00523991e+00
1.00510727e+00
1.00495180e+00
1.00477272e+00
1.00457006e+00
1.00434475e+00
1.00409872e+00
1.00383485e+00
1.00355688e+00
1.00326928e+00
1.00297697e+00
1.00268507e+00
1.00239859e+00
1.00212215e+00
1.00185972e+00
1.00161438e+00
1.00138822e+00
1.00118231e+00
1.00099669e+00
1.00083052e+00
1.00068222e+00
1.00054969e+00
1.00043051e+00
1.00032214e+00
1.00022207e+00
1.00012797e+00
1.00003770e+00
9.99949348e-01
9.99861164e-01
9.99771496e-01
9.99678681e-01
9.99580950e-01
9.99476361e-01
9.99362767e-01
9.99237853e-01
9.99099238e-01
9.98944647e-01
9.98772136e-01
9.98580345e-01
9.98368757e-01
9.98137897e-01
9.97889469e-01
9.97626372e-01
9.97352591e-01
9.97072983e-01
9.96792946e-01
9.96518044e-01
9.96253614e-01
9.96004401e-01
9.95774277e-01
9.95566049e-01
9.95381384e-01
9.95220832e-01
9.95083949e-01
9.94969469e-01
9.94875517e-01
9.94799828e-01
9.94739952e-01
9.94693423e-01
9.94657893e-01
9.94631226e-01
9.94611547e-01
9.94597262e-01
9.94587053e-01
9.94579858e-01
9.94574838e-01
9.94571341e-01
9.94568870e-01
9.94567052e-01
9.94565611e-01
9.94564350e-01
9.94563131e-01
9.94561865e-01
9.94560501e-01
9.94559013e-01
9.94557403e-01
9.94555682e-01
9.94553867e-01
9.94551983e-01
9.94550057e-01
9.94548099e-01
9.94546108e-01
9.94544103e-01
9.94542129e-01
9.94540161e-01
9.94538250e-01
9.94536602e-01
9.94535287e-01
9.94533966e-01
9.94532849e-01
9.94533098e-01
9.94533558e-01
1.00581447e+00
1.00581432e+00
1.00581433e+00
1.00581321e+00
1.00581178e+00
1.00581013e+00
1.00580815e+00
1.00580591e+00
1.00580346e+00
1.00580090e+00
1.00579820e+00
1.00579543e+00
1.00579261e+00
1.00578974e+00
1.00578687e+00
1.00578400e+00
1.00578116e+00
1.00577833e+00
1.00577552e+00
1.00577264e+00
1.00576963e+00
1.00576632e+00
1.00576251e+00
1.00575791e+00
1.00575213e+00
1.00574466e+00
1.00573483e+00
1.00572181e+00
1.00570456e+00
1.00568180e+00
1.00565203e+00
1.00561347e+00
1.00556417e+00
1.00550197e+00
1.00542464e+00
1.00532997e+00
1.00521593e+00
1.00508078e+00
1.00492330e+00
1.00474290e+00
1.00453979e+00
1.00431502e+00
1.00407061e+00
1.00380942e+00
1.00353513e+00
1.00325202e+00
1.00296479e+00
1.00267828e+00
1.00239718e+00
1.00212581e+00
1.00186784e+00
1.00162614e+00
1.00140265e+00
1.00119835e+00
1.00101333e+00
1.00084682e+00
1.00069742e+00
1.00056322e+00
1.00044201e+00
1.00033144e+00
1.00022917e+00
1.00013296e+00
1.00004073e+00
9.99950552e-01
9.99860630e-01
9.99769240e-01
9.99674651e-01
9.99575055e-01
9.99468522e-01
9.99352978e-01
9.99226250e-01
9.99086157e-01
9.98930656e-01
9.98758036e-01
9.98567136e-01
9.98357558e-01
9.98129844e-01
9.97885591e-01
9.97627472e-01
9.97359152e-01
9.97085103e-01
9.96810328e-01
9.96540029e-01
9.96279253e-01
9.96032562e-01
9.95803753e-01
9.95595669e-01
9.95410103e-01
9.95247800e-01
9.95108541e-01
9.94991294e-01
9.94894403e-01
9.94815788e-01
9.94753141e-01
9.94704095e-01
9.94666358e-01
9.94637815e-01
9.94616584e-01
9.94601044e-01
9.94589844e-01
9.94581880e-01
9.94576273e-01
9.94572334e-01
9.94569536e-01
9.94567478e-01
9.94565865e-01
9.94564483e-01
9.94563182e-01
9.94561863e-01
9.94560466e-01
9.94558960e-01
9.94557340e-01
9.94555613e-01
9.94553797e-01
9.94551912e-01
9.94549984e-01
9.94548024e-01
9.94546056e-01
9.94544089e-01
9.94542163e-01
9.94540274e-01
9.94538498e-01
9.94536872e-01
9.94535467e-01
9.94534174e-01
9.94533115e-01
9.94532858e-01
9.94532576e-01
1.00581587e+00
1.00581486e+00
1.00581340e+00
1.00581243e+00
1.00581115e+00
1.00580924e+00
1.00580722e+00
1.00580511e+00
1.00580274e+00
1.00580017e+00
1.00579750e+00
1.00579476e+00
1.00579193e+00
1.00578907e+00
1.00578619e+00
1.00578332e+00
1.00578047e+00
1.00577762e+00
1.00577476e+00
1.00577182e+00
1.00576868e+00
1.00576520e+00
1.00576113e+00
1.00575617e+00
1.00574990e+00
1.00574175e+00
1.00573104e+00
1.00571688e+00
1.00569819e+00
1.00567365e+00
1.00564174e+00
1.00560067e+00
1.00554852e+00
1.00548318e+00
1.00540254e+00
1.00530453e+00
1.00518728e+00
1.00504930e+00
1.00488958e+00
1.00470776e+00
1.00450423e+00
1.00428024e+00
1.00403786e+00
1.00377994e+00
1.00351007e+00
1.00323235e+00
1.00295118e+00
1.00267109e+00
1.00239640e+00
1.00213105e+00
1.00187839e+00
1.00164102e+00
1.00142070e+00
1.00121833e+00
1.00103400e+00
1.00086709e+00
1.00071635e+00
1.00058013e+00
1.00045645e+00
1.00034321e+00
1.00023824e+00
1.00013944e+00
1.00004477e+00
9.99952319e-01
9.99860225e-01
9.99766691e-01
9.99669914e-01
9.99568047e-01
9.99459175e-01
9.99341313e-01
9.99212450e-01
9.99070630e-01
9.98914071e-01
9.98741321e-01
9.98551436e-01
9.98344150e-01
9.98120019e-01
9.97880519e-01
9.97628074e-01
9.97365990e-01
9.97098311e-01
9.96829598e-01
9.96564644e-01
9.96308166e-01
9.96064508e-01
9.95837373e-01
9.95629634e-01
9.95443217e-01
9.95279072e-01
9.95137233e-01
9.95016931e-01
9.94916754e-01
9.94834838e-01
9.94769041e-01
9.94717112e-01
9.94676831e-01
9.94646112e-01
9.94623070e-01
9.94606063e-01
9.94593697e-01
9.94584827e-01
9.94578528e-01
9.94574069e-01
9.94570884e-01
9.94568545e-01
9.94566728e-01
9.94565201e-01
9.94563797e-01
9.94562405e-01
9.94560957e-01
9.94559417e-01
9.94557770e-01
9.94556020e-01
9.94554187e-01
9.94552290e-01
9.94550344e-01
9.94548374e-01
9.94546415e-01
9.94544467e-01
9.94542541e-01
9.94540719e-01
9.94539051e-01
9.94537406e-01
9.94535799e-01
9.94534600e-01
9.94533609e-01
9.94532290e-01
9.94531330e-01
1.00581575e+00
1.00581453e+00
1.00581304e+00
1.00581161e+00
1.00580991e+00
1.00580807e+00
1.00580609e+00
1.00580390e+00
1.00580152e+00
1.00579900e+00
1.00579636e+00
1.00579361e+00
1.00579079e+00
1.00578793e+00
1.00578506e+00
1.00578218e+00
1.00577930e+00
1.00577642e+00
1.00577349e+00
1.00577044e+00
1.00576714e+00
1.00576342e+00
1.00575901e+00
1.00575357e+00
1.00574663e+00
1.00573761e+00
1.00572574e+00
1.00571010e+00
1.00568954e+00
1.00566272e+00
1.00562809e+00
1.00558388e+00
1.00552820e+00
1.00545905e+00
1.00537446e+00
1.00527254e+00
1.00515169e+00
1.00501066e+00
1.00484874e+00
1.00466582e+00
1.00446253e+00
1.00424024e+00
1.00400109e+00
1.00374790e+00
1.00348407e+00
1.00321342e+00
1.00294000e+00
1.00266789e+00
1.00240097e+00
1.00214274e+00
1.00189616e+00
1.00166353e+00
1.00144644e+00
1.00124574e+00
1.00106160e+00
1.00089356e+00
1.00074066e+00
1.00060153e+00
1.00047452e+00
1.00035779e+00
1.00024938e+00
1.00014734e+00
1.00004968e+00
9.99954439e-01
9.99859702e-01
9.99763552e-01
9.99664081e-01
9.99559377e-01
9.99447524e-01
9.99326625e-01
9.99194850e-01
9.99050501e-01
9.98892113e-01
9.98718564e-01
9.98529205e-01
9.98323976e-01
9.98103512e-01
9.97869212e-01
9.97623253e-01
9.97368556e-01
9.97108676e-01
9.96847634e-01
9.96589701e-01
9.96339148e-01
9.96099991e-01
9.95875755e-01
9.95669283e-01
9.95482606e-01
9.95316891e-01
9.95172451e-01
9.95048829e-01
9.94944923e-01
9.94859140e-01
9.94789564e-01
9.94734111e-01
9.94690671e-01
9.94657213e-01
9.94631866e-01
9.94612969e-01
9.94599094e-01
9.94589041e-01
9.94581834e-01
9.94576689e-01
9.94572994e-01
9.94570279e-01
9.94568190e-01
9.94566464e-01
9.94564918e-01
9.94563424e-01
9.94561901e-01
9.94560304e-01
9.94558616e-01
9.94556835e-01
9.94554974e-01
9.94553053e-01
9.94551094e-01
9.94549117e-01
9.94547141e-01
9.94545201e-01
9.94543311e-01
9.94541485e-01
9.94539749e-01
9.94538138e-01
9.94536569e-01
9.94535062e-01
9.94533703e-01
9.94532274e-01
9.94531043e-01
1.00581531e+00
1.00581381e+00
1.00581228e+00
1.00581038e+00
1.00580844e+00
1.00580663e+00
1.00580458e+00
1.00580231e+00
1.00579994e+00
1.00579745e+00
1.00579480e+00
1.00579204e+00
1.00578924e+00
1.00578638e+00
1.00578349e+00
1.00578060e+00
1.00577770e+00
1.00577476e+00
1.00577175e+00
1.00576856e+00
1.00576507e+00
1.00576104e+00
1.00575621e+00
1.00575017e+00
1.00574242e+00
1.00573230e+00
1.00571900e+00
1.00570153e+00
1.00567869e+00
1.00564910e+00
1.00561118e+00
1.00556320e+00
1.00550332e+00
1.00542968e+00
1.00534047e+00
1.00523406e+00
1.00510913e+00
1.00496475e+00
1.00480053e+00
1.00461668e+00
1.00441407e+00
1.00419424e+00
1.00395937e+00
1.00371220e+00
1.00345591e+00
1.00319398e+00
1.00293001e+00
1.00266755e+00
1.00240996e+00
1.00216020e+00
1.00192079e+00
1.00169369e+00
1.00148029e+00
1.00128138e+00
1.00109724e+00
1.00092762e+00
1.00077189e+00
1.00062904e+00
1.00049777e+00
1.00037658e+00
1.00026378e+00
1.00015755e+00
1.00005598e+00
9.99957093e-01
9.99858857e-01
9.99759236e-01
9.99656203e-01
9.99547771e-01
9.99432031e-01
9.99307198e-01
9.99171656e-01
9.99024025e-01
9.98863217e-01
9.98688505e-01
9.98499589e-01
9.98296660e-01
9.98080448e-01
9.97852264e-01
9.97614007e-01
9.97368148e-01
9.97117666e-01
9.96865951e-01
9.96616652e-01
9.96373502e-01
9.96140110e-01
9.95919764e-01
9.95715247e-01
9.95528693e-01
9.95361497e-01
9.95214293e-01
9.95086987e-01
9.94978836e-01
9.94888580e-01
9.94814578e-01
9.94754956e-01
9.94707743e-01
9.94670989e-01
9.94642850e-01
9.94621652e-01
9.94605925e-01
9.94594417e-01
9.94586086e-01
9.94580091e-01
9.94575762e-01
9.94572579e-01
9.94570149e-01
9.94568177e-01
9.94566453e-01
9.94564831e-01
9.94563214e-01
9.94561548e-01
9.94559807e-01
9.94557985e-01
9.94556090e-01
9.94554139e-01
9.94552158e-01
9.94550166e-01
9.94548172e-01
9.94546212e-01
9.94544332e-01
9.94542509e-01
9.94540712e-01
9.94539034e-01
9.94537478e-01
9.94535768e-01
9.94534044e-01
9.94532515e-01
9.94530998e-01
1.00581461e+00
1.00581269e+00
1.00581075e+00
1.00580882e+00
1.00580687e+00
1.00580481e+00
1.00580264e+00
1.00580041e+00
1.00579803e+00
1.00579549e+00
1.00579283e+00
1.00579010e+00
1.00578728e+00
1.00578442e+00
1.00578152e+00
1.00577861e+00
1.00577567e+00
1.00577267e+00
1.00576954e+00
1.00576619e+00
1.00576244e+00
1.00575804e+00
1.00575268e+00
1.00574590e+00
1.00573715e+00
1.00572570e+00
1.00571068e+00
1.00569102e+00
1.00566547e+00
1.00563260e+00
1.00559083e+00
1.00553847e+00
1.00547377e+00
1.00539502e+00
1.00530064e+00
1.00518927e+00
1.00505992e+00
1.00491203e+00
1.00474557e+00
1.00456107e+00
1.00435966e+00
1.00414304e+00
1.00391342e+00
1.00367341e+00
1.00342594e+00
1.00317408e+00
1.00292092e+00
1.00266944e+00
1.00242237e+00
1.00218213e+00
1.00195074e+00
1.00172980e+00
1.00152049e+00
1.00132355e+00
1.00113937e+00
1.00096796e+00
1.00080902e+00
1.00066192e+00
1.00052577e+00
1.00039941e+00
1.00028142e+00
1.00017018e+00
1.00006383e+00
9.99960394e-01
9.99857756e-01
9.99753769e-01
9.99646303e-01
9.99533315e-01
9.99412925e-01
9.99283477e-01
9.99143600e-01
9.98992247e-01
9.98828732e-01
9.98652740e-01
9.98464340e-01
9.98263983e-01
9.98052506e-01
9.97831129e-01
9.97601460e-01
9.97365497e-01
9.97125608e-01
9.96884495e-01
9.96645125e-01
9.96410620e-01
9.96184118e-01
9.95968612e-01
9.95766776e-01
9.95580822e-01
9.95412371e-01
9.95262392e-01
9.95131180e-01
9.95018399e-01
9.94923166e-01
9.94844163e-01
9.94779770e-01
9.94728192e-01
9.94687587e-01
9.94656155e-01
9.94632221e-01
9.94614277e-01
9.94601012e-01
9.94591321e-01
9.94584290e-01
9.94579185e-01
9.94575430e-01
9.94572582e-01
9.94570307e-01
9.94568364e-01
9.94566582e-01
9.94564850e-01
9.94563099e-01
9.94561291e-01
9.94559417e-01
9.94557482e-01
9.94555499e-01
9.94553483e-01
9.94551462e-01
9.94549462e-01
9.94547485e-01
9.94545552e-01
9.94543703e-01
9.94541929e-01
9.94540148e-01
9.94538399e-01
9.94536650e-01
9.94534871e-01
9.94533014e-01
9.94531163e-01
1.00581310e+00
1.00581101e+00
1.00580886e+00
1.00580687e+00
1.00580479e+00
1.00580260e+00
1.00580040e+00
1.00579814e+00
1.00579570e+00
1.00579314e+00
1.00579049e+00
1.00578774e+00
1.00578491e+00
1.00578204e+00
1.00577913e+00
1.00577618e+00
1.00577319e+00
1.00577010e+00
1.00576684e+00
1.00576327e+00
1.00575921e+00
1.00575436e+00
1.00574836e+00
1.00574070e+00
1.00573075e+00
1.00571772e+00
1.00570067e+00
1.00567844e+00
1.00564974e+00
1.00561310e+00
1.00556695e+00
1.00550964e+00
1.00543956e+00
1.00535516e+00
1.00525512e+00
1.00513841e+00
1.00500440e+00
1.00485293e+00
1.00468433e+00
1.00449949e+00
1.00429980e+00
1.00408710e+00
1.00386361e+00
1.00363179e+00
1.00339425e+00
1.00315362e+00
1.00291243e+00
1.00267303e+00
1.00243751e+00
1.00220768e+00
1.00198506e+00
1.00177086e+00
1.00156604e+00
1.00137132e+00
1.00118718e+00
1.00101390e+00
1.00085151e+00
1.00069980e+00
1.00055828e+00
1.00042615e+00
1.00030229e+00
1.00018526e+00
1.00007330e+00
9.99964426e-01
9.99856486e-01
9.99747240e-01
9.99634479e-01
9.99516135e-01
9.99390382e-01
9.99255721e-01
9.99111042e-01
9.98955654e-01
9.98789279e-01
9.98612023e-01
9.98424321e-01
9.98226883e-01
9.98020641e-01
9.97806718e-01
9.97586421e-01
9.97361254e-01
9.97132951e-01
9.96903496e-01
9.96675132e-01
9.96450324e-01
9.96231687e-01
9.96021867e-01
9.95823392e-01
9.95638517e-01
9.95469077e-01
9.95316376e-01
9.95181121e-01
9.95063411e-01
9.94962777e-01
9.94878267e-01
9.94808553e-01
9.94752056e-01
9.94707066e-01
9.94671851e-01
9.94644745e-01
9.94624211e-01
9.94608882e-01
9.94597578e-01
9.94589313e-01
9.94583280e-01
9.94578837e-01
9.94575484e-01
9.94572842e-01
9.94570634e-01
9.94568661e-01
9.94566788e-01
9.94564932e-01
9.94563046e-01
9.94561109e-01
9.94559122e-01
9.94557098e-01
9.94555049e-01
9.94552991e-01
9.94550957e-01
9.94548962e-01
9.94547001e-01
9.94545093e-01
9.94543277e-01
9.94541460e-01
9.94539592e-01
9.94537741e-01
9.94535897e-01
9.94533875e-01
9.94531888e-01
1.00581080e+00
1.00580870e+00
1.00580656e+00
1.00580441e+00
1.00580220e+00
1.00580001e+00
1.00579777e+00
1.00579540e+00
1.00579294e+00
1.00579039e+00
1.00578771e+00
1.00578494e+00
1.00578210e+00
1.00577922e+00
1.00577628e+00
1.00577328e+00
1.00577022e+00
1.00576702e+00
1.00576358e+00
1.00575976e+00
1.00575531e+00
1.00574992e+00
1.00574314e+00
1.00573443e+00
1.00572307e+00
1.00570820e+00
1.00568878e+00
1.00566360e+00
1.00563130e+00
1.00559040e+00
1.00553935e+00
1.00547657e+00
1.00540059e+00
1.00531008e+00
1.00520402e+00
1.00508172e+00
1.00494294e+00
1.00478793e+00
1.00461743e+00
1.00443266e+00
1.00423526e+00
1.00402720e+00
1.00381065e+00
1.00358792e+00
1.00336125e+00
1.00313278e+00
1.00290447e+00
1.00267799e+00
1.00245479e+00
1.00223606e+00
1.00202279e+00
1.00181583e+00
1.00161591e+00
1.00142369e+00
1.00123979e+00
1.00106472e+00
1.00089885e+00
1.00074237e+00
1.00059517e+00
1.00045682e+00
1.00032649e+00
1.00020292e+00
1.00008451e+00
9.99969290e-01
9.99855094e-01
9.99739643e-01
9.99620699e-01
9.99496211e-01
9.99364446e-01
9.99224089e-01
9.99074306e-01
9.98914758e-01
9.98745564e-01
9.98567227e-01
9.98380524e-01
9.98186397e-01
9.97985857e-01
9.97779918e-01
9.97569579e-01
9.97355859e-01
9.97139857e-01
9.96922838e-01
9.96706306e-01
9.96492047e-01
9.96282115e-01
9.96078766e-01
9.95884334e-01
9.95701080e-01
9.95531020e-01
9.95375781e-01
9.95236481e-01
9.95113670e-01
9.95007324e-01
9.94916892e-01
9.94841375e-01
9.94779445e-01
9.94729559e-01
9.94690076e-01
9.94659359e-01
9.94635849e-01
9.94618126e-01
9.94604941e-01
9.94595225e-01
9.94588094e-01
9.94582832e-01
9.94578877e-01
9.94575797e-01
9.94573270e-01
9.94571066e-01
9.94569025e-01
9.94567043e-01
9.94565063e-01
9.94563054e-01
9.94561007e-01
9.94558929e-01
9.94556840e-01
9.94554751e-01
9.94552672e-01
9.94550632e-01
9.94548655e-01
9.94546711e-01
9.94544800e-01
9.94542933e-01
9.94541056e-01
9.94539101e-01
9.94537127e-01
9.94535123e-01
9.94533139e-01
1.00580792e+00
1.00580580e+00
1.00580365e+00
1.00580142e+00
1.00579918e+00
1.00579695e+00
1.00579463e+00
1.00579223e+00
1.00578976e+00
1.00578717e+00
1.00578446e+00
1.00578168e+00
1.00577883e+00
1.00577591e+00
1.00577293e+00
1.00576989e+00
1.00576673e+00
1.00576339e+00
1.00575974e+00
1.00575560e+00
1.00575069e+00
1.00574463e+00
1.00573695e+00
1.00572700e+00
1.00571399e+00
1.00569699e+00
1.00567486e+00
1.00564633e+00
1.00561000e+00
1.00556437e+00
1.00550793e+00
1.00543920e+00
1.00535689e+00
1.00525992e+00
1.00514757e+00
1.00501955e+00
1.00487601e+00
1.00471764e+00
1.00454556e+00
1.00436132e+00
1.00416678e+00
1.00396402e+00
1.00375515e+00
1.00354225e+00
1.00332718e+00
1.00311160e+00
1.00289682e+00
1.00268389e+00
1.00247356e+00
1.00226644e+00
1.00206300e+00
1.00186371e+00
1.00166910e+00
1.00147978e+00
1.00129645e+00
1.00111984e+00
1.00095064e+00
1.00078939e+00
1.00063636e+00
1.00049145e+00
1.00035411e+00
1.00022332e+00
1.00009760e+00
9.99975083e-01
9.99853626e-01
9.99730975e-01
9.99604931e-01
9.99473518e-01
9.99335142e-01
9.99188701e-01
9.99033646e-01
9.98869978e-01
9.98698185e-01
9.98519119e-01
9.98333851e-01
9.98143511e-01
9.97949152e-01
9.97751661e-01
9.97551731e-01
9.97349906e-01
9.97146674e-01
9.96942602e-01
9.96738471e-01
9.96535386e-01
9.96334823e-01
9.96138614e-01
9.95948859e-01
9.95767777e-01
9.95597528e-01
9.95440030e-01
9.95296800e-01
9.95168841e-01
9.95056590e-01
9.94959921e-01
9.94878201e-01
9.94810385e-01
9.94755131e-01
9.94710917e-01
9.94676153e-01
9.94649278e-01
9.94628824e-01
9.94613474e-01
9.94602077e-01
9.94593664e-01
9.94587442e-01
9.94582778e-01
9.94579179e-01
9.94576276e-01
9.94573798e-01
9.94571559e-01
9.94569431e-01
9.94567339e-01
9.94565244e-01
9.94563131e-01
9.94560997e-01
9.94558855e-01
9.94556723e-01
9.94554611e-01
9.94552526e-01
9.94550496e-01
9.94548522e-01
9.94546569e-01
9.94544633e-01
9.94542710e-01
9.94540720e-01
9.94538688e-01
9.94536688e-01
9.94534709e-01
1.00580450e+00
1.00580235e+00
1.00580016e+00
1.00579793e+00
1.00579567e+00
1.00579336e+00
1.00579101e+00
1.00578861e+00
1.00578609e+00
1.00578346e+00
1.00578075e+00
1.00577795e+00
1.00577507e+00
1.00577212e+00
1.00576910e+00
1.00576597e+00
1.00576270e+00
1.00575918e+00
1.00575527e+00
1.00575074e+00
1.00574528e+00
1.00573845e+00
1.00572969e+00
1.00571829e+00
1.00570339e+00
1.00568394e+00
1.00565875e+00
1.00562647e+00
1.00558567e+00
1.00553485e+00
1.00547257e+00
1.00539748e+00
1.00530849e+00
1.00520479e+00
1.00508602e+00
1.00495226e+00
1.00480412e+00
1.00464267e+00
1.00446943e+00
1.00428624e+00
1.00409518e+00
1.00389835e+00
1.00369779e+00
1.00349532e+00
1.00329242e+00
1.00309019e+00
1.00288936e+00
1.00269032e+00
1.00249319e+00
1.00229799e+00
1.00210471e+00
1.00191346e+00
1.00172456e+00
1.00153856e+00
1.00135622e+00
1.00117846e+00
1.00100624e+00
1.00084041e+00
1.00068155e+00
1.00052988e+00
1.00038512e+00
1.00024647e+00
1.00011263e+00
9.99981865e-01
9.99852146e-01
9.99721314e-01
9.99587280e-01
9.99448217e-01
9.99302719e-01
9.99149927e-01
9.98989579e-01
9.98821990e-01
9.98647966e-01
9.98468649e-01
9.98285334e-01
9.98099279e-01
9.97911535e-01
9.97722843e-01
9.97533595e-01
9.97343886e-01
9.97153635e-01
9.96962755e-01
9.96771342e-01
9.96579838e-01
9.96389140e-01
9.96200638e-01
9.96016154e-01
9.95837818e-01
9.95667882e-01
9.95508512e-01
9.95361594e-01
9.95228572e-01
9.95110345e-01
9.95007234e-01
9.94918997e-01
9.94844908e-01
9.94783857e-01
9.94734471e-01
9.94695235e-01
9.94664601e-01
9.94641069e-01
9.94623255e-01
9.94609930e-01
9.94600038e-01
9.94592701e-01
9.94587207e-01
9.94583001e-01
9.94579656e-01
9.94576858e-01
9.94574386e-01
9.94572089e-01
9.94569870e-01
9.94567677e-01
9.94565486e-01
9.94563292e-01
9.94561096e-01
9.94558911e-01
9.94556758e-01
9.94554640e-01
9.94552557e-01
9.94550530e-01
9.94548555e-01
9.94546578e-01
9.94544584e-01
9.94542578e-01
9.94540545e-01
9.94538520e-01
9.94536549e-01
1.00580050e+00
1.00579837e+00
1.00579616e+00
1.00579391e+00
1.00579162e+00
1.00578929e+00
1.00578692e+00
1.00578448e+00
1.00578193e+00
1.00577929e+00
1.00577656e+00
1.00577373e+00
1.00577082e+00
1.00576783e+00
1.00576475e+00
1.00576153e+00
1.00575811e+00
1.00575438e+00
1.00575015e+00
1.00574515e+00
1.00573903e+00
1.00573128e+00
1.00572126e+00
1.00570820e+00
1.00569113e+00
1.00566891e+00
1.00564029e+00
1.00560386e+00
1.00555815e+00
1.00550172e+00
1.00543320e+00
1.00535140e+00
1.00525546e+00
1.00514488e+00
1.00501967e+00
1.00488031e+00
1.00472782e+00
1.00456369e+00
1.00438978e+00
1.00420823e+00
1.00402123e+00
1.00383092e+00
1.00363920e+00
1.00344760e+00
1.00325719e+00
1.00306856e+00
1.00288185e+00
1.00269681e+00
1.00251299e+00
1.00232984e+00
1.00214691e+00
1.00196400e+00
1.00178120e+00
1.00159899e+00
1.00141818e+00
1.00123980e+00
1.00106503e+00
1.00089494e+00
1.00073040e+00
1.00057188e+00
1.00041938e+00
1.00027231e+00
1.00012959e+00
9.99989676e-01
9.99850722e-01
9.99710756e-01
9.99567891e-01
9.99420519e-01
9.99267482e-01
9.99108189e-01
9.98942659e-01
9.98771489e-01
9.98595736e-01
9.98416757e-01
9.98235988e-01
9.98054740e-01
9.97874014e-01
9.97694379e-01
9.97515934e-01
9.97338362e-01
9.97161067e-01
9.96983371e-01
9.96804742e-01
9.96625000e-01
9.96444483e-01
9.96264124e-01
9.96085437e-01
9.95910412e-01
9.95741335e-01
9.95580567e-01
9.95430316e-01
9.95292442e-01
9.95168297e-01
9.95058654e-01
9.94963685e-01
9.94883010e-01
9.94815785e-01
9.94760820e-01
9.94716704e-01
9.94681921e-01
9.94654956e-01
9.94634369e-01
9.94618855e-01
9.94607270e-01
9.94598647e-01
9.94592195e-01
9.94587282e-01
9.94583422e-01
9.94580252e-01
9.94577509e-01
9.94575014e-01
9.94572652e-01
9.94570350e-01
9.94568072e-01
9.94565808e-01
9.94563557e-01
9.94561323e-01
9.94559117e-01
9.94556957e-01
9.94554841e-01
9.94552767e-01
9.94550744e-01
9.94548740e-01
9.94546715e-01
9.94544675e-01
9.94542626e-01
9.94540602e-01
9.94538655e-01
1.00579598e+00
1.00579386e+00
1.00579166e+00
1.00578938e+00
1.00578706e+00
1.00578473e+00
1.00578234e+00
1.00577986e+00
1.00577730e+00
1.00577465e+00
1.00577188e+00
1.00576903e+00
1.00576609e+00
1.00576304e+00
1.00575988e+00
1.00575654e+00
1.00575295e+00
1.00574895e+00
1.00574433e+00
1.00573878e+00
1.00573188e+00
1.00572305e+00
1.00571158e+00
1.00569661e+00
1.00567706e+00
1.00565175e+00
1.00561931e+00
1.00557832e+00
1.00552730e+00
1.00546486e+00
1.00538974e+00
1.00530095e+00
1.00519789e+00
1.00508040e+00
1.00494884e+00
1.00480413e+00
1.00464768e+00
1.00448137e+00
1.00430739e+00
1.00412806e+00
1.00394571e+00
1.00376244e+00
1.00357998e+00
1.00339954e+00
1.00322177e+00
1.00304677e+00
1.00287410e+00
1.00270295e+00
1.00253232e+00
1.00236119e+00
1.00218869e+00
1.00201432e+00
1.00183799e+00
1.00166007e+00
1.00148136e+00
1.00130298e+00
1.00112622e+00
1.00095233e+00
1.00078238e+00
1.00061707e+00
1.00045660e+00
1.00030066e+00
1.00014839e+00
9.99998505e-01
9.99849430e-01
9.99699471e-01
9.99547030e-01
9.99390800e-01
9.99229923e-01
9.99064102e-01
9.98893624e-01
9.98719318e-01
9.98542429e-01
9.98364435e-01
9.98186826e-01
9.98010889e-01
9.97837517e-01
9.97667085e-01
9.97499409e-01
9.97333805e-01
9.97169225e-01
9.97004478e-01
9.96838475e-01
9.96670474e-01
9.96500282e-01
9.96328380e-01
9.96155948e-01
9.95984784e-01
9.95817148e-01
9.95655531e-01
9.95502411e-01
9.95360017e-01
9.95230136e-01
9.95113989e-01
9.95012173e-01
9.94924681e-01
9.94850966e-01
9.94790055e-01
9.94740669e-01
9.94701354e-01
9.94670597e-01
9.94646918e-01
9.94628939e-01
9.94615432e-01
9.94605339e-01
9.94597783e-01
9.94592053e-01
9.94587596e-01
9.94583993e-01
9.94580939e-01
9.94578218e-01
9.94575689e-01
9.94573265e-01
9.94570894e-01
9.94568553e-01
9.94566240e-01
9.94563957e-01
9.94561704e-01
9.94559493e-01
9.94557339e-01
9.94555233e-01
9.94553163e-01
9.94551123e-01
9.94549082e-01
9.94547012e-01
9.94544936e-01
9.94542919e-01
9.94540985e-01
1.00579098e+00
1.00578886e+00
1.00578665e+00
1.00578436e+00
1.00578203e+00
1.00577968e+00
1.00577727e+00
1.00577478e+00
1.00577220e+00
1.00576952e+00
1.00576673e+00
1.00576385e+00
1.00576086e+00
1.00575775e+00
1.00575449e+00
1.00575100e+00
1.00574719e+00
1.00574287e+00
1.00573779e+00
1.00573158e+00
1.00572375e+00
1.00571367e+00
1.00570054e+00
1.00568338e+00
1.00566106e+00
1.00563228e+00
1.00559565e+00
1.00554969e+00
1.00549297e+00
1.00542416e+00
1.00534215e+00
1.00524618e+00
1.00513594e+00
1.00501160e+00
1.00487392e+00
1.00472422e+00
1.00456432e+00
1.00439642e+00
1.00422298e+00
1.00404652e+00
1.00386938e+00
1.00369360e+00
1.00352068e+00
1.00335153e+00
1.00318637e+00
1.00302481e+00
1.00286589e+00
1.00270831e+00
1.00255059e+00
1.00239126e+00
1.00222915e+00
1.00206346e+00
1.00189392e+00
1.00172078e+00
1.00154479e+00
1.00136709e+00
1.00118899e+00
1.00101186e+00
1.00083688e+00
1.00066492e+00
1.00049640e+00
1.00033123e+00
1.00016886e+00
1.00000831e+00
9.99848350e-01
9.99687667e-01
9.99525040e-01
9.99359536e-01
9.99190650e-01
9.99018392e-01
9.98843302e-01
9.98666392e-01
9.98489015e-01
9.98312680e-01
9.98138839e-01
9.97968674e-01
9.97802916e-01
9.97641723e-01
9.97484644e-01
9.97330668e-01
9.97178374e-01
9.97026138e-01
9.96872399e-01
9.96715924e-01
9.96556036e-01
9.96392775e-01
9.96226969e-01
9.96060182e-01
9.95894584e-01
9.95732728e-01
9.95577293e-01
9.95430827e-01
9.95295514e-01
9.95173008e-01
9.95064338e-01
9.94969887e-01
9.94889435e-01
9.94822256e-01
9.94767240e-01
9.94723023e-01
9.94688117e-01
9.94661016e-01
9.94640284e-01
9.94624610e-01
9.94612848e-01
9.94604028e-01
9.94597360e-01
9.94592214e-01
9.94588111e-01
9.94584697e-01
9.94581717e-01
9.94579000e-01
9.94576436e-01
9.94573961e-01
9.94571542e-01
9.94569161e-01
9.94566820e-01
9.94564524e-01
9.94562271e-01
9.94560070e-01
9.94557928e-01
9.94555828e-01
9.94553752e-01
9.94551678e-01
9.94549589e-01
9.94547498e-01
9.94545469e-01
9.94543526e-01
1.00578550e+00
1.00578337e+00
1.00578115e+00
1.00577886e+00
1.00577653e+00
1.00577415e+00
1.00577173e+00
1.00576923e+00
1.00576663e+00
1.00576392e+00
1.00576111e+00
1.00575819e+00
1.00575514e+00
1.00575195e+00
1.00574857e+00
1.00574491e+00
1.00574082e+00
1.00573612e+00
1.00573048e+00
1.00572349e+00
1.00571459e+00
1.00570306e+00
1.00568801e+00
1.00566838e+00
1.00564295e+00
1.00561036e+00
1.00556914e+00
1.00551783e+00
1.00545504e+00
1.00537954e+00
1.00529043e+00
1.00518717e+00
1.00506976e+00
1.00493876e+00
1.00479530e+00
1.00464110e+00
1.00447833e+00
1.00430951e+00
1.00413730e+00
1.00396433e+00
1.00379293e+00
1.00362501e+00
1.00346183e+00
1.00330394e+00
1.00315117e+00
1.00300267e+00
1.00285704e+00
1.00271252e+00
1.00256724e+00
1.00241939e+00
1.00226749e+00
1.00211053e+00
1.00194804e+00
1.00178015e+00
1.00160750e+00
1.00143116e+00
1.00125242e+00
1.00107265e+00
1.00089310e+00
1.00071475e+00
1.00053820e+00
1.00036360e+00
1.00019073e+00
1.00001899e+00
9.99847571e-01
9.99675620e-01
9.99502379e-01
9.99327356e-01
9.99150438e-01
9.98971952e-01
9.98792670e-01
9.98613732e-01
9.98436522e-01
9.98262494e-01
9.98092972e-01
9.97928961e-01
9.97770976e-01
9.97618942e-01
9.97472152e-01
9.97329322e-01
9.97188723e-01
9.97048393e-01
9.96906387e-01
9.96761059e-01
9.96611301e-01
9.96456742e-01
9.96297845e-01
9.96135907e-01
9.95972944e-01
9.95811498e-01
9.95654378e-01
9.95504387e-01
9.95364058e-01
9.95235456e-01
9.95120032e-01
9.95018573e-01
9.94931210e-01
9.94857498e-01
9.94796526e-01
9.94747054e-01
9.94707645e-01
9.94676791e-01
9.94653006e-01
9.94634907e-01
9.94621260e-01
9.94611005e-01
9.94603261e-01
9.94597324e-01
9.94592645e-01
9.94588815e-01
9.94585537e-01
9.94582606e-01
9.94579886e-01
9.94577295e-01
9.94574788e-01
9.94572340e-01
9.94569941e-01
9.94567594e-01
9.94565301e-01
9.94563060e-01
9.94560877e-01
9.94558747e-01
9.94556641e-01
9.94554535e-01
9.94552422e-01
9.94550314e-01
9.94548265e-01
9.94546306e-01
1.00577954e+00
1.00577743e+00
1.00577520e+00
1.00577290e+00
1.00577056e+00
1.00576817e+00
1.00576574e+00
1.00576322e+00
1.00576061e+00
1.00575788e+00
1.00575503e+00
1.00575206e+00
1.00574895e+00
1.00574566e+00
1.00574212e+00
1.00573823e+00
1.00573383e+00
1.00572866e+00
1.00572236e+00
1.00571445e+00
1.00570430e+00
1.00569110e+00
1.00567388e+00
1.00565149e+00
1.00562260e+00
1.00558581e+00
1.00553962e+00
1.00548259e+00
1.00541340e+00
1.00533097e+00
1.00523459e+00
1.00512402e+00
1.00499958e+00
1.00486221e+00
1.00471342e+00
1.00455530e+00
1.00439035e+00
1.00422132e+00
1.00405104e+00
1.00388218e+00
1.00371701e+00
1.00355723e+00
1.00340384e+00
1.00325706e+00
1.00311631e+00
1.00298034e+00
1.00284735e+00
1.00271524e+00
1.00258179e+00
1.00244495e+00
1.00230300e+00
1.00215472e+00
1.00199948e+00
1.00183724e+00
1.00166850e+00
1.00149419e+00
1.00131551e+00
1.00113374e+00
1.00095013e+00
1.00076573e+00
1.00058129e+00
1.00039723e+00
1.00021366e+00
1.00003041e+00
9.99847188e-01
9.99663657e-01
9.99479594e-01
9.99295001e-01
9.99110185e-01
9.98925796e-01
9.98742803e-01
9.98562427e-01
9.98386010e-01
9.98214872e-01
9.98050131e-01
9.97892546e-01
9.97742380e-01
9.97599304e-01
9.97462376e-01
9.97330082e-01
9.97200460e-01
9.97071293e-01
9.96940348e-01
9.96805644e-01
9.96665708e-01
9.96519791e-01
9.96367996e-01
9.96211317e-01
9.96051566e-01
9.95891200e-01
9.95733082e-01
9.95580196e-01
9.95435373e-01
9.95301046e-01
9.95179077e-01
9.95070658e-01
9.94976291e-01
9.94895840e-01
9.94828629e-01
9.94773574e-01
9.94729321e-01
9.94694378e-01
9.94667233e-01
9.94646438e-01
9.94630676e-01
9.94618796e-01
9.94609828e-01
9.94602984e-01
9.94597643e-01
9.94593335e-01
9.94589713e-01
9.94586537e-01
9.94583642e-01
9.94580923e-01
9.94578319e-01
9.94575798e-01
9.94573342e-01
9.94570944e-01
9.94568607e-01
9.94566330e-01
9.94564111e-01
9.94561944e-01
9.94559809e-01
9.94557678e-01
9.94555536e-01
9.94553403e-01
9.94551335e-01
9.94549356e-01
1.00577315e+00
1.00577104e+00
1.00576881e+00
1.00576650e+00
1.00576415e+00
1.00576176e+00
1.00575931e+00
1.00575678e+00
1.00575414e+00
1.00575139e+00
1.00574850e+00
1.00574547e+00
1.00574227e+00
1.00573886e+00
1.00573514e+00
1.00573098e+00
1.00572619e+00
1.00572046e+00
1.00571338e+00
1.00570440e+00
1.00569281e+00
1.00567771e+00
1.00565803e+00
1.00563254e+00
1.00559985e+00
1.00555848e+00
1.00550696e+00
1.00544386e+00
1.00536798e+00
1.00527841e+00
1.00517469e+00
1.00505688e+00
1.00492565e+00
1.00478231e+00
1.00462874e+00
1.00446737e+00
1.00430097e+00
1.00413249e+00
1.00396486e+00
1.00380070e+00
1.00364217e+00
1.00349073e+00
1.00334710e+00
1.00321113e+00
1.00308189e+00
1.00295778e+00
1.00283667e+00
1.00271618e+00
1.00259386e+00
1.00246745e+00
1.00233507e+00
1.00219534e+00
1.00204745e+00
1.00189118e+00
1.00172685e+00
1.00155518e+00
1.00137719e+00
1.00119405e+00
1.00100693e+00
1.00081690e+00
1.00062485e+00
1.00043146e+00
1.00023720e+00
1.00004240e+00
9.99847304e-01