# vtk DataFile Version 2.0
LBM Flow Field - Timestep 2140
ASCII
DATASET STRUCTURED_POINTS
DIMENSIONS 128 128 1
ORIGIN 0.0 0.0 0.0
SPACING 1.0 1.0 1.0
POINT_DATA 16384
SCALARS density double 1
LOOKUP_TABLE default
1.00135513e+00
1.00136117e+00
1.00136673e+00
1.00136144e+00
1.00135475e+00
1.00134847e+00
1.00134037e+00
1.00133061e+00
1.00132052e+00
1.00131010e+00
1.00129932e+00
1.00128856e+00
1.00127819e+00
1.00126835e+00
1.00125924e+00
1.00125106e+00
1.00124397e+00
1.00123805e+00
1.00123339e+00
1.00123001e+00
1.00122793e+00
1.00122709e+00
1.00122741e+00
1.00122877e+00
1.00123103e+00
1.00123400e+00
1.00123749e+00
1.00124126e+00
1.00124506e+00
1.00124864e+00
1.00125173e+00
1.00125406e+00
1.00125535e+00
1.00125533e+00
1.00125374e+00
1.00125033e+00
1.00124486e+00
1.00123712e+00
1.00122690e+00
1.00121404e+00
1.00119838e+00
1.00117980e+00
1.00115821e+00
1.00113354e+00
1.00110576e+00
1.00107486e+00
1.00104086e+00
1.00100381e+00
1.00096380e+00
1.00092093e+00
1.00087534e+00
1.00082718e+00
1.00077665e+00
1.00072393e+00
1.00066927e+00
1.00061291e+00
1.00055512e+00
1.00049616e+00
1.00043634e+00
1.00037596e+00
1.00031532e+00
1.00025475e+00
1.00019457e+00
1.00013509e+00
1.00007663e+00
1.00001948e+00
9.99963952e-01
9.99910308e-01
9.99858809e-01
9.99809686e-01
9.99763148e-01
9.99719370e-01
9.99678501e-01
9.99640653e-01
9.99605907e-01
9.99574309e-01
9.99545873e-01
9.99520581e-01
9.99498384e-01
9.99479207e-01
9.99462949e-01
9.99449492e-01
9.99438699e-01
9.99430419e-01
9.99424495e-01
9.99420766e-01
9.99419068e-01
9.99419243e-01
9.99421135e-01
9.99424601e-01
9.99429506e-01
9.99435729e-01
9.99443159e-01
9.99451701e-01
9.99461270e-01
9.99471794e-01
9.99483212e-01
9.99495467e-01
9.99508513e-01
9.99522305e-01
9.99536799e-01
9.99551951e-01
9.99567714e-01
9.99584035e-01
9.99600855e-01
9.99618107e-01
9.99635717e-01
9.99653599e-01
9.99671660e-01
9.99689800e-01
9.99707911e-01
9.99725879e-01
9.99743586e-01
9.99760910e-01
9.99777732e-01
9.99793938e-01
9.99809412e-01
9.99824016e-01
9.99837699e-01
9.99850418e-01
9.99861986e-01
9.99872197e-01
9.99881518e-01
9.99889855e-01
9.99896003e-01
9.99900652e-01
9.99909497e-01
9.99916393e-01
1.00136063e+00
1.00136121e+00
1.00136369e+00
1.00135980e+00
1.00135431e+00
1.00134755e+00
1.00133963e+00
1.00133038e+00
1.00132052e+00
1.00131020e+00
1.00129968e+00
1.00128917e+00
1.00127898e+00
1.00126930e+00
1.00126036e+00
1.00125232e+00
1.00124533e+00
1.00123949e+00
1.00123489e+00
1.00123154e+00
1.00122946e+00
1.00122859e+00
1.00122886e+00
1.00123014e+00
1.00123230e+00
1.00123516e+00
1.00123850e+00
1.00124212e+00
1.00124576e+00
1.00124916e+00
1.00125207e+00
1.00125421e+00
1.00125531e+00
1.00125510e+00
1.00125333e+00
1.00124974e+00
1.00124411e+00
1.00123622e+00
1.00122587e+00
1.00121288e+00
1.00119712e+00
1.00117847e+00
1.00115682e+00
1.00113212e+00
1.00110433e+00
1.00107344e+00
1.00103948e+00
1.00100249e+00
1.00096257e+00
1.00091981e+00
1.00087434e+00
1.00082634e+00
1.00077597e+00
1.00072344e+00
1.00066898e+00
1.00061283e+00
1.00055525e+00
1.00049653e+00
1.00043694e+00
1.00037679e+00
1.00031639e+00
1.00025605e+00
1.00019608e+00
1.00013681e+00
1.00007853e+00
1.00002156e+00
9.99966174e-01
9.99912654e-01
9.99861253e-01
9.99812201e-01
9.99765704e-01
9.99721939e-01
9.99681053e-01
9.99643161e-01
9.99608345e-01
9.99576652e-01
9.99548099e-01
9.99522671e-01
9.99500323e-01
9.99480981e-01
9.99464552e-01
9.99450918e-01
9.99439946e-01
9.99431490e-01
9.99425396e-01
9.99421504e-01
9.99419655e-01
9.99419689e-01
9.99421456e-01
9.99424810e-01
9.99429618e-01
9.99435757e-01
9.99443117e-01
9.99451601e-01
9.99461122e-01
9.99471607e-01
9.99482992e-01
9.99495218e-01
9.99508237e-01
9.99522001e-01
9.99536465e-01
9.99551582e-01
9.99567305e-01
9.99583580e-01
9.99600347e-01
9.99617539e-01
9.99635081e-01
9.99652890e-01
9.99670873e-01
9.99688932e-01
9.99706961e-01
9.99724846e-01
9.99742474e-01
9.99759724e-01
9.99776484e-01
9.99792628e-01
9.99808057e-01
9.99822647e-01
9.99836337e-01
9.99848997e-01
9.99860592e-01
9.99870954e-01
9.99880317e-01
9.99888353e-01
9.99895151e-01
9.99900563e-01
9.99907706e-01
9.99911162e-01
1.00136615e+00
1.00136360e+00
1.00135880e+00
1.00135736e+00
1.00135364e+00
1.00134602e+00
1.00133779e+00
1.00132923e+00
1.00131963e+00
1.00130936e+00
1.00129906e+00
1.00128883e+00
1.00127883e+00
1.00126933e+00
1.00126057e+00
1.00125270e+00
1.00124584e+00
1.00124013e+00
1.00123562e+00
1.00123235e+00
1.00123032e+00
1.00122949e+00
1.00122977e+00
1.00123105e+00
1.00123318e+00
1.00123599e+00
1.00123928e+00
1.00124282e+00
1.00124638e+00
1.00124970e+00
1.00125251e+00
1.00125455e+00
1.00125555e+00
1.00125525e+00
1.00125338e+00
1.00124971e+00
1.00124399e+00
1.00123603e+00
1.00122562e+00
1.00121259e+00
1.00119680e+00
1.00117813e+00
1.00115649e+00
1.00113180e+00
1.00110405e+00
1.00107321e+00
1.00103932e+00
1.00100242e+00
1.00096259e+00
1.00091995e+00
1.00087461e+00
1.00082675e+00
1.00077653e+00
1.00072416e+00
1.00066987e+00
1.00061389e+00
1.00055649e+00
1.00049794e+00
1.00043852e+00
1.00037854e+00
1.00031830e+00
1.00025811e+00
1.00019827e+00
1.00013912e+00
1.00008094e+00
1.00002405e+00
9.99968719e-01
9.99915232e-01
9.99863837e-01
9.99814767e-01
9.99768226e-01
9.99724393e-01
9.99683415e-01
9.99645408e-01
9.99610457e-01
9.99578613e-01
9.99549895e-01
9.99524289e-01
9.99501756e-01
9.99482227e-01
9.99465608e-01
9.99451788e-01
9.99440636e-01
9.99432011e-01
9.99425758e-01
9.99421723e-01
9.99419746e-01
9.99419670e-01
9.99421344e-01
9.99424625e-01
9.99429377e-01
9.99435477e-01
9.99442814e-01
9.99451288e-01
9.99460811e-01
9.99471308e-01
9.99482711e-01
9.99494960e-01
9.99508004e-01
9.99521792e-01
9.99536277e-01
9.99551411e-01
9.99567144e-01
9.99583421e-01
9.99600183e-01
9.99617360e-01
9.99634879e-01
9.99652656e-01
9.99670602e-01
9.99688617e-01
9.99706597e-01
9.99724432e-01
9.99742009e-01
9.99759212e-01
9.99775927e-01
9.99792030e-01
9.99807422e-01
9.99822017e-01
9.99835691e-01
9.99848291e-01
9.99859911e-01
9.99870518e-01
9.99879628e-01
9.99887188e-01
9.99894884e-01
9.99901733e-01
9.99904369e-01
9.99905907e-01
1.00136187e+00
1.00136076e+00
1.00135814e+00
1.00135529e+00
1.00134988e+00
1.00134326e+00
1.00133569e+00
1.00132697e+00
1.00131746e+00
1.00130762e+00
1.00129758e+00
1.00128754e+00
1.00127778e+00
1.00126855e+00
1.00126000e+00
1.00125232e+00
1.00124566e+00
1.00124011e+00
1.00123575e+00
1.00123261e+00
1.00123069e+00
1.00122993e+00
1.00123027e+00
1.00123160e+00
1.00123376e+00
1.00123658e+00
1.00123987e+00
1.00124340e+00
1.00124694e+00
1.00125023e+00
1.00125302e+00
1.00125503e+00
1.00125601e+00
1.00125568e+00
1.00125380e+00
1.00125012e+00
1.00124440e+00
1.00123645e+00
1.00122606e+00
1.00121306e+00
1.00119732e+00
1.00117870e+00
1.00115713e+00
1.00113252e+00
1.00110485e+00
1.00107412e+00
1.00104033e+00
1.00100355e+00
1.00096385e+00
1.00092133e+00
1.00087614e+00
1.00082841e+00
1.00077833e+00
1.00072610e+00
1.00067195e+00
1.00061610e+00
1.00055883e+00
1.00050040e+00
1.00044109e+00
1.00038121e+00
1.00032106e+00
1.00026093e+00
1.00020116e+00
1.00014204e+00
1.00008388e+00
1.00002698e+00
9.99971624e-01
9.99918087e-01
9.99866621e-01
9.99817456e-01
9.99770798e-01
9.99726827e-01
9.99685692e-01
9.99647511e-01
9.99612371e-01
9.99580326e-01
9.99551397e-01
9.99525576e-01
9.99502824e-01
9.99483078e-01
9.99466248e-01
9.99452225e-01
9.99440883e-01
9.99432081e-01
9.99425670e-01
9.99421496e-01
9.99419401e-01
9.99419230e-01
9.99420832e-01
9.99424063e-01
9.99428788e-01
9.99434882e-01
9.99442233e-01
9.99450738e-01
9.99460308e-01
9.99470864e-01
9.99482334e-01
9.99494658e-01
9.99507778e-01
9.99521644e-01
9.99536204e-01
9.99551408e-01
9.99567205e-01
9.99583537e-01
9.99600343e-01
9.99617554e-01
9.99635097e-01
9.99652887e-01
9.99670835e-01
9.99688843e-01
9.99706809e-01
9.99724624e-01
9.99742177e-01
9.99759352e-01
9.99776039e-01
9.99792127e-01
9.99807496e-01
9.99822051e-01
9.99835721e-01
9.99848391e-01
9.99859920e-01
9.99870362e-01
9.99879724e-01
9.99887697e-01
9.99894295e-01
9.99900361e-01
9.99904402e-01
9.99906741e-01
1.00135710e+00
1.00135671e+00
1.00135566e+00
1.00135113e+00
1.00134552e+00
1.00133986e+00
1.00133234e+00
1.00132352e+00
1.00131440e+00
1.00130496e+00
1.00129514e+00
1.00128538e+00
1.00127595e+00
1.00126701e+00
1.00125873e+00
1.00125132e+00
1.00124490e+00
1.00123957e+00
1.00123541e+00
1.00123244e+00
1.00123067e+00
1.00123005e+00
1.00123050e+00
1.00123192e+00
1.00123415e+00
1.00123703e+00
1.00124037e+00
1.00124394e+00
1.00124751e+00
1.00125082e+00
1.00125363e+00
1.00125567e+00
1.00125668e+00
1.00125638e+00
1.00125454e+00
1.00125091e+00
1.00124526e+00
1.00123737e+00
1.00122706e+00
1.00121416e+00
1.00119852e+00
1.00118001e+00
1.00115855e+00
1.00113408e+00
1.00110655e+00
1.00107595e+00
1.00104232e+00
1.00100569e+00
1.00096614e+00
1.00092377e+00
1.00087872e+00
1.00083114e+00
1.00078120e+00
1.00072910e+00
1.00067507e+00
1.00061934e+00
1.00056217e+00
1.00050382e+00
1.00044459e+00
1.00038477e+00
1.00032465e+00
1.00026454e+00
1.00020477e+00
1.00014562e+00
1.00008742e+00
1.00003045e+00
9.99975007e-01
9.99921356e-01
9.99869752e-01
9.99820427e-01
9.99773588e-01
9.99729416e-01
9.99688062e-01
9.99649648e-01
9.99614261e-01
9.99581960e-01
9.99552770e-01
9.99526686e-01
9.99503674e-01
9.99483673e-01
9.99466599e-01
9.99452345e-01
9.99440789e-01
9.99431794e-01
9.99425213e-01
9.99420895e-01
9.99418683e-01
9.99418423e-01
9.99419965e-01
9.99423165e-01
9.99427887e-01
9.99434004e-01
9.99441402e-01
9.99449976e-01
9.99459634e-01
9.99470292e-01
9.99481877e-01
9.99494323e-01
9.99507571e-01
9.99521565e-01
9.99536251e-01
9.99551575e-01
9.99567484e-01
9.99583917e-01
9.99600813e-01
9.99618100e-01
9.99635705e-01
9.99653543e-01
9.99671525e-01
9.99689556e-01
9.99707532e-01
9.99725348e-01
9.99742895e-01
9.99760058e-01
9.99776724e-01
9.99792793e-01
9.99808157e-01
9.99822683e-01
9.99836300e-01
9.99849002e-01
9.99860583e-01
9.99870833e-01
9.99880055e-01
9.99888441e-01
9.99894895e-01
9.99899856e-01
9.99904539e-01
9.99907287e-01
1.00135320e+00
1.00135193e+00
1.00134979e+00
1.00134613e+00
1.00134143e+00
1.00133505e+00
1.00132745e+00
1.00131938e+00
1.00131063e+00
1.00130128e+00
1.00129182e+00
1.00128249e+00
1.00127339e+00
1.00126476e+00
1.00125682e+00
1.00124973e+00
1.00124359e+00
1.00123854e+00
1.00123462e+00
1.00123188e+00
1.00123031e+00
1.00122986e+00
1.00123047e+00
1.00123202e+00
1.00123437e+00
1.00123736e+00
1.00124078e+00
1.00124443e+00
1.00124807e+00
1.00125146e+00
1.00125434e+00
1.00125646e+00
1.00125754e+00
1.00125733e+00
1.00125558e+00
1.00125205e+00
1.00124651e+00
1.00123875e+00
1.00122857e+00
1.00121581e+00
1.00120032e+00
1.00118198e+00
1.00116069e+00
1.00113639e+00
1.00110903e+00
1.00107862e+00
1.00104517e+00
1.00100871e+00
1.00096934e+00
1.00092715e+00
1.00088226e+00
1.00083483e+00
1.00078503e+00
1.00073306e+00
1.00067915e+00
1.00062352e+00
1.00056642e+00
1.00050814e+00
1.00044895e+00
1.00038915e+00
1.00032903e+00
1.00026890e+00
1.00020908e+00
1.00014986e+00
1.00009156e+00
1.00003447e+00
9.99978876e-01
9.99925053e-01
9.99873253e-01
9.99823710e-01
9.99776631e-01
9.99732201e-01
9.99690573e-01
9.99651870e-01
9.99616185e-01
9.99583580e-01
9.99554083e-01
9.99527693e-01
9.99504381e-01
9.99484091e-01
9.99466741e-01
9.99452230e-01
9.99440440e-01
9.99431236e-01
9.99424474e-01
9.99420006e-01
9.99417677e-01
9.99417334e-01
9.99418826e-01
9.99422010e-01
9.99426748e-01
9.99432912e-01
9.99440385e-01
9.99449059e-01
9.99458839e-01
9.99469637e-01
9.99481376e-01
9.99493986e-01
9.99507403e-01
9.99521567e-01
9.99536421e-01
9.99551907e-01
9.99567967e-01
9.99584540e-01
9.99601561e-01
9.99618959e-01
9.99636657e-01
9.99654571e-01
9.99672614e-01
9.99690688e-01
9.99708694e-01
9.99726526e-01
9.99744076e-01
9.99761238e-01
9.99777896e-01
9.99793937e-01
9.99809276e-01
9.99823815e-01
9.99837408e-01
9.99849981e-01
9.99861568e-01
9.99872010e-01
9.99881024e-01
9.99888880e-01
9.99895712e-01
9.99901024e-01
9.99904981e-01
9.99907091e-01
1.00134751e+00
1.00134612e+00
1.00134351e+00
1.00134038e+00
1.00133566e+00
1.00132918e+00
1.00132214e+00
1.00131441e+00
1.00130580e+00
1.00129684e+00
1.00128785e+00
1.00127888e+00
1.00127013e+00
1.00126191e+00
1.00125435e+00
1.00124761e+00
1.00124181e+00
1.00123707e+00
1.00123345e+00
1.00123097e+00
1.00122964e+00
1.00122941e+00
1.00123021e+00
1.00123193e+00
1.00123444e+00
1.00123757e+00
1.00124112e+00
1.00124489e+00
1.00124865e+00
1.00125215e+00
1.00125514e+00
1.00125737e+00
1.00125857e+00
1.00125849e+00
1.00125688e+00
1.00125350e+00
1.00124811e+00
1.00124052e+00
1.00123052e+00
1.00121795e+00
1.00120266e+00
1.00118453e+00
1.00116345e+00
1.00113937e+00
1.00111223e+00
1.00108204e+00
1.00104879e+00
1.00101255e+00
1.00097338e+00
1.00093137e+00
1.00088666e+00
1.00083939e+00
1.00078974e+00
1.00073791e+00
1.00068410e+00
1.00062855e+00
1.00057153e+00
1.00051329e+00
1.00045411e+00
1.00039430e+00
1.00033414e+00
1.00027396e+00
1.00021404e+00
1.00015471e+00
1.00009626e+00
1.00003900e+00
9.99983212e-01
9.99929165e-01
9.99877118e-01
9.99827304e-01
9.99779934e-01
9.99735195e-01
9.99693242e-01
9.99654203e-01
9.99618174e-01
9.99585219e-01
9.99555374e-01
9.99528640e-01
9.99504994e-01
9.99484382e-01
9.99466730e-01
9.99451939e-01
9.99439895e-01
9.99430468e-01
9.99423516e-01
9.99418893e-01
9.99416446e-01
9.99416023e-01
9.99417475e-01
9.99420655e-01
9.99425426e-01
9.99431657e-01
9.99439229e-01
9.99448031e-01
9.99457962e-01
9.99468932e-01
9.99480858e-01
9.99493666e-01
9.99507287e-01
9.99521656e-01
9.99536711e-01
9.99552392e-01
9.99568636e-01
9.99585380e-01
9.99602555e-01
9.99620088e-01
9.99637903e-01
9.99655915e-01
9.99674035e-01
9.99692168e-01
9.99710216e-01
9.99728074e-01
9.99745635e-01
9.99762792e-01
9.99779444e-01
9.99795475e-01
9.99810771e-01
9.99825267e-01
9.99838875e-01
9.99851420e-01
9.99862855e-01
9.99873269e-01
9.99882413e-01
9.99890045e-01
9.99896658e-01
9.99902105e-01
9.99905708e-01
9.99907644e-01
1.00134008e+00
1.00133903e+00
1.00133695e+00
1.00133351e+00
1.00132862e+00
1.00132285e+00
1.00131614e+00
1.00130842e+00
1.00130024e+00
1.00129184e+00
1.00128320e+00
1.00127460e+00
1.00126633e+00
1.00125854e+00
1.00125139e+00
1.00124503e+00
1.00123962e+00
1.00123524e+00
1.00123194e+00
1.00122977e+00
1.00122872e+00
1.00122874e+00
1.00122977e+00
1.00123170e+00
1.00123439e+00
1.00123769e+00
1.00124141e+00
1.00124533e+00
1.00124923e+00
1.00125288e+00
1.00125602e+00
1.00125840e+00
1.00125976e+00
1.00125985e+00
1.00125842e+00
1.00125522e+00
1.00125004e+00
1.00124266e+00
1.00123289e+00
1.00122055e+00
1.00120550e+00
1.00118761e+00
1.00116679e+00
1.00114296e+00
1.00111608e+00
1.00108613e+00
1.00105314e+00
1.00101713e+00
1.00097818e+00
1.00093638e+00
1.00089186e+00
1.00084476e+00
1.00079526e+00
1.00074356e+00
1.00068985e+00
1.00063438e+00
1.00057741e+00
1.00051919e+00
1.00046001e+00
1.00040016e+00
1.00033994e+00
1.00027965e+00
1.00021961e+00
1.00016012e+00
1.00010149e+00
1.00004401e+00
9.99987980e-01
9.99933664e-01
9.99881322e-01
9.99831191e-01
9.99783485e-01
9.99738391e-01
9.99696070e-01
9.99656652e-01
9.99620237e-01
9.99586896e-01
9.99556665e-01
9.99529554e-01
9.99505543e-01
9.99484583e-01
9.99466605e-01
9.99451514e-01
9.99439200e-01
9.99429537e-01
9.99422386e-01
9.99417604e-01
9.99415039e-01
9.99414540e-01
9.99415957e-01
9.99419145e-01
9.99423963e-01
9.99430279e-01
9.99437970e-01
9.99446922e-01
9.99457029e-01
9.99468197e-01
9.99480338e-01
9.99493371e-01
9.99507224e-01
9.99521826e-01
9.99537111e-01
9.99553013e-01
9.99569467e-01
9.99586404e-01
9.99603754e-01
9.99621443e-01
9.99639392e-01
9.99657516e-01
9.99675725e-01
9.99693926e-01
9.99712021e-01
9.99729909e-01
9.99747485e-01
9.99764638e-01
9.99781269e-01
9.99797284e-01
9.99812564e-01
9.99826995e-01
9.99840529e-01
9.99853097e-01
9.99864509e-01
9.99874706e-01
9.99883802e-01
9.99891597e-01
9.99897956e-01
9.99903103e-01
9.99906846e-01
9.99908871e-01
1.00133216e+00
1.00133114e+00
1.00132920e+00
1.00132577e+00
1.00132120e+00
1.00131574e+00
1.00130916e+00
1.00130187e+00
1.00129422e+00
1.00128617e+00
1.00127793e+00
1.00126985e+00
1.00126207e+00
1.00125472e+00
1.00124801e+00
1.00124211e+00
1.00123712e+00
1.00123312e+00
1.00123019e+00
1.00122836e+00
1.00122761e+00
1.00122792e+00
1.00122920e+00
1.00123137e+00
1.00123428e+00
1.00123778e+00
1.00124168e+00
1.00124579e+00
1.00124987e+00
1.00125369e+00
1.00125700e+00
1.00125957e+00
1.00126112e+00
1.00126140e+00
1.00126018e+00
1.00125721e+00
1.00125227e+00
1.00124513e+00
1.00123562e+00
1.00122355e+00
1.00120878e+00
1.00119118e+00
1.00117064e+00
1.00114710e+00
1.00112050e+00
1.00109084e+00
1.00105811e+00
1.00102236e+00
1.00098365e+00
1.00094208e+00
1.00089776e+00
1.00085085e+00
1.00080150e+00
1.00074992e+00
1.00069632e+00
1.00064092e+00
1.00058399e+00
1.00052577e+00
1.00046657e+00
1.00040666e+00
1.00034634e+00
1.00028593e+00
1.00022573e+00
1.00016605e+00
1.00010720e+00
1.00004947e+00
9.99993155e-01
9.99938530e-01
9.99885854e-01
9.99835366e-01
9.99787282e-01
9.99741794e-01
9.99699066e-01
9.99659231e-01
9.99622395e-01
9.99588632e-01
9.99557985e-01
9.99530467e-01
9.99506063e-01
9.99484731e-01
9.99466405e-01
9.99450996e-01
9.99438398e-01
9.99428487e-01
9.99421130e-01
9.99416184e-01
9.99413499e-01
9.99412927e-01
9.99414315e-01
9.99417519e-01
9.99422396e-01
9.99428810e-01
9.99436636e-01
9.99445756e-01
9.99456059e-01
9.99467445e-01
9.99479821e-01
9.99493102e-01
9.99507209e-01
9.99522065e-01
9.99537600e-01
9.99553743e-01
9.99570423e-01
9.99587570e-01
9.99605110e-01
9.99622966e-01
9.99641058e-01
9.99659300e-01
9.99677604e-01
9.99695877e-01
9.99714020e-01
9.99731933e-01
9.99749517e-01
9.99766669e-01
9.99783277e-01
9.99799244e-01
9.99814490e-01
9.99828898e-01
9.99842348e-01
9.99854814e-01
9.99866225e-01
9.99876389e-01
9.99885301e-01
9.99893042e-01
9.99899392e-01
9.99904380e-01
9.99908068e-01
9.99910062e-01
1.00132364e+00
1.00132255e+00
1.00132056e+00
1.00131747e+00
1.00131324e+00
1.00130785e+00
1.00130163e+00
1.00129490e+00
1.00128760e+00
1.00127996e+00
1.00127229e+00
1.00126473e+00
1.00125741e+00
1.00125056e+00
1.00124437e+00
1.00123893e+00
1.00123438e+00
1.00123081e+00
1.00122828e+00
1.00122681e+00
1.00122640e+00
1.00122702e+00
1.00122859e+00
1.00123101e+00
1.00123416e+00
1.00123788e+00
1.00124200e+00
1.00124630e+00
1.00125058e+00
1.00125459e+00
1.00125811e+00
1.00126087e+00
1.00126264e+00
1.00126315e+00
1.00126217e+00
1.00125945e+00
1.00125476e+00
1.00124791e+00
1.00123868e+00
1.00122691e+00
1.00121245e+00
1.00119516e+00
1.00117494e+00
1.00115171e+00
1.00112542e+00
1.00109606e+00
1.00106363e+00
1.00102815e+00
1.00098971e+00
1.00094838e+00
1.00090428e+00
1.00085755e+00
1.00080837e+00
1.00075692e+00
1.00070342e+00
1.00064808e+00
1.00059118e+00
1.00053296e+00
1.00047371e+00
1.00041372e+00
1.00035330e+00
1.00029274e+00
1.00023235e+00
1.00017245e+00
1.00011335e+00
1.00005533e+00
9.99998706e-01
9.99943738e-01
9.99890694e-01
9.99839814e-01
9.99791320e-01
9.99745404e-01
9.99702235e-01
9.99661952e-01
9.99624665e-01
9.99590451e-01
9.99559360e-01
9.99531409e-01
9.99506590e-01
9.99484865e-01
9.99466173e-01
9.99450430e-01
9.99437534e-01
9.99427366e-01
9.99419795e-01
9.99414680e-01
9.99411875e-01
9.99411229e-01
9.99412592e-01
9.99415817e-01
9.99420760e-01
9.99427283e-01
9.99435256e-01
9.99444555e-01
9.99455068e-01
9.99466686e-01
9.99479313e-01
9.99492857e-01
9.99507231e-01
9.99522356e-01
9.99538153e-01
9.99554548e-01
9.99571465e-01
9.99588830e-01
9.99606566e-01
9.99624594e-01
9.99642831e-01
9.99661193e-01
9.99679589e-01
9.99697928e-01
9.99716114e-01
9.99734048e-01
9.99751628e-01
9.99768759e-01
9.99785341e-01
9.99801263e-01
9.99816434e-01
9.99830783e-01
9.99844196e-01
9.99856558e-01
9.99867849e-01
9.99878003e-01
9.99886850e-01
9.99894405e-01
9.99900717e-01
9.99905705e-01
9.99909275e-01
9.99911187e-01
1.00131438e+00
1.00131341e+00
1.00131155e+00
1.00130865e+00
1.00130459e+00
1.00129954e+00
1.00129380e+00
1.00128743e+00
1.00128055e+00
1.00127348e+00
1.00126634e+00
1.00125927e+00
1.00125250e+00
1.00124621e+00
1.00124053e+00
1.00123559e+00
1.00123152e+00
1.00122841e+00
1.00122629e+00
1.00122521e+00
1.00122517e+00
1.00122611e+00
1.00122799e+00
1.00123069e+00
1.00123410e+00
1.00123806e+00
1.00124239e+00
1.00124691e+00
1.00125140e+00
1.00125563e+00
1.00125936e+00
1.00126234e+00
1.00126434e+00
1.00126509e+00
1.00126436e+00
1.00126191e+00
1.00125751e+00
1.00125095e+00
1.00124204e+00
1.00123059e+00
1.00121645e+00
1.00119950e+00
1.00117961e+00
1.00115672e+00
1.00113077e+00
1.00110173e+00
1.00106961e+00
1.00103443e+00
1.00099626e+00
1.00095518e+00
1.00091131e+00
1.00086479e+00
1.00081577e+00
1.00076446e+00
1.00071105e+00
1.00065578e+00
1.00059890e+00
1.00054067e+00
1.00048137e+00
1.00042129e+00
1.00036073e+00
1.00030000e+00
1.00023941e+00
1.00017927e+00
1.00011989e+00
1.00006157e+00
1.00000460e+00
9.99949263e-01
9.99895823e-01
9.99844524e-01
9.99795590e-01
9.99749220e-01
9.99705584e-01
9.99664827e-01
9.99627062e-01
9.99592374e-01
9.99560816e-01
9.99532412e-01
9.99507158e-01
9.99485022e-01
9.99465949e-01
9.99449859e-01
9.99436654e-01
9.99426219e-01
9.99418426e-01
9.99413138e-01
9.99410208e-01
9.99409488e-01
9.99410828e-01
9.99414077e-01
9.99419090e-01
9.99425727e-01
9.99433852e-01
9.99443339e-01
9.99454069e-01
9.99465928e-01
9.99478813e-01
9.99492626e-01
9.99507275e-01
9.99522673e-01
9.99538737e-01
9.99555387e-01
9.99572542e-01
9.99590125e-01
9.99608055e-01
9.99626250e-01
9.99644627e-01
9.99663100e-01
9.99681580e-01
9.99699973e-01
9.99718188e-01
9.99736128e-01
9.99753695e-01
9.99770787e-01
9.99787314e-01
9.99803182e-01
9.99818281e-01
9.99832525e-01
9.99845856e-01
9.99858160e-01
9.99869334e-01
9.99879363e-01
9.99888167e-01
9.99895641e-01
9.99901833e-01
9.99906742e-01
9.99910259e-01
9.99912186e-01
1.00130470e+00
1.00130386e+00
1.00130219e+00
1.00129941e+00
1.00129560e+00
1.00129098e+00
1.00128562e+00
1.00127964e+00
1.00127332e+00
1.00126679e+00
1.00126017e+00
1.00125367e+00
1.00124749e+00
1.00124176e+00
1.00123661e+00
1.00123221e+00
1.00122865e+00
1.00122601e+00
1.00122434e+00
1.00122368e+00
1.00122401e+00
1.00122530e+00
1.00122749e+00
1.00123048e+00
1.00123416e+00
1.00123836e+00
1.00124293e+00
1.00124768e+00
1.00125238e+00
1.00125683e+00
1.00126078e+00
1.00126399e+00
1.00126623e+00
1.00126723e+00
1.00126677e+00
1.00126459e+00
1.00126049e+00
1.00125424e+00
1.00124565e+00
1.00123454e+00
1.00122074e+00
1.00120414e+00
1.00118461e+00
1.00116207e+00
1.00113647e+00
1.00110777e+00
1.00107597e+00
1.00104110e+00
1.00100322e+00
1.00096241e+00
1.00091878e+00
1.00087246e+00
1.00082362e+00
1.00077244e+00
1.00071913e+00
1.00066393e+00
1.00060707e+00
1.00054882e+00
1.00048946e+00
1.00042928e+00
1.00036858e+00
1.00030767e+00
1.00024686e+00
1.00018646e+00
1.00012678e+00
1.00006813e+00
1.00001080e+00
9.99955075e-01
9.99901218e-01
9.99849479e-01
9.99800084e-01
9.99753237e-01
9.99709113e-01
9.99667860e-01
9.99629599e-01
9.99594417e-01
9.99562374e-01
9.99533500e-01
9.99507796e-01
9.99485236e-01
9.99465768e-01
9.99449319e-01
9.99435796e-01
9.99425086e-01
9.99417066e-01
9.99411599e-01
9.99408542e-01
9.99407745e-01
9.99409059e-01
9.99412332e-01
9.99417416e-01
9.99424167e-01
9.99432447e-01
9.99442123e-01
9.99453071e-01
9.99465172e-01
9.99478316e-01
9.99492398e-01
9.99507320e-01
9.99522990e-01
9.99539317e-01
9.99556216e-01
9.99573603e-01
9.99591395e-01
9.99609508e-01
9.99627859e-01
9.99646362e-01
9.99664931e-01
9.99683476e-01
9.99701908e-01
9.99720132e-01
9.99738056e-01
9.99755586e-01
9.99772624e-01
9.99789073e-01
9.99804849e-01
9.99819862e-01
9.99834007e-01
9.99847208e-01
9.99859406e-01
9.99870497e-01
9.99880394e-01
9.99889081e-01
9.99896493e-01
9.99902586e-01
9.99907385e-01
9.99910864e-01
9.99912802e-01
1.00129488e+00
1.00129410e+00
1.00129255e+00
1.00128999e+00
1.00128650e+00
1.00128221e+00
1.00127724e+00
1.00127179e+00
1.00126600e+00
1.00125999e+00
1.00125395e+00
1.00124807e+00
1.00124248e+00
1.00123732e+00
1.00123276e+00
1.00122892e+00
1.00122588e+00
1.00122373e+00
1.00122253e+00
1.00122229e+00
1.00122301e+00
1.00122466e+00
1.00122718e+00
1.00123047e+00
1.00123441e+00
1.00123887e+00
1.00124368e+00
1.00124865e+00
1.00125358e+00
1.00125824e+00
1.00126241e+00
1.00126585e+00
1.00126833e+00
1.00126958e+00
1.00126938e+00
1.00126749e+00
1.00126369e+00
1.00125775e+00
1.00124949e+00
1.00123872e+00
1.00122528e+00
1.00120903e+00
1.00118987e+00
1.00116769e+00
1.00114244e+00
1.00111409e+00
1.00108263e+00
1.00104809e+00
1.00101051e+00
1.00096997e+00
1.00092658e+00
1.00088048e+00
1.00083182e+00
1.00078078e+00
1.00072758e+00
1.00067243e+00
1.00061559e+00
1.00055732e+00
1.00049790e+00
1.00043761e+00
1.00037676e+00
1.00031566e+00
1.00025462e+00
1.00019396e+00
1.00013397e+00
1.00007498e+00
1.00001728e+00
9.99961143e-01
9.99906853e-01
9.99854657e-01
9.99804786e-01
9.99757446e-01
9.99712818e-01
9.99671056e-01
9.99632282e-01
9.99596593e-01
9.99564052e-01
9.99534695e-01
9.99508529e-01
9.99485533e-01
9.99465661e-01
9.99448845e-01
9.99434995e-01
9.99424003e-01
9.99415749e-01
9.99410098e-01
9.99406907e-01
9.99406030e-01
9.99407314e-01
9.99410607e-01
9.99415759e-01
9.99422622e-01
9.99431052e-01
9.99440913e-01
9.99452075e-01
9.99464412e-01
9.99477807e-01
9.99492151e-01
9.99507338e-01
9.99523267e-01
9.99539846e-01
9.99556980e-01
9.99574583e-01
9.99592566e-01
9.99610844e-01
9.99629330e-01
9.99647937e-01
9.99666579e-01
9.99685165e-01
9.99703609e-01
9.99721818e-01
9.99739699e-01
9.99757162e-01
9.99774117e-01
9.99790470e-01
9.99806127e-01
9.99821011e-01
9.99835037e-01
9.99848109e-01
9.99860156e-01
9.99871123e-01
9.99880913e-01
9.99889465e-01
9.99896761e-01
9.99902765e-01
9.99907473e-01
9.99910880e-01
9.99912799e-01
1.00128501e+00
1.00128430e+00
1.00128287e+00
1.00128054e+00
1.00127736e+00
1.00127342e+00
1.00126891e+00
1.00126397e+00
1.00125870e+00
1.00125327e+00
1.00124786e+00
1.00124258e+00
1.00123759e+00
1.00123306e+00
1.00122910e+00
1.00122582e+00
1.00122332e+00
1.00122169e+00
1.00122096e+00
1.00122116e+00
1.00122228e+00
1.00122430e+00
1.00122714e+00
1.00123073e+00
1.00123495e+00
1.00123966e+00
1.00124470e+00
1.00124989e+00
1.00125503e+00
1.00125990e+00
1.00126429e+00
1.00126795e+00
1.00127066e+00
1.00127216e+00
1.00127222e+00
1.00127061e+00
1.00126710e+00
1.00126147e+00
1.00125354e+00
1.00124311e+00
1.00123002e+00
1.00121414e+00
1.00119533e+00
1.00117353e+00
1.00114864e+00
1.00112065e+00
1.00108953e+00
1.00105531e+00
1.00101804e+00
1.00097778e+00
1.00093464e+00
1.00088876e+00
1.00084028e+00
1.00078939e+00
1.00073630e+00
1.00068122e+00
1.00062440e+00
1.00056611e+00
1.00050662e+00
1.00044622e+00
1.00038522e+00
1.00032393e+00
1.00026265e+00
1.00020171e+00
1.00014141e+00
1.00008207e+00
1.00002398e+00
9.99967431e-01
9.99912698e-01
9.99860036e-01
9.99809678e-01
9.99761835e-01
9.99716693e-01
9.99674409e-01
9.99635114e-01
9.99598907e-01
9.99565859e-01
9.99536010e-01
9.99509373e-01
9.99485934e-01
9.99465650e-01
9.99448459e-01
9.99434275e-01
9.99422996e-01
9.99414501e-01
9.99408660e-01
9.99405331e-01
9.99404367e-01
9.99405615e-01
9.99408922e-01
9.99414134e-01
9.99421100e-01
9.99429673e-01
9.99439710e-01
9.99451074e-01
9.99463635e-01
9.99477269e-01
9.99491859e-01
9.99507293e-01
9.99523465e-01
9.99540274e-01
9.99557623e-01
9.99575418e-01
9.99593568e-01
9.99611984e-01
9.99630577e-01
9.99649259e-01
9.99667943e-01
9.99686541e-01
9.99704964e-01
9.99723123e-01
9.99740931e-01
9.99758296e-01
9.99775131e-01
9.99791352e-01
9.99806869e-01
9.99821595e-01
9.99835457e-01
9.99848378e-01
9.99860268e-01
9.99871068e-01
9.99880718e-01
9.99889143e-01
9.99896302e-01
9.99902189e-01
9.99906801e-01
9.99910129e-01
9.99912022e-01
1.00127526e+00
1.00127464e+00
1.00127335e+00
1.00127123e+00
1.00126834e+00
1.00126480e+00
1.00126076e+00
1.00125632e+00
1.00125161e+00
1.00124679e+00
1.00124199e+00
1.00123734e+00
1.00123299e+00
1.00122909e+00
1.00122573e+00
1.00122304e+00
1.00122111e+00
1.00122000e+00
1.00121975e+00
1.00122039e+00
1.00122192e+00
1.00122430e+00
1.00122747e+00
1.00123136e+00
1.00123584e+00
1.00124079e+00
1.00124606e+00
1.00125146e+00
1.00125680e+00
1.00126187e+00
1.00126646e+00
1.00127033e+00
1.00127325e+00
1.00127499e+00
1.00127530e+00
1.00127395e+00
1.00127072e+00
1.00126540e+00
1.00125778e+00
1.00124769e+00
1.00123494e+00
1.00121941e+00
1.00120098e+00
1.00117953e+00
1.00115501e+00
1.00112737e+00
1.00109660e+00
1.00106271e+00
1.00102574e+00
1.00098577e+00
1.00094289e+00
1.00089723e+00
1.00084894e+00
1.00079820e+00
1.00074521e+00
1.00069020e+00
1.00063341e+00
1.00057510e+00
1.00051554e+00
1.00045504e+00
1.00039389e+00
1.00033240e+00
1.00027088e+00
1.00020966e+00
1.00014905e+00
1.00008935e+00
1.00003087e+00
9.99973903e-01
9.99918722e-01
9.99865588e-01
9.99814737e-01
9.99766385e-01
9.99720722e-01
9.99677912e-01
9.99638090e-01
9.99601359e-01
9.99567798e-01
9.99537451e-01
9.99510338e-01
9.99486449e-01
9.99465749e-01
9.99448178e-01
9.99433655e-01
9.99422081e-01
9.99413340e-01
9.99407302e-01
9.99403828e-01
9.99402769e-01
9.99403973e-01
9.99407284e-01
9.99412546e-01
9.99419603e-01
9.99428304e-01
9.99438501e-01
9.99450051e-01
9.99462817e-01
9.99476670e-01
9.99491484e-01
9.99507141e-01
9.99523529e-01
9.99540541e-01
9.99558075e-01
9.99576031e-01
9.99594315e-01
9.99612834e-01
9.99631499e-01
9.99650219e-01
9.99668908e-01
9.99687478e-01
9.99705843e-01
9.99723915e-01
9.99741609e-01
9.99758840e-01
9.99775521e-01
9.99791569e-01
9.99806906e-01
9.99821449e-01
9.99835116e-01
9.99847842e-01
9.99859553e-01
9.99870172e-01
9.99879644e-01
9.99887915e-01
9.99894935e-01
9.99900687e-01
9.99905177e-01
9.99908418e-01
9.99910287e-01
1.00126582e+00
1.00126527e+00
1.00126412e+00
1.00126221e+00
1.00125963e+00
1.00125650e+00
1.00125292e+00
1.00124900e+00
1.00124488e+00
1.00124067e+00
1.00123649e+00
1.00123249e+00
1.00122881e+00
1.00122553e+00
1.00122280e+00
1.00122071e+00
1.00121934e+00
1.00121876e+00
1.00121900e+00
1.00122009e+00
1.00122202e+00
1.00122476e+00
1.00122826e+00
1.00123243e+00
1.00123717e+00
1.00124235e+00
1.00124782e+00
1.00125342e+00
1.00125894e+00
1.00126420e+00
1.00126897e+00
1.00127303e+00
1.00127615e+00
1.00127809e+00
1.00127863e+00
1.00127753e+00
1.00127457e+00
1.00126953e+00
1.00126221e+00
1.00125244e+00
1.00124003e+00
1.00122484e+00
1.00120676e+00
1.00118567e+00
1.00116150e+00
1.00113422e+00
1.00110378e+00
1.00107022e+00
1.00103356e+00
1.00099387e+00
1.00095125e+00
1.00090581e+00
1.00085771e+00
1.00080713e+00
1.00075426e+00
1.00069932e+00
1.00064255e+00
1.00058422e+00
1.00052461e+00
1.00046400e+00
1.00040270e+00
1.00034101e+00
1.00027926e+00
1.00021776e+00
1.00015683e+00