# vtk DataFile Version 2.0
LBM Flow Field - Timestep 1440
ASCII
DATASET STRUCTURED_POINTS
DIMENSIONS 128 128 1
ORIGIN 0.0 0.0 0.0
SPACING 1.0 1.0 1.0
POINT_DATA 16384
SCALARS density double 1
LOOKUP_TABLE default
1.00033138e+00
1.00031387e+00
1.00029425e+00
1.00029287e+00
1.00029139e+00
1.00028750e+00
1.00028528e+00
1.00028475e+00
1.00028399e+00
1.00028338e+00
1.00028332e+00
1.00028351e+00
1.00028370e+00
1.00028388e+00
1.00028398e+00
1.00028384e+00
1.00028334e+00
1.00028241e+00
1.00028096e+00
1.00027889e+00
1.00027616e+00
1.00027271e+00
1.00026853e+00
1.00026360e+00
1.00025796e+00
1.00025165e+00
1.00024473e+00
1.00023732e+00
1.00022953e+00
1.00022151e+00
1.00021344e+00
1.00020550e+00
1.00019791e+00
1.00019088e+00
1.00018464e+00
1.00017942e+00
1.00017542e+00
1.00017287e+00
1.00017194e+00
1.00017278e+00
1.00017551e+00
1.00018020e+00
1.00018686e+00
1.00019546e+00
1.00020591e+00
1.00021804e+00
1.00023166e+00
1.00024648e+00
1.00026219e+00
1.00027843e+00
1.00029481e+00
1.00031091e+00
1.00032631e+00
1.00034060e+00
1.00035338e+00
1.00036430e+00
1.00037304e+00
1.00037936e+00
1.00038308e+00
1.00038408e+00
1.00038237e+00
1.00037798e+00
1.00037107e+00
1.00036186e+00
1.00035064e+00
1.00033776e+00
1.00032360e+00
1.00030861e+00
1.00029321e+00
1.00027784e+00
1.00026294e+00
1.00024889e+00
1.00023603e+00
1.00022467e+00
1.00021500e+00
1.00020718e+00
1.00020126e+00
1.00019724e+00
1.00019502e+00
1.00019443e+00
1.00019526e+00
1.00019723e+00
1.00020003e+00
1.00020333e+00
1.00020680e+00
1.00021012e+00
1.00021298e+00
1.00021511e+00
1.00021629e+00
1.00021635e+00
1.00021518e+00
1.00021272e+00
1.00020896e+00
1.00020395e+00
1.00019778e+00
1.00019059e+00
1.00018251e+00
1.00017374e+00
1.00016446e+00
1.00015484e+00
1.00014509e+00
1.00013537e+00
1.00012583e+00
1.00011661e+00
1.00010783e+00
1.00009959e+00
1.00009194e+00
1.00008494e+00
1.00007861e+00
1.00007295e+00
1.00006795e+00
1.00006358e+00
1.00005977e+00
1.00005649e+00
1.00005365e+00
1.00005113e+00
1.00004886e+00
1.00004689e+00
1.00004494e+00
1.00004270e+00
1.00004062e+00
1.00003910e+00
1.00003609e+00
1.00003155e+00
1.00002995e+00
1.00002881e+00
1.00000918e+00
9.99991880e-01
1.00031604e+00
1.00030964e+00
1.00029643e+00
1.00029316e+00
1.00028993e+00
1.00028728e+00
1.00028512e+00
1.00028409e+00
1.00028328e+00
1.00028287e+00
1.00028269e+00
1.00028276e+00
1.00028288e+00
1.00028299e+00
1.00028296e+00
1.00028270e+00
1.00028209e+00
1.00028104e+00
1.00027945e+00
1.00027727e+00
1.00027442e+00
1.00027086e+00
1.00026657e+00
1.00026154e+00
1.00025581e+00
1.00024941e+00
1.00024242e+00
1.00023494e+00
1.00022709e+00
1.00021902e+00
1.00021090e+00
1.00020293e+00
1.00019530e+00
1.00018824e+00
1.00018197e+00
1.00017671e+00
1.00017269e+00
1.00017009e+00
1.00016911e+00
1.00016989e+00
1.00017254e+00
1.00017714e+00
1.00018370e+00
1.00019218e+00
1.00020250e+00
1.00021450e+00
1.00022797e+00
1.00024265e+00
1.00025823e+00
1.00027435e+00
1.00029062e+00
1.00030664e+00
1.00032200e+00
1.00033628e+00
1.00034911e+00
1.00036013e+00
1.00036903e+00
1.00037557e+00
1.00037957e+00
1.00038092e+00
1.00037960e+00
1.00037568e+00
1.00036929e+00
1.00036064e+00
1.00035002e+00
1.00033776e+00
1.00032425e+00
1.00030990e+00
1.00029515e+00
1.00028042e+00
1.00026613e+00
1.00025265e+00
1.00024032e+00
1.00022942e+00
1.00022016e+00
1.00021267e+00
1.00020701e+00
1.00020317e+00
1.00020105e+00
1.00020049e+00
1.00020127e+00
1.00020313e+00
1.00020576e+00
1.00020885e+00
1.00021207e+00
1.00021510e+00
1.00021766e+00
1.00021949e+00
1.00022037e+00
1.00022015e+00
1.00021871e+00
1.00021600e+00
1.00021203e+00
1.00020683e+00
1.00020050e+00
1.00019317e+00
1.00018499e+00
1.00017612e+00
1.00016675e+00
1.00015707e+00
1.00014725e+00
1.00013745e+00
1.00012785e+00
1.00011856e+00
1.00010970e+00
1.00010136e+00
1.00009361e+00
1.00008650e+00
1.00008006e+00
1.00007427e+00
1.00006914e+00
1.00006463e+00
1.00006068e+00
1.00005726e+00
1.00005427e+00
1.00005166e+00
1.00004931e+00
1.00004718e+00
1.00004509e+00
1.00004304e+00
1.00004090e+00
1.00003882e+00
1.00003585e+00
1.00003266e+00
1.00002933e+00
1.00002596e+00
1.00001289e+00
1.00000711e+00
1.00029937e+00
1.00029924e+00
1.00030065e+00
1.00029310e+00
1.00028726e+00
1.00028637e+00
1.00028499e+00
1.00028312e+00
1.00028219e+00
1.00028195e+00
1.00028168e+00
1.00028153e+00
1.00028155e+00
1.00028154e+00
1.00028135e+00
1.00028093e+00
1.00028017e+00
1.00027897e+00
1.00027724e+00
1.00027492e+00
1.00027195e+00
1.00026827e+00
1.00026387e+00
1.00025875e+00
1.00025293e+00
1.00024646e+00
1.00023940e+00
1.00023187e+00
1.00022397e+00
1.00021586e+00
1.00020770e+00
1.00019970e+00
1.00019204e+00
1.00018495e+00
1.00017864e+00
1.00017335e+00
1.00016928e+00
1.00016663e+00
1.00016559e+00
1.00016630e+00
1.00016887e+00
1.00017338e+00
1.00017983e+00
1.00018821e+00
1.00019841e+00
1.00021029e+00
1.00022365e+00
1.00023822e+00
1.00025370e+00
1.00026974e+00
1.00028595e+00
1.00030195e+00
1.00031732e+00
1.00033166e+00
1.00034459e+00
1.00035576e+00
1.00036487e+00
1.00037167e+00
1.00037599e+00
1.00037772e+00
1.00037683e+00
1.00037339e+00
1.00036752e+00
1.00035944e+00
1.00034941e+00
1.00033778e+00
1.00032491e+00
1.00031122e+00
1.00029712e+00
1.00028303e+00
1.00026937e+00
1.00025649e+00
1.00024472e+00
1.00023434e+00
1.00022555e+00
1.00021847e+00
1.00021316e+00
1.00020961e+00
1.00020770e+00
1.00020729e+00
1.00020816e+00
1.00021003e+00
1.00021263e+00
1.00021562e+00
1.00021870e+00
1.00022156e+00
1.00022392e+00
1.00022553e+00
1.00022618e+00
1.00022573e+00
1.00022406e+00
1.00022113e+00
1.00021695e+00
1.00021156e+00
1.00020505e+00
1.00019756e+00
1.00018922e+00
1.00018022e+00
1.00017072e+00
1.00016091e+00
1.00015096e+00
1.00014104e+00
1.00013129e+00
1.00012186e+00
1.00011284e+00
1.00010432e+00
1.00009639e+00
1.00008907e+00
1.00008240e+00
1.00007638e+00
1.00007100e+00
1.00006624e+00
1.00006205e+00
1.00005836e+00
1.00005511e+00
1.00005227e+00
1.00004972e+00
1.00004727e+00
1.00004499e+00
1.00004305e+00
1.00004070e+00
1.00003764e+00
1.00003546e+00
1.00003409e+00
1.00002783e+00
1.00002001e+00
1.00002215e+00
1.00002289e+00
1.00030033e+00
1.00029768e+00
1.00029512e+00
1.00029026e+00
1.00028791e+00
1.00028560e+00
1.00028334e+00
1.00028198e+00
1.00028119e+00
1.00028050e+00
1.00028003e+00
1.00027980e+00
1.00027960e+00
1.00027933e+00
1.00027894e+00
1.00027831e+00
1.00027734e+00
1.00027594e+00
1.00027404e+00
1.00027155e+00
1.00026843e+00
1.00026464e+00
1.00026014e+00
1.00025495e+00
1.00024908e+00
1.00024258e+00
1.00023552e+00
1.00022799e+00
1.00022012e+00
1.00021204e+00
1.00020394e+00
1.00019599e+00
1.00018839e+00
1.00018136e+00
1.00017511e+00
1.00016987e+00
1.00016584e+00
1.00016322e+00
1.00016219e+00
1.00016289e+00
1.00016544e+00
1.00016990e+00
1.00017629e+00
1.00018458e+00
1.00019469e+00
1.00020646e+00
1.00021970e+00
1.00023415e+00
1.00024951e+00
1.00026544e+00
1.00028156e+00
1.00029749e+00
1.00031283e+00
1.00032717e+00
1.00034015e+00
1.00035142e+00
1.00036069e+00
1.00036770e+00
1.00037229e+00
1.00037435e+00
1.00037386e+00
1.00037086e+00
1.00036549e+00
1.00035794e+00
1.00034850e+00
1.00033748e+00
1.00032524e+00
1.00031219e+00
1.00029875e+00
1.00028531e+00
1.00027227e+00
1.00026001e+00
1.00024883e+00
1.00023899e+00
1.00023070e+00
1.00022407e+00
1.00021917e+00
1.00021595e+00
1.00021433e+00
1.00021415e+00
1.00021518e+00
1.00021717e+00
1.00021983e+00
1.00022284e+00
1.00022591e+00
1.00022872e+00
1.00023100e+00
1.00023252e+00
1.00023307e+00
1.00023250e+00
1.00023072e+00
1.00022768e+00
1.00022339e+00
1.00021789e+00
1.00021129e+00
1.00020369e+00
1.00019525e+00
1.00018614e+00
1.00017652e+00
1.00016658e+00
1.00015649e+00
1.00014641e+00
1.00013648e+00
1.00012683e+00
1.00011758e+00
1.00010881e+00
1.00010058e+00
1.00009295e+00
1.00008594e+00
1.00007956e+00
1.00007381e+00
1.00006864e+00
1.00006403e+00
1.00005994e+00
1.00005629e+00
1.00005301e+00
1.00005005e+00
1.00004734e+00
1.00004470e+00
1.00004213e+00
1.00003977e+00
1.00003714e+00
1.00003390e+00
1.00003092e+00
1.00002818e+00
1.00002312e+00
1.00002075e+00
1.00001880e+00
1.00030021e+00
1.00029608e+00
1.00029087e+00
1.00028938e+00
1.00028754e+00
1.00028378e+00
1.00028179e+00
1.00028085e+00
1.00027964e+00
1.00027856e+00
1.00027798e+00
1.00027752e+00
1.00027699e+00
1.00027644e+00
1.00027579e+00
1.00027489e+00
1.00027366e+00
1.00027203e+00
1.00026992e+00
1.00026726e+00
1.00026400e+00
1.00026009e+00
1.00025551e+00
1.00025028e+00
1.00024439e+00
1.00023791e+00
1.00023090e+00
1.00022345e+00
1.00021568e+00
1.00020773e+00
1.00019976e+00
1.00019196e+00
1.00018451e+00
1.00017763e+00
1.00017153e+00
1.00016643e+00
1.00016252e+00
1.00016001e+00
1.00015905e+00
1.00015981e+00
1.00016238e+00
1.00016684e+00
1.00017319e+00
1.00018142e+00
1.00019143e+00
1.00020308e+00
1.00021618e+00
1.00023048e+00
1.00024568e+00
1.00026145e+00
1.00027744e+00
1.00029324e+00
1.00030848e+00
1.00032277e+00
1.00033573e+00
1.00034704e+00
1.00035640e+00
1.00036357e+00
1.00036838e+00
1.00037072e+00
1.00037058e+00
1.00036799e+00
1.00036309e+00
1.00035607e+00
1.00034719e+00
1.00033677e+00
1.00032517e+00
1.00031278e+00
1.00030000e+00
1.00028723e+00
1.00027486e+00
1.00026324e+00
1.00025268e+00
1.00024343e+00
1.00023569e+00
1.00022956e+00
1.00022511e+00
1.00022230e+00
1.00022102e+00
1.00022113e+00
1.00022241e+00
1.00022459e+00
1.00022739e+00
1.00023051e+00
1.00023365e+00
1.00023650e+00
1.00023881e+00
1.00024032e+00
1.00024086e+00
1.00024028e+00
1.00023848e+00
1.00023541e+00
1.00023109e+00
1.00022556e+00
1.00021891e+00
1.00021127e+00
1.00020278e+00
1.00019359e+00
1.00018389e+00
1.00017384e+00
1.00016360e+00
1.00015334e+00
1.00014320e+00
1.00013331e+00
1.00012377e+00
1.00011467e+00
1.00010607e+00
1.00009804e+00
1.00009058e+00
1.00008373e+00
1.00007747e+00
1.00007177e+00
1.00006662e+00
1.00006196e+00
1.00005777e+00
1.00005393e+00
1.00005038e+00
1.00004720e+00
1.00004419e+00
1.00004099e+00
1.00003799e+00
1.00003563e+00
1.00003247e+00
1.00002777e+00
1.00002542e+00
1.00002378e+00
1.00001845e+00
1.00001468e+00
1.00029706e+00
1.00029429e+00
1.00029089e+00
1.00028805e+00
1.00028474e+00
1.00028250e+00
1.00028091e+00
1.00027900e+00
1.00027746e+00
1.00027647e+00
1.00027556e+00
1.00027464e+00
1.00027382e+00
1.00027298e+00
1.00027198e+00
1.00027076e+00
1.00026925e+00
1.00026736e+00
1.00026502e+00
1.00026217e+00
1.00025876e+00
1.00025474e+00
1.00025010e+00
1.00024485e+00
1.00023899e+00
1.00023257e+00
1.00022566e+00
1.00021834e+00
1.00021073e+00
1.00020297e+00
1.00019521e+00
1.00018762e+00
1.00018040e+00
1.00017375e+00
1.00016787e+00
1.00016297e+00
1.00015925e+00
1.00015690e+00
1.00015609e+00
1.00015694e+00
1.00015958e+00
1.00016405e+00
1.00017039e+00
1.00017857e+00
1.00018848e+00
1.00020001e+00
1.00021296e+00
1.00022708e+00
1.00024209e+00
1.00025768e+00
1.00027347e+00
1.00028911e+00
1.00030420e+00
1.00031838e+00
1.00033128e+00
1.00034257e+00
1.00035198e+00
1.00035926e+00
1.00036425e+00
1.00036684e+00
1.00036701e+00
1.00036481e+00
1.00036036e+00
1.00035385e+00
1.00034553e+00
1.00033572e+00
1.00032476e+00
1.00031304e+00
1.00030094e+00
1.00028886e+00
1.00027718e+00
1.00026623e+00
1.00025633e+00
1.00024771e+00
1.00024056e+00
1.00023500e+00
1.00023105e+00
1.00022870e+00
1.00022784e+00
1.00022832e+00
1.00022991e+00
1.00023236e+00
1.00023539e+00
1.00023870e+00
1.00024199e+00
1.00024497e+00
1.00024738e+00
1.00024898e+00
1.00024959e+00
1.00024907e+00
1.00024731e+00
1.00024429e+00
1.00024000e+00
1.00023450e+00
1.00022786e+00
1.00022021e+00
1.00021169e+00
1.00020246e+00
1.00019267e+00
1.00018250e+00
1.00017212e+00
1.00016166e+00
1.00015128e+00
1.00014109e+00
1.00013121e+00
1.00012171e+00
1.00011268e+00
1.00010415e+00
1.00009616e+00
1.00008872e+00
1.00008184e+00
1.00007551e+00
1.00006970e+00
1.00006435e+00
1.00005945e+00
1.00005497e+00
1.00005078e+00
1.00004681e+00
1.00004318e+00
1.00003980e+00
1.00003618e+00
1.00003253e+00
1.00002958e+00
1.00002629e+00
1.00002217e+00
1.00001885e+00
1.00001534e+00
1.00001288e+00
1.00029540e+00
1.00029265e+00
1.00028995e+00
1.00028624e+00
1.00028320e+00
1.00028138e+00
1.00027906e+00
1.00027683e+00
1.00027535e+00
1.00027400e+00
1.00027258e+00
1.00027134e+00
1.00027019e+00
1.00026895e+00
1.00026756e+00
1.00026600e+00
1.00026417e+00
1.00026199e+00
1.00025940e+00
1.00025635e+00
1.00025278e+00
1.00024866e+00
1.00024397e+00
1.00023871e+00
1.00023290e+00
1.00022657e+00
1.00021980e+00
1.00021267e+00
1.00020527e+00
1.00019775e+00
1.00019026e+00
1.00018295e+00
1.00017602e+00
1.00016965e+00
1.00016406e+00
1.00015942e+00
1.00015595e+00
1.00015381e+00
1.00015318e+00
1.00015418e+00
1.00015691e+00
1.00016144e+00
1.00016778e+00
1.00017591e+00
1.00018574e+00
1.00019714e+00
1.00020993e+00
1.00022386e+00
1.00023866e+00
1.00025402e+00
1.00026960e+00
1.00028503e+00
1.00029993e+00
1.00031396e+00
1.00032675e+00
1.00033799e+00
1.00034740e+00
1.00035476e+00
1.00035989e+00
1.00036271e+00
1.00036317e+00
1.00036134e+00
1.00035732e+00
1.00035131e+00
1.00034355e+00
1.00033435e+00
1.00032404e+00
1.00031300e+00
1.00030160e+00
1.00029024e+00
1.00027928e+00
1.00026904e+00
1.00025984e+00
1.00025189e+00
1.00024539e+00
1.00024043e+00
1.00023706e+00
1.00023523e+00
1.00023485e+00
1.00023576e+00
1.00023774e+00
1.00024054e+00
1.00024387e+00
1.00024745e+00
1.00025097e+00
1.00025416e+00
1.00025675e+00
1.00025852e+00
1.00025927e+00
1.00025888e+00
1.00025724e+00
1.00025432e+00
1.00025012e+00
1.00024468e+00
1.00023809e+00
1.00023047e+00
1.00022194e+00
1.00021266e+00
1.00020280e+00
1.00019250e+00
1.00018194e+00
1.00017126e+00
1.00016059e+00
1.00015006e+00
1.00013978e+00
1.00012983e+00
1.00012027e+00
1.00011117e+00
1.00010255e+00
1.00009444e+00
1.00008685e+00
1.00007976e+00
1.00007317e+00
1.00006704e+00
1.00006132e+00
1.00005601e+00
1.00005111e+00
1.00004642e+00
1.00004190e+00
1.00003781e+00
1.00003396e+00
1.00002969e+00
1.00002569e+00
1.00002260e+00
1.00001855e+00
1.00001410e+00
1.00001118e+00
1.00000862e+00
1.00029495e+00
1.00029155e+00
1.00028802e+00
1.00028486e+00
1.00028224e+00
1.00027944e+00
1.00027682e+00
1.00027487e+00
1.00027294e+00
1.00027096e+00
1.00026925e+00
1.00026769e+00
1.00026605e+00
1.00026435e+00
1.00026259e+00
1.00026066e+00
1.00025846e+00
1.00025596e+00
1.00025311e+00
1.00024984e+00
1.00024610e+00
1.00024187e+00
1.00023714e+00
1.00023189e+00
1.00022614e+00
1.00021994e+00
1.00021334e+00
1.00020642e+00
1.00019928e+00
1.00019205e+00
1.00018487e+00
1.00017790e+00
1.00017131e+00
1.00016529e+00
1.00016003e+00
1.00015572e+00
1.00015254e+00
1.00015067e+00
1.00015026e+00
1.00015144e+00
1.00015431e+00
1.00015892e+00
1.00016530e+00
1.00017340e+00
1.00018315e+00
1.00019443e+00
1.00020705e+00
1.00022078e+00
1.00023536e+00
1.00025048e+00
1.00026581e+00
1.00028099e+00
1.00029568e+00
1.00030952e+00
1.00032217e+00
1.00033332e+00
1.00034270e+00
1.00035009e+00
1.00035534e+00
1.00035834e+00
1.00035908e+00
1.00035759e+00
1.00035399e+00
1.00034847e+00
1.00034126e+00
1.00033267e+00
1.00032302e+00
1.00031267e+00
1.00030200e+00
1.00029137e+00
1.00028116e+00
1.00027167e+00
1.00026320e+00
1.00025598e+00
1.00025017e+00
1.00024588e+00
1.00024313e+00
1.00024189e+00
1.00024205e+00
1.00024346e+00
1.00024590e+00
1.00024912e+00
1.00025283e+00
1.00025676e+00
1.00026059e+00
1.00026407e+00
1.00026692e+00
1.00026892e+00
1.00026989e+00
1.00026969e+00
1.00026823e+00
1.00026547e+00
1.00026140e+00
1.00025607e+00
1.00024957e+00
1.00024199e+00
1.00023347e+00
1.00022415e+00
1.00021420e+00
1.00020377e+00
1.00019300e+00
1.00018206e+00
1.00017106e+00
1.00016014e+00
1.00014940e+00
1.00013891e+00
1.00012877e+00
1.00011901e+00
1.00010967e+00
1.00010080e+00
1.00009240e+00
1.00008446e+00
1.00007698e+00
1.00006996e+00
1.00006337e+00
1.00005713e+00
1.00005127e+00
1.00004583e+00
1.00004061e+00
1.00003548e+00
1.00003081e+00
1.00002651e+00
1.00002190e+00
1.00001749e+00
1.00001365e+00
1.00000961e+00
1.00000558e+00
1.00000217e+00
1.00029374e+00
1.00029027e+00
1.00028658e+00
1.00028352e+00
1.00028050e+00
1.00027739e+00
1.00027484e+00
1.00027245e+00
1.00026995e+00
1.00026770e+00
1.00026564e+00
1.00026353e+00
1.00026140e+00
1.00025930e+00
1.00025710e+00
1.00025473e+00
1.00025215e+00
1.00024933e+00
1.00024619e+00
1.00024268e+00
1.00023878e+00
1.00023444e+00
1.00022966e+00
1.00022443e+00
1.00021876e+00
1.00021270e+00
1.00020630e+00
1.00019963e+00
1.00019278e+00
1.00018588e+00
1.00017905e+00
1.00017245e+00
1.00016625e+00
1.00016063e+00
1.00015575e+00
1.00015181e+00
1.00014898e+00
1.00014742e+00
1.00014728e+00
1.00014869e+00
1.00015173e+00
1.00015645e+00
1.00016288e+00
1.00017098e+00
1.00018068e+00
1.00019184e+00
1.00020429e+00
1.00021782e+00
1.00023216e+00
1.00024702e+00
1.00026208e+00
1.00027701e+00
1.00029145e+00
1.00030507e+00
1.00031753e+00
1.00032856e+00
1.00033787e+00
1.00034527e+00
1.00035060e+00
1.00035377e+00
1.00035474e+00
1.00035358e+00
1.00035039e+00
1.00034534e+00
1.00033869e+00
1.00033070e+00
1.00032171e+00
1.00031207e+00
1.00030214e+00
1.00029228e+00
1.00028284e+00
1.00027414e+00
1.00026644e+00
1.00025998e+00
1.00025491e+00
1.00025133e+00
1.00024927e+00
1.00024867e+00
1.00024945e+00
1.00025143e+00
1.00025439e+00
1.00025810e+00
1.00026227e+00
1.00026661e+00
1.00027084e+00
1.00027467e+00
1.00027785e+00
1.00028016e+00
1.00028141e+00
1.00028147e+00
1.00028024e+00
1.00027768e+00
1.00027379e+00
1.00026861e+00
1.00026220e+00
1.00025469e+00
1.00024618e+00
1.00023683e+00
1.00022678e+00
1.00021618e+00
1.00020519e+00
1.00019395e+00
1.00018258e+00
1.00017121e+00
1.00015994e+00
1.00014887e+00
1.00013805e+00
1.00012757e+00
1.00011744e+00
1.00010772e+00
1.00009841e+00
1.00008955e+00
1.00008110e+00
1.00007308e+00
1.00006550e+00
1.00005832e+00
1.00005146e+00
1.00004499e+00
1.00003896e+00
1.00003315e+00
1.00002748e+00
1.00002237e+00
1.00001751e+00
1.00001248e+00
1.00000796e+00
1.00000381e+00
9.99999424e-01
9.99995769e-01
1.00029206e+00
1.00028875e+00
1.00028525e+00
1.00028177e+00
1.00027839e+00
1.00027539e+00
1.00027249e+00
1.00026950e+00
1.00026674e+00
1.00026416e+00
1.00026151e+00
1.00025889e+00
1.00025635e+00
1.00025377e+00
1.00025108e+00
1.00024827e+00
1.00024532e+00
1.00024214e+00
1.00023869e+00
1.00023495e+00
1.00023086e+00
1.00022642e+00
1.00022159e+00
1.00021638e+00
1.00021081e+00
1.00020490e+00
1.00019871e+00
1.00019230e+00
1.00018577e+00
1.00017923e+00
1.00017279e+00
1.00016661e+00
1.00016084e+00
1.00015564e+00
1.00015119e+00
1.00014766e+00
1.00014522e+00
1.00014402e+00
1.00014419e+00
1.00014586e+00
1.00014911e+00
1.00015399e+00
1.00016050e+00
1.00016862e+00
1.00017827e+00
1.00018933e+00
1.00020163e+00
1.00021495e+00
1.00022906e+00
1.00024365e+00
1.00025843e+00
1.00027307e+00
1.00028724e+00
1.00030061e+00
1.00031287e+00
1.00032374e+00
1.00033296e+00
1.00034033e+00
1.00034571e+00
1.00034901e+00
1.00035021e+00
1.00034935e+00
1.00034654e+00
1.00034196e+00
1.00033585e+00
1.00032847e+00
1.00032014e+00
1.00031122e+00
1.00030204e+00
1.00029297e+00
1.00028433e+00
1.00027644e+00
1.00026956e+00
1.00026390e+00
1.00025962e+00
1.00025680e+00
1.00025547e+00
1.00025559e+00
1.00025703e+00
1.00025964e+00
1.00026320e+00
1.00026747e+00
1.00027216e+00
1.00027699e+00
1.00028167e+00
1.00028593e+00
1.00028950e+00
1.00029218e+00
1.00029377e+00
1.00029414e+00
1.00029320e+00
1.00029089e+00
1.00028721e+00
1.00028219e+00
1.00027591e+00
1.00026847e+00
1.00025997e+00
1.00025057e+00
1.00024041e+00
1.00022963e+00
1.00021838e+00
1.00020679e+00
1.00019501e+00
1.00018314e+00
1.00017130e+00
1.00015957e+00
1.00014803e+00
1.00013673e+00
1.00012575e+00
1.00011511e+00
1.00010483e+00
1.00009495e+00
1.00008548e+00
1.00007641e+00
1.00006773e+00
1.00005950e+00
1.00005168e+00
1.00004417e+00
1.00003706e+00
1.00003046e+00
1.00002412e+00
1.00001799e+00
1.00001243e+00
1.00000721e+00
1.00000204e+00
9.99997204e-01
9.99992812e-01
9.99989172e-01
1.00029033e+00
1.00028692e+00
1.00028335e+00
1.00027972e+00
1.00027625e+00
1.00027296e+00
1.00026959e+00
1.00026633e+00
1.00026323e+00
1.00026009e+00
1.00025695e+00
1.00025391e+00
1.00025086e+00
1.00024775e+00
1.00024459e+00
1.00024136e+00
1.00023799e+00
1.00023444e+00
1.00023069e+00
1.00022670e+00
1.00022243e+00
1.00021786e+00
1.00021299e+00
1.00020781e+00
1.00020233e+00
1.00019658e+00
1.00019061e+00
1.00018449e+00
1.00017829e+00
1.00017212e+00
1.00016609e+00
1.00016035e+00
1.00015504e+00
1.00015030e+00
1.00014632e+00
1.00014324e+00
1.00014122e+00
1.00014041e+00
1.00014094e+00
1.00014291e+00
1.00014640e+00
1.00015146e+00
1.00015809e+00
1.00016626e+00
1.00017590e+00
1.00018687e+00
1.00019903e+00
1.00021216e+00
1.00022602e+00
1.00024035e+00
1.00025484e+00
1.00026918e+00
1.00028307e+00
1.00029617e+00
1.00030820e+00
1.00031888e+00
1.00032798e+00
1.00033530e+00
1.00034070e+00
1.00034411e+00
1.00034550e+00
1.00034492e+00
1.00034248e+00
1.00033835e+00
1.00033277e+00
1.00032599e+00
1.00031834e+00
1.00031013e+00
1.00030173e+00
1.00029346e+00
1.00028565e+00
1.00027860e+00
1.00027257e+00
1.00026775e+00
1.00026430e+00
1.00026230e+00
1.00026176e+00
1.00026263e+00
1.00026480e+00
1.00026810e+00
1.00027232e+00
1.00027720e+00
1.00028248e+00
1.00028786e+00
1.00029306e+00
1.00029780e+00
1.00030183e+00
1.00030493e+00
1.00030692e+00
1.00030764e+00
1.00030702e+00
1.00030499e+00
1.00030155e+00
1.00029672e+00
1.00029058e+00
1.00028321e+00
1.00027473e+00
1.00026527e+00
1.00025497e+00
1.00024397e+00
1.00023243e+00
1.00022047e+00
1.00020822e+00
1.00019580e+00
1.00018333e+00
1.00017088e+00
1.00015855e+00
1.00014640e+00
1.00013449e+00
1.00012287e+00
1.00011157e+00
1.00010062e+00
1.00009005e+00
1.00007988e+00
1.00007011e+00
1.00006073e+00
1.00005182e+00
1.00004334e+00
1.00003522e+00
1.00002756e+00
1.00002044e+00
1.00001364e+00
1.00000722e+00
1.00000139e+00
9.99995857e-01
9.99990624e-01
9.99985952e-01
9.99982037e-01
1.00028821e+00
1.00028471e+00
1.00028100e+00
1.00027734e+00
1.00027370e+00
1.00027001e+00
1.00026637e+00
1.00026283e+00
1.00025922e+00
1.00025559e+00
1.00025204e+00
1.00024850e+00
1.00024490e+00
1.00024131e+00
1.00023770e+00
1.00023400e+00
1.00023021e+00
1.00022630e+00
1.00022224e+00
1.00021799e+00
1.00021354e+00
1.00020885e+00
1.00020393e+00
1.00019877e+00
1.00019338e+00
1.00018779e+00
1.00018205e+00
1.00017621e+00
1.00017035e+00
1.00016456e+00
1.00015896e+00
1.00015367e+00
1.00014884e+00
1.00014459e+00
1.00014110e+00
1.00013849e+00
1.00013694e+00
1.00013655e+00
1.00013747e+00
1.00013978e+00
1.00014355e+00
1.00014882e+00
1.00015560e+00
1.00016385e+00
1.00017350e+00
1.00018441e+00
1.00019645e+00
1.00020940e+00
1.00022304e+00
1.00023710e+00
1.00025130e+00
1.00026534e+00
1.00027893e+00
1.00029175e+00
1.00030353e+00
1.00031401e+00
1.00032296e+00
1.00033020e+00
1.00033560e+00
1.00033909e+00
1.00034065e+00
1.00034033e+00
1.00033824e+00
1.00033456e+00
1.00032949e+00
1.00032332e+00
1.00031633e+00
1.00030885e+00
1.00030122e+00
1.00029377e+00
1.00028682e+00
1.00028064e+00
1.00027548e+00
1.00027155e+00
1.00026897e+00
1.00026782e+00
1.00026812e+00
1.00026980e+00
1.00027275e+00
1.00027679e+00
1.00028172e+00
1.00028728e+00
1.00029320e+00
1.00029919e+00
1.00030496e+00
1.00031024e+00
1.00031478e+00
1.00031835e+00
1.00032077e+00
1.00032189e+00
1.00032162e+00
1.00031990e+00
1.00031671e+00
1.00031209e+00
1.00030609e+00
1.00029879e+00
1.00029031e+00
1.00028077e+00
1.00027032e+00
1.00025908e+00
1.00024720e+00
1.00023482e+00
1.00022207e+00
1.00020906e+00
1.00019590e+00
1.00018269e+00
1.00016952e+00
1.00015647e+00
1.00014358e+00
1.00013093e+00
1.00011856e+00
1.00010651e+00
1.00009480e+00
1.00008347e+00
1.00007257e+00
1.00006208e+00
1.00005201e+00
1.00004246e+00
1.00003340e+00
1.00002475e+00
1.00001665e+00
1.00000916e+00
1.00000209e+00
9.99995502e-01
9.99989513e-01
9.99984015e-01
9.99978988e-01
9.99974809e-01
1.00028545e+00
1.00028198e+00
1.00027826e+00
1.00027445e+00
1.00027058e+00
1.00026666e+00
1.00026275e+00
1.00025878e+00
1.00025474e+00
1.00025073e+00
1.00024670e+00
1.00024262e+00
1.00023856e+00
1.00023449e+00
1.00023039e+00
1.00022625e+00
1.00022206e+00
1.00021778e+00
1.00021340e+00
1.00020890e+00
1.00020425e+00
1.00019945e+00
1.00019447e+00
1.00018932e+00
1.00018401e+00
1.00017858e+00
1.00017305e+00
1.00016749e+00
1.00016196e+00
1.00015656e+00
1.00015139e+00
1.00014657e+00
1.00014222e+00
1.00013848e+00
1.00013548e+00
1.00013338e+00
1.00013231e+00
1.00013238e+00
1.00013371e+00
1.00013639e+00
1.00014048e+00
1.00014600e+00
1.00015297e+00
1.00016133e+00
1.00017101e+00
1.00018190e+00
1.00019384e+00
1.00020663e+00
1.00022006e+00
1.00023387e+00
1.00024779e+00
1.00026154e+00
1.00027482e+00
1.00028736e+00
1.00029888e+00
1.00030913e+00
1.00031792e+00
1.00032506e+00
1.00033044e+00
1.00033398e+00
1.00033569e+00
1.00033562e+00
1.00033386e+00
1.00033060e+00
1.00032605e+00
1.00032047e+00
1.00031415e+00
1.00030740e+00
1.00030056e+00
1.00029395e+00
1.00028786e+00
1.00028258e+00
1.00027833e+00
1.00027531e+00
1.00027364e+00
1.00027339e+00
1.00027456e+00
1.00027710e+00
1.00028087e+00
1.00028571e+00
1.00029140e+00
1.00029769e+00
1.00030430e+00
1.00031094e+00
1.00031734e+00
1.00032320e+00
1.00032828e+00
1.00033236e+00
1.00033525e+00
1.00033680e+00
1.00033690e+00
1.00033551e+00
1.00033259e+00
1.00032818e+00
1.00032231e+00
1.00031508e+00
1.00030659e+00
1.00029695e+00
1.00028631e+00
1.00027480e+00
1.00026256e+00
1.00024972e+00
1.00023641e+00
1.00022277e+00
1.00020889e+00
1.00019488e+00
1.00018083e+00
1.00016682e+00
1.00015293e+00
1.00013922e+00
1.00012574e+00
1.00011255e+00
1.00009970e+00
1.00008721e+00
1.00007513e+00
1.00006351e+00
1.00005236e+00
1.00004168e+00
1.00003159e+00
1.00002206e+00
1.00001305e+00
1.00000469e+00
9.99996979e-01
9.99989829e-01
9.99983302e-01
9.99977423e-01
9.99972178e-01
9.99967860e-01
1.00028210e+00
1.00027866e+00
1.00027493e+00
1.00027099e+00
1.00026693e+00
1.00026281e+00
1.00025857e+00
1.00025422e+00
1.00024983e+00
1.00024540e+00
1.00024088e+00
1.00023635e+00
1.00023183e+00
1.00022729e+00
1.00022273e+00
1.00021816e+00
1.00021357e+00
1.00020893e+00
1.00020425e+00
1.00019949e+00
1.00019464e+00
1.00018970e+00
1.00018466e+00
1.00017951e+00
1.00017428e+00
1.00016898e+00
1.00016366e+00
1.00015836e+00
1.00015316e+00
1.00014814e+00
1.00014339e+00
1.00013902e+00
1.00013516e+00
1.00013192e+00
1.00012945e+00
1.00012786e+00
1.00012729e+00
1.00012784e+00
1.00012961e+00
1.00013269e+00
1.00013712e+00
1.00014294e+00
1.00015012e+00
1.00015863e+00
1.00016839e+00
1.00017929e+00
1.00019116e+00
1.00020382e+00
1.00021707e+00
1.00023064e+00
1.00024430e+00
1.00025775e+00
1.00027074e+00
1.00028299e+00
1.00029424e+00
1.00030427e+00
1.00031288e+00
1.00031991e+00
1.00032524e+00
1.00032883e+00
1.00033067e+00
1.00033082e+00
1.00032938e+00
1.00032653e+00
1.00032248e+00
1.00031748e+00
1.00031183e+00
1.00030582e+00
1.00029978e+00
1.00029401e+00
1.00028881e+00
1.00028444e+00
1.00028113e+00
1.00027905e+00
1.00027832e+00
1.00027901e+00
1.00028110e+00
1.00028452e+00
1.00028916e+00
1.00029484e+00
1.00030134e+00
1.00030839e+00
1.00031573e+00
1.00032307e+00
1.00033012e+00
1.00033661e+00
1.00034227e+00
1.00034689e+00
1.00035027e+00
1.00035227e+00
1.00035277e+00
1.00035171e+00
1.00034907e+00
1.00034486e+00
1.00033913e+00
1.00033195e+00
1.00032342e+00
1.00031367e+00
1.00030282e+00
1.00029100e+00
1.00027835e+00
1.00026502e+00
1.00025113e+00
1.00023681e+00
1.00022217e+00
1.00020732e+00
1.00019236e+00
1.00017738e+00
1.00016245e+00
1.00014767e+00
1.00013307e+00
1.00011874e+00
1.00010472e+00
1.00009108e+00
1.00007784e+00
1.00006507e+00
1.00005283e+00
1.00004112e+00
1.00002998e+00
1.00001951e+00
1.00000969e+00
1.00000052e+00
9.99992095e-01
9.99984413e-01
9.99977415e-01
9.99971151e-01
9.99965703e-01
9.99961256e-01
1.00027810e+00
1.00027466e+00
1.00027091e+00
1.00026689e+00
1.00026269e+00
1.00025833e+00
1.00025381e+00
1.00024917e+00
1.00024443e+00
1.00023956e+00
1.00023464e+00
1.00022970e+00
1.00022472e+00
1.00021972e+00
1.00021475e+00
1.00020977e+00
1.00020479e+00
1.00019981e+00
1.00019482e+00
1.00018981e+00
1.00018476e+00
1.00017968e+00
1.00017456e+00
1.00016940e+00
1.00016422e+00
1.00015904e+00
1.00015390e+00
1.00014884e+00
1.00014395e+00
1.00013928e+00
1.00013494e+00
1.00013102e+00
1.00012764e+00
1.00012491e+00
1.00012295e+00
1.00012188e+00
1.00012182e+00
1.00012287e+00
1.00012511e+00
1.00012862e+00
1.00013343e+00
1.00013956e+00
1.00014700e+00
1.00015570e+00
1.00016557e+00
1.00017650e+00
1.00018835e+00
1.00020092e+00
1.00021400e+00
1.00022737e+00
1.00024078e+00
1.00025397e+00
1.00026667e+00
1.00027864e+00
1.00028963e+00
1.00029943e+00
1.00030785e+00
1.00031475e+00
1.00032004e+00
1.00032365e+00
1.00032561e+00
1.00032596e+00
1.00032483e+00
1.00032238e+00
1.00031882e+00
1.00031440e+00
1.00030941e+00
1.00030414e+00
1.00029890e+00
1.00029399e+00
1.00028969e+00
1.00028625e+00
1.00028390e+00
1.00028279e+00
1.00028303e+00
1.00028468e+00
1.00028772e+00
1.00029207e+00
1.00029762e+00
1.00030417e+00
1.00031150e+00
1.00031936e+00
1.00032746e+00
1.00033553e+00
1.00034327e+00
1.00035040e+00
1.00035667e+00
1.00036184e+00
1.00036574e+00
1.00036819e+00
1.00036910e+00
1.00036838e+00
1.00036602e+00
1.00036201e+00
1.00035640e+00
1.00034926e+00
1.00034068e+00
1.00033078e+00
1.00031969e+00
1.00030754e+00
1.00029446e+00
1.00028061e+00
1.00026610e+00
1.00025107e+00
1.00023564e+00
1.00021993e+00
1.00020404e+00
1.00018807e+00
1.00017210e+00
1.00015623e+00
1.00014052e+00
1.00012505e+00
1.00010989e+00
1.00009510e+00
1.00008074e+00
1.00006686e+00
1.00005352e+00
1.00004080e+00
1.00002870e+00
1.00001729e+00
1.00000664e+00
9.99996765e-01
9.99987671e-01
9.99979417e-01
9.99971996e-01
9.99965426e-01
9.99959764e-01
9.99955165e-01
1.00027334e+00
1.00026993e+00
1.00026618e+00
1.00026210e+00
1.00025776e+00
1.00025321e+00
1.00024846e+00
1.00024355e+00
1.00023846e+00
1.00023325e+00
1.00022797e+00
1.00022262e+00
1.00021723e+00
1.00021184e+00
1.00020647e+00
1.00020110e+00
1.00019576e+00
1.00019045e+00
1.00018517e+00
1.00017990e+00
1.00017466e+00
1.00016943e+00
1.00016421e+00
1.00015902e+00
1.00015387e+00
1.00014878e+00
1.00014380e+00
1.00013896e+00
1.00013434e+00
1.00013001e+00
1.00012604e+00
1.00012255e+00
1.00011963e+00
1.00011739e+00
1.00011595e+00
1.00011540e+00
1.00011586e+00
1.00011742e+00
1.00012014e+00
1.00012410e+00
1.00012931e+00
1.00013580e+00
1.00014353e+00
1.00015245e+00
1.00016248e+00
1.00017349e+00
1.00018535e+00
1.00019786e+00
1.00021083e+00
1.00022402e+00
1.00023722e+00
1.00025016e+00
1.00026260e+00
1.00027430e+00
1.00028503e+00
1.00029461e+00
1.00030285e+00
1.00030962e+00
1.00031484e+00
1.00031848e+00
1.00032054e+00
1.00032109e+00
1.00032025e+00
1.00031818e+00
1.00031511e+00