# vtk DataFile Version 2.0
LBM Flow Field - Timestep 1840
ASCII
DATASET STRUCTURED_POINTS
DIMENSIONS 128 128 1
ORIGIN 0.0 0.0 0.0
SPACING 1.0 1.0 1.0
POINT_DATA 16384
SCALARS density double 1
LOOKUP_TABLE default
9.97975468e-01
9.97965493e-01
9.97957675e-01
9.97972408e-01
9.97991726e-01
9.98012112e-01
9.98038516e-01
9.98070857e-01
9.98106607e-01
9.98146043e-01
9.98189772e-01
9.98237226e-01
9.98287875e-01
9.98341666e-01
9.98398381e-01
9.98457618e-01
9.98519047e-01
9.98582387e-01
9.98647288e-01
9.98713380e-01
9.98780310e-01
9.98847719e-01
9.98915233e-01
9.98982484e-01
9.99049107e-01
9.99114747e-01
9.99179055e-01
9.99241704e-01
9.99302384e-01
9.99360811e-01
9.99416733e-01
9.99469931e-01
9.99520225e-01
9.99567480e-01
9.99611603e-01
9.99652553e-01
9.99690337e-01
9.99725012e-01
9.99756685e-01
9.99785510e-01
9.99811688e-01
9.99835457e-01
9.99857093e-01
9.99876902e-01
9.99895213e-01
9.99912370e-01
9.99928725e-01
9.99944632e-01
9.99960437e-01
9.99976472e-01
9.99993044e-01
1.00001044e+00
1.00002889e+00
1.00004863e+00
1.00006980e+00
1.00009254e+00
1.00011693e+00
1.00014298e+00
1.00017069e+00
1.00019999e+00
1.00023079e+00
1.00026295e+00
1.00029631e+00
1.00033066e+00
1.00036580e+00
1.00040150e+00
1.00043750e+00
1.00047358e+00
1.00050950e+00
1.00054502e+00
1.00057994e+00
1.00061406e+00
1.00064721e+00
1.00067926e+00
1.00071008e+00
1.00073961e+00
1.00076781e+00
1.00079466e+00
1.00082019e+00
1.00084447e+00
1.00086758e+00
1.00088967e+00
1.00091087e+00
1.00093137e+00
1.00095137e+00
1.00097109e+00
1.00099077e+00
1.00101066e+00
1.00103100e+00
1.00105205e+00
1.00107406e+00
1.00109727e+00
1.00112191e+00
1.00114818e+00
1.00117627e+00
1.00120633e+00
1.00123849e+00
1.00127282e+00
1.00130937e+00
1.00134814e+00
1.00138908e+00
1.00143210e+00
1.00147707e+00
1.00152381e+00
1.00157210e+00
1.00162167e+00
1.00167225e+00
1.00172352e+00
1.00177513e+00
1.00182675e+00
1.00187801e+00
1.00192854e+00
1.00197796e+00
1.00202599e+00
1.00207226e+00
1.00211636e+00
1.00215805e+00
1.00219726e+00
1.00223349e+00
1.00226623e+00
1.00229598e+00
1.00232293e+00
1.00234504e+00
1.00236226e+00
1.00237838e+00
1.00239050e+00
1.00238536e+00
1.00237829e+00
9.97964639e-01
9.97965684e-01
9.97965036e-01
9.97977567e-01
9.97995088e-01
9.98016763e-01
9.98043185e-01
9.98074678e-01
9.98110277e-01
9.98149828e-01
9.98193255e-01
9.98240362e-01
9.98290808e-01
9.98344352e-01
9.98400724e-01
9.98459626e-01
9.98520733e-01
9.98583723e-01
9.98648258e-01
9.98713990e-01
9.98780562e-01
9.98847613e-01
9.98914778e-01
9.98981693e-01
9.99047997e-01
9.99113337e-01
9.99177371e-01
9.99239774e-01
9.99300238e-01
9.99358485e-01
9.99414263e-01
9.99467355e-01
9.99517584e-01
9.99564813e-01
9.99608952e-01
9.99649957e-01
9.99687833e-01
9.99722636e-01
9.99754469e-01
9.99783482e-01
9.99809870e-01
9.99833869e-01
9.99855749e-01
9.99875809e-01
9.99894374e-01
9.99911781e-01
9.99928379e-01
9.99944515e-01
9.99960532e-01
9.99976756e-01
9.99993494e-01
1.00001102e+00
1.00002959e+00
1.00004941e+00
1.00007063e+00
1.00009339e+00
1.00011777e+00
1.00014379e+00
1.00017144e+00
1.00020067e+00
1.00023138e+00
1.00026344e+00
1.00029669e+00
1.00033093e+00
1.00036595e+00
1.00040154e+00
1.00043744e+00
1.00047343e+00
1.00050926e+00
1.00054472e+00
1.00057959e+00
1.00061368e+00
1.00064681e+00
1.00067886e+00
1.00070971e+00
1.00073927e+00
1.00076752e+00
1.00079443e+00
1.00082004e+00
1.00084441e+00
1.00086762e+00
1.00088981e+00
1.00091113e+00
1.00093175e+00
1.00095187e+00
1.00097173e+00
1.00099154e+00
1.00101156e+00
1.00103204e+00
1.00105323e+00
1.00107538e+00
1.00109872e+00
1.00112348e+00
1.00114987e+00
1.00117806e+00
1.00120820e+00
1.00124042e+00
1.00127478e+00
1.00131134e+00
1.00135009e+00
1.00139097e+00
1.00143390e+00
1.00147874e+00
1.00152531e+00
1.00157338e+00
1.00162272e+00
1.00167303e+00
1.00172399e+00
1.00177529e+00
1.00182656e+00
1.00187746e+00
1.00192763e+00
1.00197672e+00
1.00202438e+00
1.00207027e+00
1.00211408e+00
1.00215554e+00
1.00219438e+00
1.00223029e+00
1.00226306e+00
1.00229264e+00
1.00231886e+00
1.00234095e+00
1.00235909e+00
1.00237384e+00
1.00238441e+00
1.00238493e+00
1.00238613e+00
9.97953499e-01
9.97961556e-01
9.97975738e-01
9.97984168e-01
9.97998443e-01
9.98022234e-01
9.98049501e-01
9.98079777e-01
9.98115047e-01
9.98154829e-01
9.98198011e-01
9.98244685e-01
9.98294894e-01
9.98348188e-01
9.98404204e-01
9.98462746e-01
9.98523516e-01
9.98586147e-01
9.98650310e-01
9.98715678e-01
9.98781893e-01
9.98848591e-01
9.98915417e-01
9.98982012e-01
9.99048016e-01
9.99113081e-01
9.99176868e-01
9.99239054e-01
9.99299336e-01
9.99357435e-01
9.99413102e-01
9.99466122e-01
9.99516316e-01
9.99563548e-01
9.99607726e-01
9.99648804e-01
9.99686784e-01
9.99721719e-01
9.99753709e-01
9.99782898e-01
9.99809478e-01
9.99833679e-01
9.99855765e-01
9.99876031e-01
9.99894796e-01
9.99912393e-01
9.99929166e-01
9.99945458e-01
9.99961607e-01
9.99977939e-01
9.99994756e-01
1.00001234e+00
1.00003092e+00
1.00005073e+00
1.00007192e+00
1.00009461e+00
1.00011890e+00
1.00014480e+00
1.00017233e+00
1.00020141e+00
1.00023196e+00
1.00026385e+00
1.00029693e+00
1.00033100e+00
1.00036587e+00
1.00040129e+00
1.00043705e+00
1.00047291e+00
1.00050863e+00
1.00054399e+00
1.00057878e+00
1.00061280e+00
1.00064590e+00
1.00067792e+00
1.00070875e+00
1.00073832e+00
1.00076658e+00
1.00079352e+00
1.00081917e+00
1.00084358e+00
1.00086685e+00
1.00088910e+00
1.00091048e+00
1.00093117e+00
1.00095137e+00
1.00097130e+00
1.00099120e+00
1.00101131e+00
1.00103188e+00
1.00105316e+00
1.00107541e+00
1.00109884e+00
1.00112370e+00
1.00115017e+00
1.00117845e+00
1.00120867e+00
1.00124094e+00
1.00127535e+00
1.00131193e+00
1.00135067e+00
1.00139152e+00
1.00143439e+00
1.00147914e+00
1.00152558e+00
1.00157350e+00
1.00162264e+00
1.00167272e+00
1.00172343e+00
1.00177445e+00
1.00182542e+00
1.00187600e+00
1.00192585e+00
1.00197461e+00
1.00202193e+00
1.00206747e+00
1.00211102e+00
1.00215223e+00
1.00219064e+00
1.00222630e+00
1.00225923e+00
1.00228849e+00
1.00231367e+00
1.00233638e+00
1.00235615e+00
1.00236837e+00
1.00237593e+00
1.00238762e+00
1.00239431e+00
9.97961357e-01
9.97967118e-01
9.97977664e-01
9.97989465e-01
9.98007271e-01
9.98029295e-01
9.98055490e-01
9.98086507e-01
9.98121855e-01
9.98160974e-01
9.98203890e-01
9.98250463e-01
9.98300331e-01
9.98353225e-01
9.98408928e-01
9.98467134e-01
9.98527516e-01
9.98589769e-01
9.98653567e-01
9.98718564e-01
9.98784412e-01
9.98850761e-01
9.98917253e-01
9.98983532e-01
9.99049245e-01
9.99114045e-01
9.99177597e-01
9.99239581e-01
9.99299695e-01
9.99357663e-01
9.99413237e-01
9.99466202e-01
9.99516379e-01
9.99563630e-01
9.99607862e-01
9.99649027e-01
9.99687124e-01
9.99722202e-01
9.99754356e-01
9.99783728e-01
9.99810501e-01
9.99834902e-01
9.99857189e-01
9.99877651e-01
9.99896602e-01
9.99914369e-01
9.99931291e-01
9.99947707e-01
9.99963952e-01
9.99980347e-01
9.99997193e-01
1.00001477e+00
1.00003331e+00
1.00005304e+00
1.00007411e+00
1.00009666e+00
1.00012077e+00
1.00014647e+00
1.00017376e+00
1.00020259e+00
1.00023288e+00
1.00026450e+00
1.00029731e+00
1.00033110e+00
1.00036569e+00
1.00040086e+00
1.00043637e+00
1.00047199e+00
1.00050750e+00
1.00054267e+00
1.00057728e+00
1.00061116e+00
1.00064413e+00
1.00067604e+00
1.00070680e+00
1.00073631e+00
1.00076453e+00
1.00079145e+00
1.00081708e+00
1.00084150e+00
1.00086479e+00
1.00088706e+00
1.00090848e+00
1.00092922e+00
1.00094948e+00
1.00096947e+00
1.00098944e+00
1.00100963e+00
1.00103028e+00
1.00105165e+00
1.00107398e+00
1.00109752e+00
1.00112246e+00
1.00114903e+00
1.00117739e+00
1.00120768e+00
1.00124002e+00
1.00127448e+00
1.00131109e+00
1.00134984e+00
1.00139068e+00
1.00143350e+00
1.00147818e+00
1.00152451e+00
1.00157230e+00
1.00162128e+00
1.00167117e+00
1.00172166e+00
1.00177243e+00
1.00182314e+00
1.00187345e+00
1.00192300e+00
1.00197146e+00
1.00201850e+00
1.00206379e+00
1.00210700e+00
1.00214791e+00
1.00218624e+00
1.00222167e+00
1.00225404e+00
1.00228333e+00
1.00230911e+00
1.00233098e+00
1.00234935e+00
1.00236422e+00
1.00237448e+00
1.00238364e+00
1.00238864e+00
9.97971319e-01
9.97975607e-01
9.97982799e-01
9.97998076e-01
9.98016846e-01
9.98037279e-01
9.98063591e-01
9.98095146e-01
9.98130051e-01
9.98168654e-01
9.98211434e-01
9.98257769e-01
9.98307215e-01
9.98359727e-01
9.98415081e-01
9.98472891e-01
9.98532857e-01
9.98594706e-01
9.98658104e-01
9.98722699e-01
9.98788157e-01
9.98854133e-01
9.98920270e-01
9.98986216e-01
9.99051624e-01
9.99116150e-01
9.99179461e-01
9.99241239e-01
9.99301187e-01
9.99359029e-01
9.99414518e-01
9.99467438e-01
9.99517611e-01
9.99564897e-01
9.99609202e-01
9.99650475e-01
9.99688711e-01
9.99723954e-01
9.99756295e-01
9.99785870e-01
9.99812857e-01
9.99837475e-01
9.99859978e-01
9.99880646e-01
9.99899788e-01
9.99917724e-01
9.99934789e-01
9.99951315e-01
9.99967634e-01
9.99984062e-01
1.00000090e+00
1.00001842e+00
1.00003686e+00
1.00005644e+00
1.00007732e+00
1.00009964e+00
1.00012348e+00
1.00014887e+00
1.00017583e+00
1.00020431e+00
1.00023422e+00
1.00026545e+00
1.00029785e+00
1.00033125e+00
1.00036545e+00
1.00040023e+00
1.00043537e+00
1.00047065e+00
1.00050583e+00
1.00054069e+00
1.00057504e+00
1.00060867e+00
1.00064143e+00
1.00067316e+00
1.00070376e+00
1.00073314e+00
1.00076126e+00
1.00078810e+00
1.00081368e+00
1.00083806e+00
1.00086133e+00
1.00088361e+00
1.00090504e+00
1.00092581e+00
1.00094611e+00
1.00096616e+00
1.00098620e+00
1.00100646e+00
1.00102720e+00
1.00104866e+00
1.00107110e+00
1.00109473e+00
1.00111979e+00
1.00114646e+00
1.00117492e+00
1.00120531e+00
1.00123773e+00
1.00127226e+00
1.00130892e+00
1.00134770e+00
1.00138855e+00
1.00143135e+00
1.00147597e+00
1.00152222e+00
1.00156989e+00
1.00161872e+00
1.00166844e+00
1.00171873e+00
1.00176927e+00
1.00181973e+00
1.00186978e+00
1.00191906e+00
1.00196722e+00
1.00201398e+00
1.00205901e+00
1.00210194e+00
1.00214252e+00
1.00218069e+00
1.00221603e+00
1.00224798e+00
1.00227695e+00
1.00230317e+00
1.00232508e+00
1.00234226e+00
1.00235799e+00
1.00237084e+00
1.00237733e+00
1.00238128e+00
9.97980115e-01
9.97985667e-01
9.97994849e-01
9.98008449e-01
9.98025628e-01
9.98047876e-01
9.98074688e-01
9.98105005e-01
9.98139549e-01
9.98178375e-01
9.98220778e-01
9.98266525e-01
9.98315640e-01
9.98367826e-01
9.98422708e-01
9.98480049e-01
9.98539592e-01
9.98600999e-01
9.98663940e-01
9.98728099e-01
9.98793139e-01
9.98858709e-01
9.98924463e-01
9.98990055e-01
9.99055139e-01
9.99119375e-01
9.99182435e-01
9.99244003e-01
9.99303783e-01
9.99361501e-01
9.99416910e-01
9.99469796e-01
9.99519978e-01
9.99567316e-01
9.99611713e-01
9.99653113e-01
9.99691509e-01
9.99726939e-01
9.99759489e-01
9.99789287e-01
9.99816507e-01
9.99841359e-01
9.99864089e-01
9.99884972e-01
9.99904308e-01
9.99922412e-01
9.99939610e-01
9.99956231e-01
9.99972600e-01
9.99989029e-01
1.00000582e+00
1.00002323e+00
1.00004152e+00
1.00006089e+00
1.00008151e+00
1.00010351e+00
1.00012699e+00
1.00015198e+00
1.00017850e+00
1.00020651e+00
1.00023593e+00
1.00026666e+00
1.00029855e+00
1.00033143e+00
1.00036512e+00
1.00039940e+00
1.00043406e+00
1.00046887e+00
1.00050362e+00
1.00053808e+00
1.00057206e+00
1.00060536e+00
1.00063781e+00
1.00066928e+00
1.00069965e+00
1.00072884e+00
1.00075679e+00
1.00078350e+00
1.00080899e+00
1.00083329e+00
1.00085651e+00
1.00087876e+00
1.00090019e+00
1.00092097e+00
1.00094130e+00
1.00096140e+00
1.00098149e+00
1.00100183e+00
1.00102266e+00
1.00104422e+00
1.00106676e+00
1.00109051e+00
1.00111569e+00
1.00114248e+00
1.00117106e+00
1.00120156e+00
1.00123409e+00
1.00126871e+00
1.00130544e+00
1.00134427e+00
1.00138514e+00
1.00142793e+00
1.00147252e+00
1.00151871e+00
1.00156628e+00
1.00161498e+00
1.00166453e+00
1.00171463e+00
1.00176495e+00
1.00181517e+00
1.00186495e+00
1.00191396e+00
1.00196186e+00
1.00200830e+00
1.00205301e+00
1.00209574e+00
1.00213612e+00
1.00217385e+00
1.00220891e+00
1.00224110e+00
1.00226981e+00
1.00229506e+00
1.00231739e+00
1.00233600e+00
1.00235053e+00
1.00236207e+00
1.00237006e+00
1.00237489e+00
9.97992745e-01
9.97998176e-01
9.98008134e-01
9.98020652e-01
9.98037890e-01
9.98060642e-01
9.98086749e-01
9.98116705e-01
9.98151322e-01
9.98189776e-01
9.98231605e-01
9.98276992e-01
9.98325748e-01
9.98377428e-01
9.98431802e-01
9.98488678e-01
9.98547734e-01
9.98608635e-01
9.98671087e-01
9.98734775e-01
9.98799354e-01
9.98864484e-01
9.98929827e-01
9.98995040e-01
9.99059779e-01
9.99123708e-01
9.99186505e-01
9.99247854e-01
9.99307462e-01
9.99365056e-01
9.99420390e-01
9.99473249e-01
9.99523452e-01
9.99570856e-01
9.99615361e-01
9.99656907e-01
9.99695483e-01
9.99731121e-01
9.99763899e-01
9.99793942e-01
9.99821412e-01
9.99846514e-01
9.99869485e-01
9.99890592e-01
9.99910126e-01
9.99928396e-01
9.99945720e-01
9.99962420e-01
9.99978816e-01
9.99995217e-01
1.00001192e+00
1.00002918e+00
1.00004725e+00
1.00006635e+00
1.00008663e+00
1.00010824e+00
1.00013127e+00
1.00015577e+00
1.00018176e+00
1.00020919e+00
1.00023802e+00
1.00026813e+00
1.00029939e+00
1.00033164e+00
1.00036469e+00
1.00039836e+00
1.00043242e+00
1.00046667e+00
1.00050087e+00
1.00053483e+00
1.00056834e+00
1.00060121e+00
1.00063328e+00
1.00066440e+00
1.00069447e+00
1.00072340e+00
1.00075114e+00
1.00077766e+00
1.00080300e+00
1.00082719e+00
1.00085033e+00
1.00087252e+00
1.00089392e+00
1.00091470e+00
1.00093504e+00
1.00095518e+00
1.00097534e+00
1.00099575e+00
1.00101667e+00
1.00103834e+00
1.00106100e+00
1.00108488e+00
1.00111018e+00
1.00113711e+00
1.00116583e+00
1.00119646e+00
1.00122911e+00
1.00126383e+00
1.00130066e+00
1.00133955e+00
1.00138046e+00
1.00142327e+00
1.00146784e+00
1.00151397e+00
1.00156146e+00
1.00161003e+00
1.00165943e+00
1.00170934e+00
1.00175945e+00
1.00180943e+00
1.00185894e+00
1.00190766e+00
1.00195528e+00
1.00200145e+00
1.00204584e+00
1.00208825e+00
1.00212841e+00
1.00216592e+00
1.00220059e+00
1.00223254e+00
1.00226134e+00
1.00228634e+00
1.00230818e+00
1.00232721e+00
1.00234173e+00
1.00235242e+00
1.00236098e+00
1.00236565e+00
9.98009030e-01
9.98013511e-01
9.98022227e-01
9.98035417e-01
9.98053161e-01
9.98074673e-01
9.98100405e-01
9.98130794e-01
9.98164933e-01
9.98202621e-01
9.98244166e-01
9.98289245e-01
9.98337400e-01
9.98388509e-01
9.98442414e-01
9.98498765e-01
9.98557247e-01
9.98617608e-01
9.98679543e-01
9.98742711e-01
9.98806788e-01
9.98871448e-01
9.98936352e-01
9.99001157e-01
9.99065528e-01
9.99129135e-01
9.99191655e-01
9.99252776e-01
9.99312207e-01
9.99369677e-01
9.99424940e-01
9.99477779e-01
9.99528013e-01
9.99575497e-01
9.99620125e-01
9.99661836e-01
9.99700611e-01
9.99736477e-01
9.99769505e-01
9.99799811e-01
9.99827551e-01
9.99852919e-01
9.99876144e-01
9.99897485e-01
9.99917223e-01
9.99935659e-01
9.99953102e-01
9.99969870e-01
9.99986274e-01
1.00000262e+00
1.00001919e+00
1.00003626e+00
1.00005407e+00
1.00007283e+00
1.00009271e+00
1.00011385e+00
1.00013635e+00
1.00016026e+00
1.00018561e+00
1.00021237e+00
1.00024049e+00
1.00026986e+00
1.00030038e+00
1.00033188e+00
1.00036419e+00
1.00039712e+00
1.00043047e+00
1.00046403e+00
1.00049759e+00
1.00053093e+00
1.00056387e+00
1.00059622e+00
1.00062781e+00
1.00065851e+00
1.00068821e+00
1.00071681e+00
1.00074426e+00
1.00077055e+00
1.00079569e+00
1.00081973e+00
1.00084275e+00
1.00086486e+00
1.00088621e+00
1.00090697e+00
1.00092733e+00
1.00094750e+00
1.00096772e+00
1.00098821e+00
1.00100923e+00
1.00103101e+00
1.00105380e+00
1.00107782e+00
1.00110328e+00
1.00113036e+00
1.00115922e+00
1.00119000e+00
1.00122279e+00
1.00125764e+00
1.00129457e+00
1.00133356e+00
1.00137452e+00
1.00141736e+00
1.00146192e+00
1.00150801e+00
1.00155541e+00
1.00160388e+00
1.00165312e+00
1.00170285e+00
1.00175274e+00
1.00180247e+00
1.00185173e+00
1.00190017e+00
1.00194746e+00
1.00199334e+00
1.00203748e+00
1.00207953e+00
1.00211931e+00
1.00215667e+00
1.00219120e+00
1.00222260e+00
1.00225108e+00
1.00227649e+00
1.00229807e+00
1.00231613e+00
1.00233106e+00
1.00234229e+00
1.00234982e+00
1.00235369e+00
9.98026589e-01
9.98030895e-01
9.98039208e-01
9.98052413e-01
9.98069698e-01
9.98090816e-01
9.98116596e-01
9.98146501e-01
9.98180000e-01
9.98217410e-01
9.98258568e-01
9.98302999e-01
9.98350577e-01
9.98401192e-01
9.98454515e-01
9.98510238e-01
9.98568136e-01
9.98627926e-01
9.98689278e-01
9.98751881e-01
9.98815426e-01
9.98879582e-01
9.98944011e-01
9.99008382e-01
9.99072365e-01
9.99135630e-01
9.99197857e-01
9.99258741e-01
9.99317991e-01
9.99375335e-01
9.99430529e-01
9.99483355e-01
9.99533631e-01
9.99581207e-01
9.99625976e-01
9.99667869e-01
9.99706864e-01
9.99742979e-01
9.99776280e-01
9.99806871e-01
9.99834901e-01
9.99860554e-01
9.99884050e-01
9.99905638e-01
9.99925589e-01
9.99944194e-01
9.99961755e-01
9.99978581e-01
9.99994977e-01
1.00001124e+00
1.00002766e+00
1.00004450e+00
1.00006199e+00
1.00008035e+00
1.00009976e+00
1.00012035e+00
1.00014223e+00
1.00016547e+00
1.00019009e+00
1.00021607e+00
1.00024336e+00
1.00027190e+00
1.00030155e+00
1.00033218e+00
1.00036362e+00
1.00039570e+00
1.00042822e+00
1.00046098e+00
1.00049377e+00
1.00052639e+00
1.00055865e+00
1.00059038e+00
1.00062141e+00
1.00065160e+00
1.00068083e+00
1.00070903e+00
1.00073614e+00
1.00076214e+00
1.00078704e+00
1.00081088e+00
1.00083375e+00
1.00085576e+00
1.00087704e+00
1.00089776e+00
1.00091812e+00
1.00093833e+00
1.00095860e+00
1.00097918e+00
1.00100031e+00
1.00102222e+00
1.00104515e+00
1.00106933e+00
1.00109495e+00
1.00112221e+00
1.00115125e+00
1.00118220e+00
1.00121515e+00
1.00125015e+00
1.00128720e+00
1.00132628e+00
1.00136732e+00
1.00141020e+00
1.00145477e+00
1.00150083e+00
1.00154816e+00
1.00159651e+00
1.00164561e+00
1.00169515e+00
1.00174483e+00
1.00179431e+00
1.00184329e+00
1.00189145e+00
1.00193844e+00
1.00198397e+00
1.00202778e+00
1.00206957e+00
1.00210900e+00
1.00214596e+00
1.00218028e+00
1.00221154e+00
1.00223960e+00
1.00226469e+00
1.00228633e+00
1.00230412e+00
1.00231873e+00
1.00232995e+00
1.00233711e+00
1.00234083e+00
9.98045831e-01
9.98050233e-01
9.98058735e-01
9.98071253e-01
9.98087984e-01
9.98109280e-01
9.98134665e-01
9.98163782e-01
9.98196988e-01
9.98234068e-01
9.98274522e-01
9.98318323e-01
9.98365404e-01
9.98415401e-01
9.98468032e-01
9.98523123e-01
9.98580405e-01
9.98639550e-01
9.98700270e-01
9.98762279e-01
9.98825253e-01
9.98888863e-01
9.98952786e-01
9.99016698e-01
9.99080268e-01
9.99143170e-01
9.99205092e-01
9.99265728e-01
9.99324788e-01
9.99382005e-01
9.99437132e-01
9.99489952e-01
9.99540279e-01
9.99587962e-01
9.99632887e-01
9.99674982e-01
9.99714218e-01
9.99750605e-01
9.99784200e-01
9.99815100e-01
9.99843443e-01
9.99869403e-01
9.99893189e-01
9.99915038e-01
9.99935213e-01
9.99953994e-01
9.99971674e-01
9.99988552e-01
1.00000493e+00
1.00002109e+00
1.00003732e+00
1.00005389e+00
1.00007102e+00
1.00008893e+00
1.00010780e+00
1.00012777e+00
1.00014896e+00
1.00017143e+00
1.00019521e+00
1.00022031e+00
1.00024668e+00
1.00027425e+00
1.00030292e+00
1.00033256e+00
1.00036302e+00
1.00039412e+00
1.00042568e+00
1.00045751e+00
1.00048942e+00
1.00052121e+00
1.00055269e+00
1.00058369e+00
1.00061405e+00
1.00064363e+00
1.00067233e+00
1.00070006e+00
1.00072676e+00
1.00075240e+00
1.00077701e+00
1.00080061e+00
1.00082330e+00
1.00084517e+00
1.00086636e+00
1.00088704e+00
1.00090739e+00
1.00092763e+00
1.00094797e+00
1.00096864e+00
1.00098989e+00
1.00101195e+00
1.00103504e+00
1.00105940e+00
1.00108521e+00
1.00111266e+00
1.00114190e+00
1.00117304e+00
1.00120617e+00
1.00124134e+00
1.00127854e+00
1.00131774e+00
1.00135887e+00
1.00140181e+00
1.00144639e+00
1.00149243e+00
1.00153970e+00
1.00158795e+00
1.00163689e+00
1.00168625e+00
1.00173570e+00
1.00178494e+00
1.00183363e+00
1.00188147e+00
1.00192815e+00
1.00197335e+00
1.00201677e+00
1.00205822e+00
1.00209740e+00
1.00213397e+00
1.00216784e+00
1.00219895e+00
1.00222687e+00
1.00225138e+00
1.00227278e+00
1.00229077e+00
1.00230494e+00
1.00231560e+00
1.00232293e+00
1.00232672e+00
9.98067532e-01
9.98071646e-01
9.98079892e-01
9.98092115e-01
9.98108660e-01
9.98129542e-01
9.98154315e-01
9.98183108e-01
9.98215899e-01
9.98252260e-01
9.98292100e-01
9.98335382e-01
9.98381785e-01
9.98431045e-01
9.98483013e-01
9.98537438e-01
9.98594008e-01
9.98652460e-01
9.98712525e-01
9.98773893e-01
9.98836246e-01
9.98899276e-01
9.98962666e-01
9.99026088e-01
9.99089218e-01
9.99151739e-01
9.99213339e-01
9.99273715e-01
9.99332580e-01
9.99389667e-01
9.99444729e-01
9.99497548e-01
9.99547936e-01
9.99595737e-01
9.99640836e-01
9.99683152e-01
9.99722650e-01
9.99759332e-01
9.99793246e-01
9.99824480e-01
9.99853159e-01
9.99879448e-01
9.99903544e-01
9.99925673e-01
9.99946086e-01
9.99965052e-01
9.99982854e-01
9.99999782e-01
1.00001613e+00
1.00003217e+00
1.00004819e+00
1.00006445e+00
1.00008118e+00
1.00009858e+00
1.00011686e+00
1.00013614e+00
1.00015654e+00
1.00017816e+00
1.00020101e+00
1.00022512e+00
1.00025045e+00
1.00027695e+00
1.00030452e+00
1.00033305e+00
1.00036239e+00
1.00039239e+00
1.00042287e+00
1.00045365e+00
1.00048456e+00
1.00051539e+00
1.00054597e+00
1.00057614e+00
1.00060573e+00
1.00063462e+00
1.00066270e+00
1.00068987e+00
1.00071609e+00
1.00074132e+00
1.00076558e+00
1.00078890e+00
1.00081137e+00
1.00083308e+00
1.00085416e+00
1.00087478e+00
1.00089512e+00
1.00091539e+00
1.00093580e+00
1.00095658e+00
1.00097796e+00
1.00100018e+00
1.00102346e+00
1.00104802e+00
1.00107404e+00
1.00110172e+00
1.00113117e+00
1.00116253e+00
1.00119587e+00
1.00123122e+00
1.00126859e+00
1.00130794e+00
1.00134917e+00
1.00139217e+00
1.00143678e+00
1.00148281e+00
1.00153002e+00
1.00157816e+00
1.00162697e+00
1.00167613e+00
1.00172535e+00
1.00177432e+00
1.00182272e+00
1.00187023e+00
1.00191656e+00
1.00196142e+00
1.00200449e+00
1.00204551e+00
1.00208431e+00
1.00212061e+00
1.00215411e+00
1.00218476e+00
1.00221244e+00
1.00223678e+00
1.00225776e+00
1.00227546e+00
1.00228951e+00
1.00229994e+00
1.00230705e+00
1.00231059e+00
9.98091314e-01
9.98095125e-01
9.98102946e-01
9.98115035e-01
9.98131303e-01
9.98151552e-01
9.98175908e-01
9.98204340e-01
9.98236438e-01
9.98272132e-01
9.98311432e-01
9.98354022e-01
9.98399647e-01
9.98448204e-01
9.98499464e-01
9.98553120e-01
9.98608936e-01
9.98666672e-01
9.98726028e-01
9.98786700e-01
9.98848400e-01
9.98910820e-01
9.98973639e-01
9.99036540e-01
9.99099208e-01
9.99161327e-01
9.99222588e-01
9.99282691e-01
9.99341354e-01
9.99398307e-01
9.99453305e-01
9.99506128e-01
9.99556586e-01
9.99604519e-01
9.99649807e-01
9.99692363e-01
9.99732144e-01
9.99769144e-01
9.99803402e-01
9.99834994e-01
9.99864035e-01
9.99890677e-01
9.99915105e-01
9.99937533e-01
9.99958199e-01
9.99977361e-01
9.99995291e-01
1.00001227e+00
1.00002857e+00
1.00004448e+00
1.00006027e+00
1.00007619e+00
1.00009247e+00
1.00010932e+00
1.00012694e+00
1.00014546e+00
1.00016501e+00
1.00018568e+00
1.00020751e+00
1.00023053e+00
1.00025472e+00
1.00028003e+00
1.00030638e+00
1.00033367e+00
1.00036177e+00
1.00039054e+00
1.00041981e+00
1.00044942e+00
1.00047920e+00
1.00050895e+00
1.00053852e+00
1.00056775e+00
1.00059647e+00
1.00062457e+00
1.00065193e+00
1.00067846e+00
1.00070412e+00
1.00072888e+00
1.00075274e+00
1.00077574e+00
1.00079794e+00
1.00081946e+00
1.00084042e+00
1.00086097e+00
1.00088129e+00
1.00090159e+00
1.00092207e+00
1.00094297e+00
1.00096450e+00
1.00098690e+00
1.00101039e+00
1.00103517e+00
1.00106143e+00
1.00108935e+00
1.00111906e+00
1.00115066e+00
1.00118423e+00
1.00121979e+00
1.00125735e+00
1.00129685e+00
1.00133821e+00
1.00138129e+00
1.00142594e+00
1.00147196e+00
1.00151912e+00
1.00156716e+00
1.00161581e+00
1.00166478e+00
1.00171376e+00
1.00176245e+00
1.00181054e+00
1.00185772e+00
1.00190366e+00
1.00194812e+00
1.00199083e+00
1.00203147e+00
1.00206981e+00
1.00210571e+00
1.00213893e+00
1.00216915e+00
1.00219638e+00
1.00222053e+00
1.00224124e+00
1.00225847e+00
1.00227234e+00
1.00228269e+00
1.00228943e+00
1.00229272e+00
9.98116863e-01
9.98120539e-01
9.98128135e-01
9.98139860e-01
9.98155666e-01
9.98175523e-01
9.98199451e-01
9.98227214e-01
9.98258667e-01
9.98293802e-01
9.98332381e-01
9.98374168e-01
9.98419068e-01
9.98466877e-01
9.98517312e-01
9.98570163e-01
9.98625210e-01
9.98682170e-01
9.98740757e-01
9.98800704e-01
9.98861716e-01
9.98923483e-01
9.98985697e-01
9.99048052e-01
9.99110233e-01
9.99171928e-01
9.99232833e-01
9.99292653e-01
9.99351104e-01
9.99407919e-01
9.99462854e-01
9.99515685e-01
9.99566221e-01
9.99614298e-01
9.99659790e-01
9.99702604e-01
9.99742689e-01
9.99780031e-01
9.99814657e-01
9.99846631e-01
9.99876059e-01
9.99903078e-01
9.99927861e-01
9.99950608e-01
9.99971545e-01
9.99990915e-01
1.00000898e+00
1.00002601e+00
1.00004227e+00
1.00005803e+00
1.00007357e+00
1.00008911e+00
1.00010491e+00
1.00012116e+00
1.00013806e+00
1.00015575e+00
1.00017437e+00
1.00019401e+00
1.00021473e+00
1.00023656e+00
1.00025949e+00
1.00028350e+00
1.00030851e+00
1.00033444e+00
1.00036118e+00
1.00038859e+00
1.00041653e+00
1.00044484e+00
1.00047336e+00
1.00050192e+00
1.00053036e+00
1.00055852e+00
1.00058627e+00
1.00061347e+00
1.00064002e+00
1.00066584e+00
1.00069086e+00
1.00071508e+00
1.00073848e+00
1.00076110e+00
1.00078301e+00
1.00080431e+00
1.00082511e+00
1.00084557e+00
1.00086587e+00
1.00088620e+00
1.00090677e+00
1.00092779e+00
1.00094949e+00
1.00097209e+00
1.00099580e+00
1.00102084e+00
1.00104737e+00
1.00107556e+00
1.00110554e+00
1.00113741e+00
1.00117123e+00
1.00120703e+00
1.00124480e+00
1.00128448e+00
1.00132597e+00
1.00136916e+00
1.00141385e+00
1.00145987e+00
1.00150698e+00
1.00155492e+00
1.00160341e+00
1.00165217e+00
1.00170091e+00
1.00174931e+00
1.00179706e+00
1.00184387e+00
1.00188945e+00
1.00193349e+00
1.00197575e+00
1.00201599e+00
1.00205393e+00
1.00208934e+00
1.00212212e+00
1.00215204e+00
1.00217886e+00
1.00220256e+00
1.00222300e+00
1.00223997e+00
1.00225351e+00
1.00226357e+00
1.00227011e+00
1.00227329e+00
9.98144342e-01
9.98147851e-01
9.98155222e-01
9.98166529e-01
9.98181904e-01
9.98201362e-01
9.98224706e-01
9.98251807e-01
9.98282673e-01
9.98317106e-01
9.98354875e-01
9.98395904e-01
9.98440026e-01
9.98486976e-01
9.98536561e-01
9.98588592e-01
9.98642804e-01
9.98698929e-01
9.98756721e-01
9.98815906e-01
9.98876185e-01
9.98937264e-01
9.98998848e-01
9.99060628e-01
9.99122296e-01
9.99183547e-01
9.99244081e-01
9.99303604e-01
9.99361834e-01
9.99418507e-01
9.99473377e-01
9.99526221e-01
9.99576842e-01
9.99625074e-01
9.99670784e-01
9.99713874e-01
9.99754283e-01
9.99791988e-01
9.99827005e-01
9.99859388e-01
9.99889227e-01
9.99916648e-01
9.99941808e-01
9.99964894e-01
9.99986118e-01
1.00000571e+00
1.00002392e+00
1.00004100e+00
1.00005721e+00
1.00007282e+00
1.00008807e+00
1.00010322e+00
1.00011850e+00
1.00013410e+00
1.00015023e+00
1.00016703e+00
1.00018465e+00
1.00020318e+00
1.00022269e+00
1.00024323e+00
1.00026480e+00
1.00028739e+00
1.00031094e+00
1.00033539e+00
1.00036064e+00
1.00038656e+00
1.00041304e+00
1.00043992e+00
1.00046706e+00
1.00049429e+00
1.00052148e+00
1.00054847e+00
1.00057513e+00
1.00060134e+00
1.00062698e+00
1.00065199e+00
1.00067631e+00
1.00069991e+00
1.00072279e+00
1.00074499e+00
1.00076656e+00
1.00078760e+00
1.00080823e+00
1.00082859e+00
1.00084885e+00
1.00086921e+00
1.00088987e+00
1.00091102e+00
1.00093291e+00
1.00095573e+00
1.00097969e+00
1.00100500e+00
1.00103182e+00
1.00106031e+00
1.00109059e+00
1.00112275e+00
1.00115686e+00
1.00119292e+00
1.00123092e+00
1.00127079e+00
1.00131244e+00
1.00135573e+00
1.00140049e+00
1.00144652e+00
1.00149357e+00
1.00154141e+00
1.00158975e+00
1.00163830e+00
1.00168677e+00
1.00173487e+00
1.00178227e+00
1.00182870e+00
1.00187386e+00
1.00191749e+00
1.00195929e+00
1.00199904e+00
1.00203654e+00
1.00207152e+00
1.00210380e+00
1.00213329e+00
1.00215975e+00
1.00218301e+00
1.00220305e+00
1.00221977e+00
1.00223298e+00
1.00224271e+00
1.00224907e+00
1.00225210e+00
9.98173755e-01
9.98177013e-01
9.98184060e-01
9.98195034e-01
9.98210004e-01
9.98228911e-01
9.98251646e-01
9.98278166e-01
9.98308334e-01
9.98341963e-01
9.98378965e-01
9.98419200e-01
9.98462436e-01
9.98508501e-01
9.98557228e-01
9.98608372e-01
9.98661691e-01
9.98716960e-01
9.98773922e-01
9.98832297e-01
9.98891808e-01
9.98952174e-01
9.99013096e-01
9.99074273e-01
9.99135406e-01
9.99196195e-01
9.99256340e-01
9.99315553e-01
9.99373555e-01
9.99430082e-01
9.99484886e-01
9.99537745e-01
9.99588457e-01
9.99636854e-01
9.99682796e-01
9.99726178e-01
9.99766930e-01
9.99805020e-01
9.99840450e-01
9.99873264e-01
9.99903537e-01
9.99931382e-01
9.99956941e-01
9.99980386e-01
1.00000191e+00
1.00002174e+00
1.00004010e+00
1.00005723e+00
1.00007339e+00
1.00008883e+00
1.00010379e+00
1.00011852e+00
1.00013324e+00
1.00014815e+00
1.00016345e+00
1.00017930e+00
1.00019584e+00
1.00021318e+00
1.00023139e+00
1.00025055e+00
1.00027066e+00
1.00029172e+00
1.00031370e+00
1.00033654e+00
1.00036017e+00
1.00038449e+00
1.00040937e+00
1.00043469e+00
1.00046032e+00
1.00048611e+00
1.00051193e+00
1.00053763e+00
1.00056309e+00
1.00058819e+00
1.00061284e+00
1.00063695e+00
1.00066048e+00
1.00068339e+00
1.00070569e+00
1.00072740e+00
1.00074859e+00
1.00076934e+00
1.00078976e+00
1.00081000e+00
1.00083023e+00
1.00085061e+00
1.00087135e+00
1.00089266e+00
1.00091473e+00
1.00093779e+00
1.00096203e+00
1.00098763e+00
1.00101477e+00
1.00104358e+00
1.00107419e+00
1.00110668e+00
1.00114108e+00
1.00117743e+00
1.00121568e+00
1.00125577e+00
1.00129759e+00
1.00134100e+00
1.00138583e+00
1.00143187e+00
1.00147888e+00
1.00152661e+00
1.00157479e+00
1.00162313e+00
1.00167133e+00
1.00171910e+00
1.00176615e+00
1.00181218e+00
1.00185690e+00
1.00190006e+00
1.00194141e+00
1.00198067e+00
1.00201765e+00
1.00205217e+00
1.00208399e+00
1.00211295e+00
1.00213897e+00
1.00216186e+00
1.00218149e+00
1.00219781e+00
1.00221074e+00
1.00222021e+00
1.00222629e+00
1.00222909e+00
9.98204922e-01
9.98207948e-01
9.98214670e-01
9.98225286e-01
9.98239798e-01
9.98258142e-01
9.98280294e-01
9.98306155e-01
9.98335555e-01
9.98368409e-01
9.98404609e-01
9.98443956e-01
9.98486287e-01
9.98531462e-01
9.98579265e-01
9.98629472e-01
9.98681882e-01
9.98736260e-01
9.98792345e-01
9.98849879e-01
9.98908598e-01
9.98968219e-01
9.99028450e-01
9.99089002e-01
9.99149581e-01
9.99209887e-01
9.99269630e-01
9.99328522e-01
9.99386288e-01
9.99442663e-01
9.99497401e-01
9.99550276e-01
9.99601086e-01
9.99649657e-01
9.99695842e-01
9.99739530e-01
9.99780642e-01
9.99819134e-01
9.99854999e-01
9.99888264e-01
9.99918994e-01
9.99947283e-01
9.99973261e-01
9.99997082e-01
1.00001893e+00
1.00003900e+00
1.00005751e+00
1.00007471e+00
1.00009081e+00
1.00010607e+00
1.00012072e+00
1.00013500e+00
1.00014912e+00
1.00016330e+00
1.00017772e+00
1.00019255e+00
1.00020795e+00
1.00022401e+00
1.00024085e+00
1.00025852e+00
1.00027707e+00
1.00029649e+00
1.00031679e+00
1.00033791e+00
1.00035981e+00