# vtk DataFile Version 2.0
LBM Flow Field - Timestep 1030
ASCII
DATASET STRUCTURED_POINTS
DIMENSIONS 128 128 1
ORIGIN 0.0 0.0 0.0
SPACING 1.0 1.0 1.0
POINT_DATA 16384
SCALARS density double 1
LOOKUP_TABLE default
9.99544295e-01
9.99544960e-01
9.99545725e-01
9.99545756e-01
9.99546116e-01
9.99546883e-01
9.99547787e-01
9.99548914e-01
9.99550379e-01
9.99552173e-01
9.99554240e-01
9.99556571e-01
9.99559138e-01
9.99561889e-01
9.99564767e-01
9.99567716e-01
9.99570664e-01
9.99573527e-01
9.99576212e-01
9.99578617e-01
9.99580630e-01
9.99582132e-01
9.99582998e-01
9.99583104e-01
9.99582324e-01
9.99580538e-01
9.99577635e-01
9.99573516e-01
9.99568101e-01
9.99561328e-01
9.99553159e-01
9.99543580e-01
9.99532604e-01
9.99520270e-01
9.99506639e-01
9.99491799e-01
9.99475856e-01
9.99458936e-01
9.99441178e-01
9.99422739e-01
9.99403787e-01
9.99384507e-01
9.99365102e-01
9.99345800e-01
9.99326858e-01
9.99308578e-01
9.99291308e-01
9.99275456e-01
9.99261498e-01
9.99249978e-01
9.99241512e-01
9.99236776e-01
9.99236496e-01
9.99241421e-01
9.99252299e-01
9.99269835e-01
9.99294651e-01
9.99327241e-01
9.99367928e-01
9.99416822e-01
9.99473791e-01
9.99538437e-01
9.99610089e-01
9.99687817e-01
9.99770448e-01
9.99856618e-01
9.99944819e-01
1.00003347e+00
1.00012097e+00
1.00020582e+00
1.00028662e+00
1.00036219e+00
1.00043159e+00
1.00049413e+00
1.00054945e+00
1.00059745e+00
1.00063831e+00
1.00067243e+00
1.00070044e+00
1.00072310e+00
1.00074126e+00
1.00075583e+00
1.00076771e+00
1.00077776e+00
1.00078676e+00
1.00079537e+00
1.00080414e+00
1.00081350e+00
1.00082373e+00
1.00083497e+00
1.00084726e+00
1.00086055e+00
1.00087469e+00
1.00088947e+00
1.00090465e+00
1.00091996e+00
1.00093512e+00
1.00094986e+00
1.00096395e+00
1.00097717e+00
1.00098934e+00
1.00100034e+00
1.00101007e+00
1.00101848e+00
1.00102556e+00
1.00103133e+00
1.00103586e+00
1.00103922e+00
1.00104151e+00
1.00104285e+00
1.00104335e+00
1.00104314e+00
1.00104234e+00
1.00104107e+00
1.00103944e+00
1.00103755e+00
1.00103549e+00
1.00103333e+00
1.00103112e+00
1.00102895e+00
1.00102682e+00
1.00102477e+00
1.00102297e+00
1.00102149e+00
1.00102002e+00
1.00101868e+00
1.00101887e+00
1.00101946e+00
9.99545684e-01
9.99545695e-01
9.99546057e-01
9.99546262e-01
9.99546671e-01
9.99547403e-01
9.99548342e-01
9.99549556e-01
9.99551034e-01
9.99552813e-01
9.99554852e-01
9.99557142e-01
9.99559640e-01
9.99562312e-01
9.99565099e-01
9.99567944e-01
9.99570775e-01
9.99573513e-01
9.99576064e-01
9.99578330e-01
9.99580200e-01
9.99581558e-01
9.99582283e-01
9.99582250e-01
9.99581337e-01
9.99579426e-01
9.99576408e-01
9.99572183e-01
9.99566671e-01
9.99559809e-01
9.99551557e-01
9.99541898e-01
9.99530841e-01
9.99518420e-01
9.99504695e-01
9.99489747e-01
9.99473681e-01
9.99456621e-01
9.99438709e-01
9.99420103e-01
9.99400980e-01
9.99381533e-01
9.99361980e-01
9.99342563e-01
9.99323561e-01
9.99305291e-01
9.99288123e-01
9.99272483e-01
9.99258860e-01
9.99247809e-01
9.99239947e-01
9.99235948e-01
9.99236521e-01
9.99242397e-01
9.99254291e-01
9.99272871e-01
9.99298715e-01
9.99332273e-01
9.99373820e-01
9.99423425e-01
9.99480919e-01
9.99545875e-01
9.99617607e-01
9.99695181e-01
9.99777437e-01
9.99863032e-01
9.99950493e-01
1.00003828e+00
1.00012486e+00
1.00020876e+00
1.00028865e+00
1.00036338e+00
1.00043206e+00
1.00049404e+00
1.00054895e+00
1.00059671e+00
1.00063748e+00
1.00067168e+00
1.00069988e+00
1.00072283e+00
1.00074134e+00
1.00075630e+00
1.00076857e+00
1.00077899e+00
1.00078830e+00
1.00079717e+00
1.00080612e+00
1.00081558e+00
1.00082581e+00
1.00083697e+00
1.00084912e+00
1.00086219e+00
1.00087605e+00
1.00089051e+00
1.00090534e+00
1.00092028e+00
1.00093506e+00
1.00094944e+00
1.00096318e+00
1.00097607e+00
1.00098795e+00
1.00099868e+00
1.00100818e+00
1.00101640e+00
1.00102334e+00
1.00102900e+00
1.00103345e+00
1.00103677e+00
1.00103905e+00
1.00104039e+00
1.00104093e+00
1.00104077e+00
1.00104004e+00
1.00103885e+00
1.00103731e+00
1.00103551e+00
1.00103355e+00
1.00103149e+00
1.00102940e+00
1.00102734e+00
1.00102534e+00
1.00102347e+00
1.00102177e+00
1.00102031e+00
1.00101903e+00
1.00101794e+00
1.00101774e+00
1.00101767e+00
9.99547259e-01
9.99546743e-01
9.99546228e-01
9.99546524e-01
9.99547048e-01
9.99547666e-01
9.99548592e-01
9.99549831e-01
9.99551290e-01
9.99552998e-01
9.99554971e-01
9.99557178e-01
9.99559570e-01
9.99562117e-01
9.99564771e-01
9.99567467e-01
9.99570136e-01
9.99572701e-01
9.99575072e-01
9.99577150e-01
9.99578827e-01
9.99579990e-01
9.99580519e-01
9.99580293e-01
9.99579191e-01
9.99577095e-01
9.99573896e-01
9.99569496e-01
9.99563811e-01
9.99556777e-01
9.99548349e-01
9.99538506e-01
9.99527253e-01
9.99514619e-01
9.99500657e-01
9.99485446e-01
9.99469089e-01
9.99451708e-01
9.99433448e-01
9.99414474e-01
9.99394972e-01
9.99375150e-01
9.99355242e-01
9.99335513e-01
9.99316265e-01
9.99297841e-01
9.99280637e-01
9.99265103e-01
9.99251750e-01
9.99241148e-01
9.99233925e-01
9.99230753e-01
9.99232338e-01
9.99239388e-01
9.99252594e-01
9.99272586e-01
9.99299900e-01
9.99334936e-01
9.99377920e-01
9.99428870e-01
9.99487570e-01
9.99553555e-01
9.99626109e-01
9.99704276e-01
9.99786891e-01
9.99872616e-01
9.99959996e-01
1.00004752e+00
1.00013369e+00
1.00021707e+00
1.00029638e+00
1.00037052e+00
1.00043862e+00
1.00050006e+00
1.00055451e+00
1.00060189e+00
1.00064239e+00
1.00067640e+00
1.00070450e+00
1.00072741e+00
1.00074593e+00
1.00076093e+00
1.00077325e+00
1.00078370e+00
1.00079303e+00
1.00080186e+00
1.00081073e+00
1.00082003e+00
1.00083004e+00
1.00084093e+00
1.00085273e+00
1.00086541e+00
1.00087884e+00
1.00089283e+00
1.00090717e+00
1.00092161e+00
1.00093589e+00
1.00094978e+00
1.00096304e+00
1.00097549e+00
1.00098695e+00
1.00099731e+00
1.00100648e+00
1.00101442e+00
1.00102111e+00
1.00102658e+00
1.00103088e+00
1.00103408e+00
1.00103628e+00
1.00103759e+00
1.00103812e+00
1.00103798e+00
1.00103729e+00
1.00103616e+00
1.00103469e+00
1.00103298e+00
1.00103111e+00
1.00102916e+00
1.00102718e+00
1.00102521e+00
1.00102334e+00
1.00102164e+00
1.00102003e+00
1.00101852e+00
1.00101742e+00
1.00101662e+00
1.00101557e+00
1.00101506e+00
9.99547766e-01
9.99547101e-01
9.99546686e-01
9.99546763e-01
9.99547073e-01
9.99547697e-01
9.99548615e-01
9.99549753e-01
9.99551140e-01
9.99552778e-01
9.99554648e-01
9.99556722e-01
9.99558977e-01
9.99561366e-01
9.99563841e-01
9.99566341e-01
9.99568801e-01
9.99571140e-01
9.99573270e-01
9.99575097e-01
9.99576513e-01
9.99577407e-01
9.99577663e-01
9.99577160e-01
9.99575779e-01
9.99573404e-01
9.99569926e-01
9.99565246e-01
9.99559279e-01
9.99551959e-01
9.99543236e-01
9.99533087e-01
9.99521509e-01
9.99508526e-01
9.99494188e-01
9.99478570e-01
9.99461770e-01
9.99443913e-01
9.99425148e-01
9.99405646e-01
9.99385606e-01
9.99365253e-01
9.99344841e-01
9.99324662e-01
9.99305046e-01
9.99286368e-01
9.99269054e-01
9.99253588e-01
9.99240505e-01
9.99230399e-01
9.99223911e-01
9.99221721e-01
9.99224525e-01
9.99233020e-01
9.99247864e-01
9.99269651e-01
9.99298870e-01
9.99335866e-01
9.99380808e-01
9.99433654e-01
9.99494134e-01
9.99561733e-01
9.99635694e-01
9.99715034e-01
9.99798570e-01
9.99884963e-01
9.99972767e-01
1.00006049e+00
1.00014667e+00
1.00022990e+00
1.00030894e+00
1.00038273e+00
1.00045043e+00
1.00051147e+00
1.00056553e+00
1.00061255e+00
1.00065272e+00
1.00068645e+00
1.00071430e+00
1.00073699e+00
1.00075531e+00
1.00077011e+00
1.00078221e+00
1.00079242e+00
1.00080146e+00
1.00080996e+00
1.00081844e+00
1.00082729e+00
1.00083680e+00
1.00084713e+00
1.00085833e+00
1.00087037e+00
1.00088313e+00
1.00089644e+00
1.00091008e+00
1.00092384e+00
1.00093745e+00
1.00095069e+00
1.00096335e+00
1.00097522e+00
1.00098617e+00
1.00099606e+00
1.00100481e+00
1.00101238e+00
1.00101877e+00
1.00102398e+00
1.00102808e+00
1.00103113e+00
1.00103323e+00
1.00103447e+00
1.00103497e+00
1.00103483e+00
1.00103417e+00
1.00103310e+00
1.00103170e+00
1.00103008e+00
1.00102830e+00
1.00102644e+00
1.00102456e+00
1.00102271e+00
1.00102093e+00
1.00101927e+00
1.00101779e+00
1.00101643e+00
1.00101519e+00
1.00101424e+00
1.00101328e+00
1.00101269e+00
9.99547929e-01
9.99547287e-01
9.99546923e-01
9.99546722e-01
9.99546900e-01
9.99547510e-01
9.99548326e-01
9.99549345e-01
9.99550632e-01
9.99552154e-01
9.99553874e-01
9.99555781e-01
9.99557852e-01
9.99560036e-01
9.99562280e-01
9.99564531e-01
9.99566721e-01
9.99568770e-01
9.99570592e-01
9.99572093e-01
9.99573171e-01
9.99573714e-01
9.99573608e-01
9.99572737e-01
9.99570983e-01
9.99568231e-01
9.99564373e-01
9.99559310e-01
9.99552956e-01
9.99545240e-01
9.99536110e-01
9.99525537e-01
9.99513513e-01
9.99500056e-01
9.99485211e-01
9.99469048e-01
9.99451665e-01
9.99433186e-01
9.99413766e-01
9.99393584e-01
9.99372855e-01
9.99351824e-01
9.99330771e-01
9.99310018e-01
9.99289929e-01
9.99270920e-01
9.99253454e-01
9.99238050e-01
9.99225279e-01
9.99215762e-01
9.99210159e-01
9.99209156e-01
9.99213448e-01
9.99223709e-01
9.99240571e-01
9.99264583e-01
9.99296177e-01
9.99335638e-01
9.99383065e-01
9.99438349e-01
9.99501152e-01
9.99570900e-01
9.99646786e-01
9.99727789e-01
9.99812703e-01
9.99900180e-01
9.99988781e-01
1.00007703e+00
1.00016350e+00
1.00024682e+00
1.00032578e+00
1.00039938e+00
1.00046680e+00
1.00052751e+00
1.00058122e+00
1.00062790e+00
1.00066773e+00
1.00070113e+00
1.00072866e+00
1.00075104e+00
1.00076904e+00
1.00078349e+00
1.00079521e+00
1.00080499e+00
1.00081355e+00
1.00082150e+00
1.00082936e+00
1.00083753e+00
1.00084630e+00
1.00085583e+00
1.00086618e+00
1.00087734e+00
1.00088919e+00
1.00090158e+00
1.00091431e+00
1.00092717e+00
1.00093992e+00
1.00095234e+00
1.00096422e+00
1.00097538e+00
1.00098566e+00
1.00099496e+00
1.00100320e+00
1.00101032e+00
1.00101632e+00
1.00102122e+00
1.00102507e+00
1.00102793e+00
1.00102989e+00
1.00103104e+00
1.00103150e+00
1.00103136e+00
1.00103072e+00
1.00102970e+00
1.00102837e+00
1.00102683e+00
1.00102515e+00
1.00102338e+00
1.00102160e+00
1.00101985e+00
1.00101818e+00
1.00101656e+00
1.00101512e+00
1.00101388e+00
1.00101262e+00
1.00101147e+00
1.00101064e+00
1.00101002e+00
9.99547858e-01
9.99547141e-01
9.99546658e-01
9.99546427e-01
9.99546562e-01
9.99546978e-01
9.99547642e-01
9.99548574e-01
9.99549718e-01
9.99551058e-01
9.99552597e-01
9.99554308e-01
9.99556147e-01
9.99558074e-01
9.99560042e-01
9.99561991e-01
9.99563851e-01
9.99565547e-01
9.99566995e-01
9.99568101e-01
9.99568763e-01
9.99568876e-01
9.99568326e-01
9.99567000e-01
9.99564781e-01
9.99561558e-01
9.99557222e-01
9.99551675e-01
9.99544827e-01
9.99536606e-01
9.99526957e-01
9.99515843e-01
9.99503254e-01
9.99489200e-01
9.99473721e-01
9.99456883e-01
9.99438784e-01
9.99419549e-01
9.99399340e-01
9.99378349e-01
9.99356806e-01
9.99334979e-01
9.99313181e-01
9.99291766e-01
9.99271139e-01
9.99251757e-01
9.99234128e-01
9.99218811e-01
9.99206417e-01
9.99197596e-01
9.99193029e-01
9.99193412e-01
9.99199436e-01
9.99211757e-01
9.99230972e-01
9.99257583e-01
9.99291963e-01
9.99334328e-01
9.99384703e-01
9.99442902e-01
9.99508512e-01
9.99580892e-01
9.99659176e-01
9.99742300e-01
9.99829027e-01
9.99917996e-01
1.00000777e+00
1.00009689e+00
1.00018394e+00
1.00026760e+00
1.00034670e+00
1.00042027e+00
1.00048755e+00
1.00054802e+00
1.00060143e+00
1.00064777e+00
1.00068724e+00
1.00072026e+00
1.00074740e+00
1.00076936e+00
1.00078691e+00
1.00080087e+00
1.00081205e+00
1.00082123e+00
1.00082911e+00
1.00083631e+00
1.00084335e+00
1.00085063e+00
1.00085844e+00
1.00086694e+00
1.00087623e+00
1.00088628e+00
1.00089701e+00
1.00090828e+00
1.00091991e+00
1.00093168e+00
1.00094339e+00
1.00095481e+00
1.00096576e+00
1.00097606e+00
1.00098556e+00
1.00099415e+00
1.00100176e+00
1.00100834e+00
1.00101388e+00
1.00101840e+00
1.00102194e+00
1.00102457e+00
1.00102635e+00
1.00102739e+00
1.00102778e+00
1.00102762e+00
1.00102700e+00
1.00102602e+00
1.00102476e+00
1.00102330e+00
1.00102171e+00
1.00102006e+00
1.00101837e+00
1.00101670e+00
1.00101510e+00
1.00101361e+00
1.00101219e+00
1.00101089e+00
1.00100971e+00
1.00100859e+00
1.00100769e+00
1.00100698e+00
9.99547444e-01
9.99546677e-01
9.99546081e-01
9.99545791e-01
9.99545802e-01
9.99546054e-01
9.99546595e-01
9.99547373e-01
9.99548329e-01
9.99549475e-01
9.99550803e-01
9.99552269e-01
9.99553837e-01
9.99555468e-01
9.99557112e-01
9.99558706e-01
9.99560182e-01
9.99561467e-01
9.99562476e-01
9.99563116e-01
9.99563291e-01
9.99562894e-01
9.99561818e-01
9.99559950e-01
9.99557176e-01
9.99553387e-01
9.99548474e-01
9.99542339e-01
9.99534892e-01
9.99526058e-01
9.99515777e-01
9.99504009e-01
9.99490735e-01
9.99475964e-01
9.99459729e-01
9.99442095e-01
9.99423157e-01
9.99403046e-01
9.99381930e-01
9.99360016e-01
9.99337554e-01
9.99314839e-01
9.99292214e-01
9.99270075e-01
9.99248868e-01
9.99229096e-01
9.99211314e-01
9.99196128e-01
9.99184188e-01
9.99176177e-01
9.99172801e-01
9.99174766e-01
9.99182756e-01
9.99197410e-01
9.99219288e-01
9.99248841e-01
9.99286379e-01
9.99332044e-01
9.99385779e-01
9.99447316e-01
9.99516163e-01
9.99591602e-01
9.99672706e-01
9.99758358e-01
9.99847289e-01
9.99938116e-01
1.00002940e+00
1.00011970e+00
1.00020761e+00
1.00029187e+00
1.00037132e+00
1.00044504e+00
1.00051232e+00
1.00057266e+00
1.00062586e+00
1.00067191e+00
1.00071103e+00
1.00074366e+00
1.00077036e+00
1.00079183e+00
1.00080884e+00
1.00082219e+00
1.00083269e+00
1.00084110e+00
1.00084813e+00
1.00085440e+00
1.00086041e+00
1.00086659e+00
1.00087321e+00
1.00088048e+00
1.00088849e+00
1.00089722e+00
1.00090663e+00
1.00091657e+00
1.00092689e+00
1.00093739e+00
1.00094788e+00
1.00095815e+00
1.00096801e+00
1.00097731e+00
1.00098590e+00
1.00099368e+00
1.00100056e+00
1.00100651e+00
1.00101152e+00
1.00101559e+00
1.00101877e+00
1.00102112e+00
1.00102270e+00
1.00102360e+00
1.00102390e+00
1.00102371e+00
1.00102310e+00
1.00102216e+00
1.00102096e+00
1.00101959e+00
1.00101809e+00
1.00101652e+00
1.00101494e+00
1.00101336e+00
1.00101183e+00
1.00101040e+00
1.00100905e+00
1.00100775e+00
1.00100657e+00
1.00100546e+00
1.00100448e+00
1.00100374e+00
9.99546665e-01
9.99545821e-01
9.99545166e-01
9.99544739e-01
9.99544596e-01
9.99544741e-01
9.99545125e-01
9.99545691e-01
9.99546451e-01
9.99547390e-01
9.99548463e-01
9.99549648e-01
9.99550914e-01
9.99552211e-01
9.99553483e-01
9.99554673e-01
9.99555714e-01
9.99556529e-01
9.99557036e-01
9.99557144e-01
9.99556758e-01
9.99555775e-01
9.99554089e-01
9.99551591e-01
9.99548170e-01
9.99543717e-01
9.99538126e-01
9.99531299e-01
9.99523144e-01
9.99513584e-01
9.99502556e-01
9.99490016e-01
9.99475941e-01
9.99460333e-01
9.99443225e-01
9.99424677e-01
9.99404788e-01
9.99383693e-01
9.99361570e-01
9.99338642e-01
9.99315181e-01
9.99291510e-01
9.99268009e-01
9.99245113e-01
9.99223316e-01
9.99203168e-01
9.99185274e-01
9.99170288e-01
9.99158900e-01
9.99151829e-01
9.99149803e-01
9.99153539e-01
9.99163717e-01
9.99180952e-01
9.99205768e-01
9.99238561e-01
9.99279576e-01
9.99328875e-01
9.99386318e-01
9.99451551e-01
9.99523995e-01
9.99602857e-01
9.99687141e-01
9.99775675e-01
9.99867152e-01
9.99960168e-01
1.00005328e+00
1.00014505e+00
1.00023411e+00
1.00031921e+00
1.00039924e+00
1.00047332e+00
1.00054076e+00
1.00060112e+00
1.00065421e+00
1.00070004e+00
1.00073888e+00
1.00077113e+00
1.00079738e+00
1.00081832e+00
1.00083472e+00
1.00084737e+00
1.00085706e+00
1.00086458e+00
1.00087060e+00
1.00087575e+00
1.00088056e+00
1.00088543e+00
1.00089068e+00
1.00089650e+00
1.00090300e+00
1.00091021e+00
1.00091808e+00
1.00092649e+00
1.00093531e+00
1.00094435e+00
1.00095345e+00
1.00096240e+00
1.00097103e+00
1.00097919e+00
1.00098675e+00
1.00099360e+00
1.00099966e+00
1.00100490e+00
1.00100930e+00
1.00101287e+00
1.00101564e+00
1.00101767e+00
1.00101901e+00
1.00101974e+00
1.00101995e+00
1.00101971e+00
1.00101909e+00
1.00101819e+00
1.00101705e+00
1.00101576e+00
1.00101435e+00
1.00101288e+00
1.00101138e+00
1.00100990e+00
1.00100845e+00
1.00100705e+00
1.00100575e+00
1.00100450e+00
1.00100329e+00
1.00100215e+00
1.00100115e+00
1.00100034e+00
9.99545557e-01
9.99544595e-01
9.99543815e-01
9.99543251e-01
9.99542976e-01
9.99542971e-01
9.99543163e-01
9.99543534e-01
9.99544082e-01
9.99544767e-01
9.99545562e-01
9.99546444e-01
9.99547371e-01
9.99548290e-01
9.99549149e-01
9.99549890e-01
9.99550442e-01
9.99550729e-01
9.99550670e-01
9.99550178e-01
9.99549157e-01
9.99547508e-01
9.99545128e-01
9.99541910e-01
9.99537746e-01
9.99532530e-01
9.99526158e-01
9.99518530e-01
9.99509556e-01
9.99499156e-01
9.99487266e-01
9.99473837e-01
9.99458843e-01
9.99442285e-01
9.99424190e-01
9.99404622e-01
9.99383681e-01
9.99361510e-01
9.99338298e-01
9.99314286e-01
9.99289771e-01
9.99265107e-01
9.99240711e-01
9.99217061e-01
9.99194697e-01
9.99174220e-01
9.99156285e-01
9.99141593e-01
9.99130877e-01
9.99124890e-01
9.99124382e-01
9.99130079e-01
9.99142653e-01
9.99162698e-01
9.99190695e-01
9.99226987e-01
9.99271748e-01
9.99324959e-01
9.99386397e-01
9.99455615e-01
9.99531951e-01
9.99614529e-01
9.99702285e-01
9.99793992e-01
9.99888302e-01
9.99983789e-01
1.00007900e+00
1.00017251e+00
1.00026297e+00
1.00034914e+00
1.00042998e+00
1.00050462e+00
1.00057242e+00
1.00063296e+00
1.00068608e+00
1.00073183e+00
1.00077046e+00
1.00080240e+00
1.00082823e+00
1.00084865e+00
1.00086441e+00
1.00087630e+00
1.00088512e+00
1.00089162e+00
1.00089651e+00
1.00090040e+00
1.00090383e+00
1.00090722e+00
1.00091089e+00
1.00091506e+00
1.00091986e+00
1.00092534e+00
1.00093146e+00
1.00093814e+00
1.00094526e+00
1.00095267e+00
1.00096019e+00
1.00096765e+00
1.00097490e+00
1.00098179e+00
1.00098819e+00
1.00099400e+00
1.00099915e+00
1.00100359e+00
1.00100731e+00
1.00101032e+00
1.00101263e+00
1.00101429e+00
1.00101537e+00
1.00101591e+00
1.00101600e+00
1.00101569e+00
1.00101507e+00
1.00101419e+00
1.00101311e+00
1.00101189e+00
1.00101058e+00
1.00100920e+00
1.00100779e+00
1.00100639e+00
1.00100502e+00
1.00100368e+00
1.00100240e+00
1.00100118e+00
1.00099996e+00
1.00099878e+00
1.00099771e+00
1.00099679e+00
9.99544022e-01
9.99542919e-01
9.99541989e-01
9.99541308e-01
9.99540891e-01
9.99540699e-01
9.99540701e-01
9.99540873e-01
9.99541174e-01
9.99541582e-01
9.99542083e-01
9.99542632e-01
9.99543182e-01
9.99543688e-01
9.99544096e-01
9.99544339e-01
9.99544348e-01
9.99544051e-01
9.99543366e-01
9.99542204e-01
9.99540474e-01
9.99538079e-01
9.99534918e-01
9.99530889e-01
9.99525886e-01
9.99519805e-01
9.99512544e-01
9.99504005e-01
9.99494099e-01
9.99482744e-01
9.99469874e-01
9.99455441e-01
9.99439415e-01
9.99421796e-01
9.99402612e-01
9.99381928e-01
9.99359848e-01
9.99336527e-01
9.99312167e-01
9.99287029e-01
9.99261435e-01
9.99235774e-01
9.99210498e-01
9.99186131e-01
9.99163260e-01
9.99142536e-01
9.99124663e-01
9.99110387e-01
9.99100485e-01
9.99095739e-01
9.99096921e-01
9.99104762e-01
9.99119926e-01
9.99142981e-01
9.99174367e-01
9.99214367e-01
9.99263086e-01
9.99320425e-01
9.99386073e-01
9.99459494e-01
9.99539939e-01
9.99626455e-01
9.99717906e-01
9.99813013e-01
9.99910386e-01
1.00000858e+00
1.00010612e+00
1.00020161e+00
1.00029370e+00
1.00038119e+00
1.00046307e+00
1.00053849e+00
1.00060685e+00
1.00066777e+00
1.00072110e+00
1.00076691e+00
1.00080546e+00
1.00083719e+00
1.00086268e+00
1.00088261e+00
1.00089774e+00
1.00090886e+00
1.00091674e+00
1.00092216e+00
1.00092582e+00
1.00092833e+00
1.00093023e+00
1.00093197e+00
1.00093389e+00
1.00093623e+00
1.00093913e+00
1.00094267e+00
1.00094685e+00
1.00095161e+00
1.00095684e+00
1.00096242e+00
1.00096819e+00
1.00097401e+00
1.00097973e+00
1.00098520e+00
1.00099032e+00
1.00099498e+00
1.00099912e+00
1.00100268e+00
1.00100566e+00
1.00100803e+00
1.00100984e+00
1.00101110e+00
1.00101187e+00
1.00101220e+00
1.00101215e+00
1.00101177e+00
1.00101112e+00
1.00101026e+00
1.00100924e+00
1.00100809e+00
1.00100685e+00
1.00100556e+00
1.00100425e+00
1.00100292e+00
1.00100161e+00
1.00100034e+00
1.00099909e+00
1.00099786e+00
1.00099665e+00
1.00099544e+00
1.00099429e+00
1.00099324e+00
9.99541956e-01
9.99540731e-01
9.99539669e-01
9.99538850e-01
9.99538271e-01
9.99537904e-01
9.99537711e-01
9.99537652e-01
9.99537693e-01
9.99537819e-01
9.99537996e-01
9.99538178e-01
9.99538325e-01
9.99538385e-01
9.99538296e-01
9.99537995e-01
9.99537414e-01
9.99536475e-01
9.99535098e-01
9.99533198e-01
9.99530684e-01
9.99527462e-01
9.99523434e-01
9.99518500e-01
9.99512560e-01
9.99505511e-01
9.99497254e-01
9.99487693e-01
9.99476740e-01
9.99464316e-01
9.99450353e-01
9.99434803e-01
9.99417638e-01
9.99398856e-01
9.99378489e-01
9.99356606e-01
9.99333320e-01
9.99308794e-01
9.99283251e-01
9.99256971e-01
9.99230304e-01
9.99203672e-01
9.99177567e-01
9.99152555e-01
9.99129272e-01
9.99108414e-01
9.99090735e-01
9.99077024e-01
9.99068094e-01
9.99064758e-01
9.99067805e-01
9.99077968e-01
9.99095900e-01
9.99122139e-01
9.99157083e-01
9.99200956e-01
9.99253791e-01
9.99315410e-01
9.99385415e-01
9.99463185e-01
9.99547885e-01
9.99638485e-01
9.99733785e-01
9.99832451e-01
9.99933057e-01
1.00003413e+00
1.00013421e+00
1.00023187e+00
1.00032581e+00
1.00041484e+00
1.00049798e+00
1.00057441e+00
1.00064356e+00
1.00070507e+00
1.00075882e+00
1.00080487e+00
1.00084351e+00
1.00087517e+00
1.00090043e+00
1.00091997e+00
1.00093452e+00
1.00094489e+00
1.00095184e+00
1.00095613e+00
1.00095848e+00
1.00095951e+00
1.00095977e+00
1.00095972e+00
1.00095973e+00
1.00096005e+00
1.00096088e+00
1.00096230e+00
1.00096434e+00
1.00096698e+00
1.00097014e+00
1.00097371e+00
1.00097757e+00
1.00098159e+00
1.00098562e+00
1.00098954e+00
1.00099325e+00
1.00099666e+00
1.00099968e+00
1.00100229e+00
1.00100444e+00
1.00100613e+00
1.00100738e+00
1.00100820e+00
1.00100863e+00
1.00100872e+00
1.00100850e+00
1.00100803e+00
1.00100735e+00
1.00100650e+00
1.00100551e+00
1.00100443e+00
1.00100327e+00
1.00100207e+00
1.00100083e+00
1.00099958e+00
1.00099833e+00
1.00099710e+00
1.00099588e+00
1.00099466e+00
1.00099343e+00
1.00099219e+00
1.00099096e+00
1.00098981e+00
9.99539299e-01
9.99537965e-01
9.99536787e-01
9.99535822e-01
9.99535081e-01
9.99534540e-01
9.99534138e-01
9.99533834e-01
9.99533609e-01
9.99533432e-01
9.99533259e-01
9.99533054e-01
9.99532769e-01
9.99532345e-01
9.99531721e-01
9.99530832e-01
9.99529608e-01
9.99527971e-01
9.99525840e-01
9.99523133e-01
9.99519760e-01
9.99515629e-01
9.99510646e-01
9.99504715e-01
9.99497738e-01
9.99489617e-01
9.99480256e-01
9.99469563e-01
9.99457451e-01
9.99443844e-01
9.99428677e-01
9.99411903e-01
9.99393497e-01
9.99373461e-01
9.99351830e-01
9.99328681e-01
9.99304138e-01
9.99278379e-01
9.99251641e-01
9.99224232e-01
9.99196529e-01
9.99168986e-01
9.99142137e-01
9.99116587e-01
9.99093017e-01
9.99072172e-01
9.99054845e-01
9.99041868e-01
9.99034088e-01
9.99032340e-01
9.99037426e-01
9.99050079e-01
9.99070936e-01
9.99100506e-01
9.99139139e-01
9.99187001e-01
9.99244054e-01
9.99310043e-01
9.99384484e-01
9.99466676e-01
9.99555703e-01
9.99650462e-01
9.99749694e-01
9.99852014e-01
9.99955964e-01
1.00006005e+00
1.00016281e+00
1.00026283e+00
1.00035880e+00
1.00044958e+00
1.00053420e+00
1.00061188e+00
1.00068206e+00
1.00074440e+00
1.00079879e+00
1.00084532e+00
1.00088425e+00
1.00091603e+00
1.00094121e+00
1.00096048e+00
1.00097456e+00
1.00098423e+00
1.00099027e+00
1.00099343e+00
1.00099443e+00
1.00099391e+00
1.00099243e+00
1.00099048e+00
1.00098844e+00
1.00098660e+00
1.00098517e+00
1.00098430e+00
1.00098403e+00
1.00098436e+00
1.00098527e+00
1.00098666e+00
1.00098843e+00
1.00099048e+00
1.00099268e+00
1.00099492e+00
1.00099710e+00
1.00099914e+00
1.00100096e+00
1.00100251e+00
1.00100377e+00
1.00100472e+00
1.00100535e+00
1.00100569e+00
1.00100576e+00
1.00100557e+00
1.00100517e+00
1.00100459e+00
1.00100386e+00
1.00100300e+00
1.00100205e+00
1.00100102e+00
1.00099993e+00
1.00099880e+00
1.00099763e+00
1.00099645e+00
1.00099526e+00
1.00099406e+00
1.00099287e+00
1.00099166e+00
1.00099041e+00
1.00098912e+00
1.00098784e+00
1.00098660e+00
9.99536011e-01
9.99534576e-01
9.99533279e-01
9.99532180e-01
9.99531283e-01
9.99530555e-01
9.99529934e-01
9.99529387e-01
9.99528880e-01
9.99528377e-01
9.99527841e-01
9.99527225e-01
9.99526476e-01
9.99525534e-01
9.99524337e-01
9.99522816e-01
9.99520897e-01
9.99518505e-01
9.99515559e-01
9.99511975e-01
9.99507667e-01
9.99502546e-01
9.99496520e-01
9.99489498e-01
9.99481385e-01
9.99472088e-01
9.99461516e-01
9.99449581e-01
9.99436200e-01
9.99421302e-01
9.99404826e-01
9.99386728e-01
9.99366990e-01
9.99345618e-01
9.99322658e-01
9.99298195e-01
9.99272365e-01
9.99245364e-01
9.99217449e-01
9.99188951e-01
9.99160278e-01
9.99131918e-01
9.99104439e-01
9.99078490e-01
9.99054793e-01
9.99034131e-01
9.99017341e-01
9.99005287e-01
9.98998844e-01
9.98998868e-01
9.99006166e-01
9.99021467e-01
9.99045388e-01
9.99078405e-01
9.99120820e-01
9.99172740e-01
9.99234060e-01
9.99304447e-01
9.99383341e-01
9.99469959e-01
9.99563315e-01
9.99662240e-01
9.99765418e-01
9.99871425e-01
9.99978772e-01
1.00008595e+00
1.00019150e+00
1.00029400e+00
1.00039218e+00
1.00048491e+00
1.00057122e+00
1.00065038e+00
1.00072184e+00
1.00078528e+00
1.00084058e+00
1.00088783e+00
1.00092729e+00
1.00095940e+00
1.00098471e+00
1.00100387e+00
1.00101761e+00
1.00102669e+00
1.00103189e+00
1.00103395e+00
1.00103360e+00
1.00103149e+00
1.00102821e+00
1.00102426e+00
1.00102004e+00
1.00101590e+00
1.00101208e+00
1.00100874e+00
1.00100599e+00
1.00100385e+00
1.00100232e+00
1.00100136e+00
1.00100089e+00
1.00100081e+00
1.00100103e+00
1.00100145e+00
1.00100198e+00
1.00100254e+00
1.00100306e+00
1.00100348e+00
1.00100377e+00
1.00100391e+00
1.00100388e+00
1.00100370e+00
1.00100335e+00
1.00100287e+00
1.00100226e+00
1.00100155e+00
1.00100075e+00
1.00099987e+00
1.00099894e+00
1.00099795e+00
1.00099692e+00
1.00099585e+00
1.00099475e+00
1.00099362e+00
1.00099247e+00
1.00099131e+00
1.00099013e+00
1.00098892e+00
1.00098766e+00
1.00098634e+00
1.00098500e+00
1.00098368e+00
9.99532040e-01
9.99530516e-01
9.99529107e-01
9.99527878e-01
9.99526826e-01
9.99525906e-01
9.99525066e-01
9.99524266e-01
9.99523462e-01
9.99522621e-01
9.99521701e-01
9.99520649e-01
9.99519407e-01
9.99517915e-01
9.99516106e-01
9.99513906e-01
9.99511243e-01
9.99508039e-01
9.99504214e-01
9.99499684e-01
9.99494366e-01
9.99488172e-01
9.99481015e-01
9.99472808e-01
9.99463461e-01
9.99452886e-01
9.99440998e-01
9.99427714e-01
9.99412959e-01
9.99396667e-01
9.99378782e-01
9.99359271e-01
9.99338121e-01
9.99315349e-01
9.99291009e-01
9.99265202e-01
9.99238079e-01
9.99209852e-01
9.99180802e-01
9.99151286e-01
9.99121740e-01
9.99092685e-01
9.99064724e-01
9.99038544e-01
9.99014902e-01
9.98994622e-01
9.98978571e-01
9.98967644e-01
9.98962737e-01
9.98964717e-01
9.98974395e-01
9.98992488e-01
9.99019590e-01
9.99056140e-01
9.99102392e-01
9.99158397e-01
9.99223980e-01
9.99298737e-01
9.99382036e-01
9.99473023e-01
9.99570645e-01
9.99673676e-01
9.99780753e-01
9.99890418e-01
1.00000116e+00
1.00011146e+00
1.00021986e+00
1.00032495e+00
1.00042548e+00
1.00052032e+00
1.00060855e+00
1.00068943e+00
1.00076242e+00
1.00082722e+00
1.00088371e+00
1.00093196e+00
1.00097223e+00
1.00100493e+00
1.00103059e+00
1.00104986e+00
1.00106343e+00
1.00107207e+00
1.00107652e+00
1.00107756e+00
1.00107589e+00
1.00107219e+00
1.00106707e+00
1.00106104e+00
1.00105457e+00
1.00104801e+00
1.00104166e+00
1.00103571e+00
1.00103031e+00
1.00102553e+00
1.00102141e+00
1.00101793e+00
1.00101505e+00
1.00101270e+00
1.00101080e+00
1.00100927e+00
1.00100802e+00
1.00100699e+00
1.00100611e+00
1.00100531e+00
1.00100456e+00
1.00100383e+00
1.00100309e+00
1.00100232e+00
1.00100153e+00
1.00100072e+00
1.00099987e+00
1.00099901e+00
1.00099811e+00
1.00099720e+00
1.00099626e+00
1.00099530e+00
1.00099431e+00
1.00099330e+00
1.00099225e+00
1.00099116e+00
1.00099005e+00
1.00098891e+00
1.00098774e+00
1.00098653e+00
1.00098525e+00
1.00098390e+00
1.00098251e+00
1.00098111e+00
9.99527349e-01
9.99525748e-01
9.99524235e-01
9.99522876e-01
9.99521665e-01
9.99520557e-01
9.99519493e-01
9.99518426e-01
9.99517316e-01
9.99516123e-01
9.99514798e-01
9.99513284e-01
9.99511522e-01
9.99509445e-01
9.99506982e-01
9.99504059e-01
9.99500601e-01
9.99496528e-01
9.99491760e-01
9.99486214e-01
9.99479809e-01
9.99472461e-01
9.99464086e-01
9.99454601e-01
9.99443923e-01
9.99431971e-01
9.99418665e-01
9.99403931e-01
9.99387702e-01
9.99369920e-01
9.99350539e-01
9.99329536e-01
9.99306908e-01
9.99282686e-01
9.99256937e-01
9.99229778e-01
9.99201376e-01
9.99171966e-01
9.99141851e-01
9.99111414e-01
9.99081120e-01
9.99051520e-01
9.99023251e-01
9.98997031e-01
9.98973654e-01
9.98953971e-01
9.98938878e-01
9.98929292e-01
9.98926123e-01
9.98930244e-01
9.98942460e-01
9.98963474e-01
9.98993851e-01
9.99033992e-01
9.99084102e-01
9.99144173e-01
9.99213968e-01
9.99293017e-01
9.99380620e-01
9.99475859e-01
9.99577625e-01
9.99684643e-01
9.99795514e-01
9.99908752e-01
1.00002284e+00
1.00013624e+00
1.00024751e+00
1.00035526e+00
1.00045825e+00
1.00055537e+00
1.00064570e+00
1.00072853e+00
1.00080333e+00
1.00086977e+00
1.00092774e+00
1.00097729e+00
1.00101866e+00
1.00105224e+00
1.00107853e+00
1.00109814e+00
1.00111176e+00
1.00112012e+00
1.00112399e+00
1.00112409e+00
1.00112118e+00
1.00111592e+00
1.00110895e+00
1.00110082e+00
1.00109202e+00
1.00108295e+00
1.00107395e+00
1.00106526e+00
1.00105708e+00
1.00104951e+00
1.00104264e+00
1.00103649e+00
1.00103105e+00
1.00102627e+00
1.00102211e+00
1.00101849e+00
1.00101536e+00
1.00101263e+00
1.00101024e+00
1.00100814e+00
1.00100627e+00
1.00100459e+00
1.00100308e+00
1.00100169e+00
1.00100041e+00
1.00099922e+00
1.00099811e+00
1.00099706e+00
1.00099605e+00
1.00099508e+00
1.00099412e+00
1.00099317e+00
1.00099221e+00
1.00099122e+00
1.00099021e+00
1.00098916e+00
1.00098807e+00
1.00098694e+00
1.00098577e+00
1.00098455e+00
1.00098324e+00
1.00098185e+00
1.00098041e+00
1.00097896e+00
9.99521911e-01
9.99520237e-01
9.99518624e-01
9.99517137e-01
9.99515769e-01
9.99514469e-01
9.99513172e-01
9.99511830e-01
9.99510402e-01
9.99508840e-01
9.99507087e-01
9.99505088e-01
9.99502775e-01
9.99500077e-01
9.99496920e-01
9.99493228e-01
9.99488921e-01
9.99483920e-01
9.99478144e-01
9.99471513e-01
9.99463945e-01
9.99455361e-01
9.99445682e-01
9.99434829e-01
9.99422726e-01
9.99409300e-01
9.99394480e-01
9.99378201e-01
9.99360406e-01
9.99341049e-01
9.99320097e-01
9.99297537e-01
9.99273383e-01
9.99247679e-01
9.99220512e-01
9.99192013e-01
9.99162373e-01
9.99131847e-01
9.99100763e-01
9.99069528e-01
9.99038637e-01
9.99008668e-01
9.98980287e-01
9.98954243e-01
9.98931355e-01
9.98912501e-01
9.98898595e-01
9.98890569e-01
9.98889340e-01
9.98895780e-01
9.98910683e-01
9.98934729e-01
9.98968453e-01
9.99012214e-01
9.99066167e-01
9.99130249e-01
9.99204163e-01
9.99287377e-01
9.99379132e-01
9.99478456e-01
9.99584192e-01
9.99695027e-01
9.99809535e-01
9.99926214e-01
1.00004354e+00