# vtk DataFile Version 2.0
LBM Flow Field - Timestep 1120
ASCII
DATASET STRUCTURED_POINTS
DIMENSIONS 128 128 1
ORIGIN 0.0 0.0 0.0
SPACING 1.0 1.0 1.0
POINT_DATA 16384
SCALARS density double 1
LOOKUP_TABLE default
9.97071668e-01
9.97076670e-01
9.97090635e-01
9.97130975e-01
9.97183719e-01
9.97244928e-01
9.97318156e-01
9.97402534e-01
9.97494819e-01
9.97594122e-01
9.97699574e-01
9.97809422e-01
9.97921927e-01
9.98035723e-01
9.98149390e-01
9.98261533e-01
9.98370951e-01
9.98476653e-01
9.98577825e-01
9.98673873e-01
9.98764432e-01
9.98849352e-01
9.98928681e-01
9.99002637e-01
9.99071580e-01
9.99135973e-01
9.99196345e-01
9.99253252e-01
9.99307242e-01
9.99358826e-01
9.99408455e-01
9.99456497e-01
9.99503234e-01
9.99548853e-01
9.99593449e-01
9.99637036e-01
9.99679556e-01
9.99720895e-01
9.99760903e-01
9.99799406e-01
9.99836229e-01
9.99871207e-01
9.99904204e-01
9.99935116e-01
9.99963889e-01
9.99990513e-01
1.00001503e+00
1.00003754e+00
1.00005818e+00
1.00007712e+00
1.00009460e+00
1.00011084e+00
1.00012611e+00
1.00014067e+00
1.00015480e+00
1.00016876e+00
1.00018280e+00
1.00019714e+00
1.00021200e+00
1.00022755e+00
1.00024394e+00
1.00026128e+00
1.00027967e+00
1.00029917e+00
1.00031980e+00
1.00034158e+00
1.00036448e+00
1.00038848e+00
1.00041352e+00
1.00043953e+00
1.00046644e+00
1.00049415e+00
1.00052256e+00
1.00055155e+00
1.00058102e+00
1.00061083e+00
1.00064086e+00
1.00067098e+00
1.00070106e+00
1.00073099e+00
1.00076065e+00
1.00078995e+00
1.00081880e+00
1.00084716e+00
1.00087498e+00
1.00090229e+00
1.00092913e+00
1.00095556e+00
1.00098173e+00
1.00100778e+00
1.00103391e+00
1.00106037e+00
1.00108743e+00
1.00111537e+00
1.00114452e+00
1.00117519e+00
1.00120773e+00
1.00124246e+00
1.00127970e+00
1.00131975e+00
1.00136286e+00
1.00140929e+00
1.00145921e+00
1.00151276e+00
1.00157003e+00
1.00163102e+00
1.00169567e+00
1.00176385e+00
1.00183533e+00
1.00190980e+00
1.00198685e+00
1.00206598e+00
1.00214660e+00
1.00222803e+00
1.00230952e+00
1.00239019e+00
1.00246917e+00
1.00254565e+00
1.00261851e+00
1.00268658e+00
1.00274943e+00
1.00280674e+00
1.00285546e+00
1.00289504e+00
1.00293007e+00
1.00295705e+00
1.00295605e+00
1.00295081e+00
9.97076886e-01
9.97089773e-01
9.97108925e-01
9.97147452e-01
9.97198462e-01
9.97260650e-01
9.97333630e-01
9.97416977e-01
9.97508641e-01
9.97607499e-01
9.97712090e-01
9.97821005e-01
9.97932637e-01
9.98045541e-01
9.98158273e-01
9.98269541e-01
9.98378163e-01
9.98483157e-01
9.98583729e-01
9.98679307e-01
9.98769528e-01
9.98854239e-01
9.98933480e-01
9.99007455e-01
9.99076503e-01
9.99141064e-01
9.99201640e-01
9.99258762e-01
9.99312952e-01
9.99364701e-01
9.99414440e-01
9.99462523e-01
9.99509224e-01
9.99554725e-01
9.99599123e-01
9.99642435e-01
9.99684613e-01
9.99725555e-01
9.99765122e-01
9.99803158e-01
9.99839499e-01
9.99873997e-01
9.99906528e-01
9.99937000e-01
9.99965365e-01
9.99991624e-01
1.00001582e+00
1.00003806e+00
1.00005847e+00
1.00007724e+00
1.00009457e+00
1.00011071e+00
1.00012591e+00
1.00014043e+00
1.00015452e+00
1.00016846e+00
1.00018248e+00
1.00019680e+00
1.00021162e+00
1.00022712e+00
1.00024344e+00
1.00026070e+00
1.00027897e+00
1.00029833e+00
1.00031881e+00
1.00034040e+00
1.00036310e+00
1.00038688e+00
1.00041167e+00
1.00043743e+00
1.00046406e+00
1.00049148e+00
1.00051958e+00
1.00054827e+00
1.00057743e+00
1.00060692e+00
1.00063664e+00
1.00066646e+00
1.00069625e+00
1.00072589e+00
1.00075529e+00
1.00078433e+00
1.00081296e+00
1.00084112e+00
1.00086878e+00
1.00089594e+00
1.00092266e+00
1.00094901e+00
1.00097511e+00
1.00100111e+00
1.00102722e+00
1.00105367e+00
1.00108072e+00
1.00110865e+00
1.00113778e+00
1.00116843e+00
1.00120092e+00
1.00123558e+00
1.00127271e+00
1.00131262e+00
1.00135556e+00
1.00140178e+00
1.00145144e+00
1.00150470e+00
1.00156163e+00
1.00162225e+00
1.00168649e+00
1.00175423e+00
1.00182525e+00
1.00189923e+00
1.00197578e+00
1.00205441e+00
1.00213454e+00
1.00221549e+00
1.00229651e+00
1.00237680e+00
1.00245544e+00
1.00253157e+00
1.00260412e+00
1.00267230e+00
1.00273500e+00
1.00279174e+00
1.00284066e+00
1.00288193e+00
1.00291514e+00
1.00294001e+00
1.00294584e+00
1.00295233e+00
9.97086803e-01
9.97104182e-01
9.97134254e-01
9.97169185e-01
9.97217460e-01
9.97281405e-01
9.97355019e-01
9.97437131e-01
9.97528302e-01
9.97626961e-01
9.97730961e-01
9.97839102e-01
9.97950057e-01
9.98062245e-01
9.98174218e-01
9.98284746e-01
9.98392686e-01
9.98497053e-01
9.98597076e-01
9.98692196e-01
9.98782058e-01
9.98866507e-01
9.98945576e-01
9.99019459e-01
9.99088479e-01
9.99153053e-01
9.99213664e-01
9.99270817e-01
9.99325015e-01
9.99376727e-01
9.99426366e-01
9.99474276e-01
9.99520720e-01
9.99565877e-01
9.99609844e-01
9.99652643e-01
9.99694234e-01
9.99734527e-01
9.99773397e-01
9.99810701e-01
9.99846294e-01
9.99880041e-01
9.99911831e-01
9.99941588e-01
9.99969275e-01
9.99994898e-01
1.00001851e+00
1.00004022e+00
1.00006015e+00
1.00007849e+00
1.00009545e+00
1.00011126e+00
1.00012617e+00
1.00014043e+00
1.00015429e+00
1.00016801e+00
1.00018182e+00
1.00019593e+00
1.00021054e+00
1.00022582e+00
1.00024190e+00
1.00025890e+00
1.00027690e+00
1.00029596e+00
1.00031610e+00
1.00033734e+00
1.00035966e+00
1.00038304e+00
1.00040741e+00
1.00043272e+00
1.00045890e+00
1.00048585e+00
1.00051347e+00
1.00054167e+00
1.00057034e+00
1.00059934e+00
1.00062857e+00
1.00065790e+00
1.00068722e+00
1.00071641e+00
1.00074537e+00
1.00077400e+00
1.00080224e+00
1.00083003e+00
1.00085734e+00
1.00088420e+00
1.00091064e+00
1.00093673e+00
1.00096260e+00
1.00098839e+00
1.00101431e+00
1.00104057e+00
1.00106744e+00
1.00109519e+00
1.00112413e+00
1.00115457e+00
1.00118683e+00
1.00122124e+00
1.00125809e+00
1.00129768e+00
1.00134027e+00
1.00138610e+00
1.00143533e+00
1.00148813e+00
1.00154455e+00
1.00160464e+00
1.00166833e+00
1.00173550e+00
1.00180594e+00
1.00187935e+00
1.00195535e+00
1.00203346e+00
1.00211310e+00
1.00219362e+00
1.00227428e+00
1.00235429e+00
1.00243276e+00
1.00250867e+00
1.00258121e+00
1.00264971e+00
1.00271254e+00
1.00276855e+00
1.00281875e+00
1.00286255e+00
1.00289302e+00
1.00291329e+00
1.00293495e+00
1.00294787e+00
9.97115821e-01
9.97130501e-01
9.97157809e-01
9.97195400e-01
9.97246431e-01
9.97308700e-01
9.97381235e-01
9.97463696e-01
9.97554657e-01
9.97652405e-01
9.97755751e-01
9.97863322e-01
9.97973538e-01
9.98084940e-01
9.98196202e-01
9.98306051e-01
9.98413349e-01
9.98517151e-01
9.98616701e-01
9.98711439e-01
9.98801008e-01
9.98885253e-01
9.98964193e-01
9.99038003e-01
9.99106987e-01
9.99171540e-01
9.99232119e-01
9.99289206e-01
9.99343281e-01
9.99394796e-01
9.99444148e-01
9.99491671e-01
9.99537622e-01
9.99582179e-01
9.99625446e-01
9.99667453e-01
9.99708171e-01
9.99747527e-01
9.99785412e-01
9.99821701e-01
9.99856268e-01
9.99888994e-01
9.99919786e-01
9.99948580e-01
9.99975350e-01
1.00000011e+00
1.00002293e+00
1.00004389e+00
1.00006315e+00
1.00008089e+00
1.00009729e+00
1.00011260e+00
1.00012704e+00
1.00014088e+00
1.00015434e+00
1.00016768e+00
1.00018111e+00
1.00019485e+00
1.00020908e+00
1.00022396e+00
1.00023963e+00
1.00025619e+00
1.00027373e+00
1.00029230e+00
1.00031193e+00
1.00033263e+00
1.00035439e+00
1.00037717e+00
1.00040094e+00
1.00042562e+00
1.00045115e+00
1.00047743e+00
1.00050439e+00
1.00053191e+00
1.00055988e+00
1.00058820e+00
1.00061675e+00
1.00064541e+00
1.00067406e+00
1.00070260e+00
1.00073093e+00
1.00075895e+00
1.00078661e+00
1.00081384e+00
1.00084064e+00
1.00086701e+00
1.00089299e+00
1.00091866e+00
1.00094414e+00
1.00096957e+00
1.00099515e+00
1.00102109e+00
1.00104765e+00
1.00107509e+00
1.00110373e+00
1.00113386e+00
1.00116580e+00
1.00119986e+00
1.00123634e+00
1.00127553e+00
1.00131768e+00
1.00136302e+00
1.00141174e+00
1.00146398e+00
1.00151982e+00
1.00157929e+00
1.00164234e+00
1.00170886e+00
1.00177863e+00
1.00185139e+00
1.00192676e+00
1.00200426e+00
1.00208335e+00
1.00216339e+00
1.00224364e+00
1.00232329e+00
1.00240152e+00
1.00247741e+00
1.00254990e+00
1.00261815e+00
1.00268148e+00
1.00273851e+00
1.00278810e+00
1.00283064e+00
1.00286543e+00
1.00288918e+00
1.00290681e+00
1.00291651e+00
9.97151403e-01
9.97165167e-01
9.97189491e-01
9.97229700e-01
9.97281328e-01
9.97342061e-01
9.97414509e-01
9.97497100e-01
9.97587252e-01
9.97684137e-01
9.97786879e-01
9.97893702e-01
9.98003033e-01
9.98113605e-01
9.98224090e-01
9.98333186e-01
9.98439801e-01
9.98543019e-01
9.98642085e-01
9.98736441e-01
9.98825732e-01
9.98909791e-01
9.98988622e-01
9.99062377e-01
9.99131334e-01
9.99195860e-01
9.99256383e-01
9.99313359e-01
9.99367241e-01
9.99418461e-01
9.99467400e-01
9.99514382e-01
9.99559659e-01
9.99603413e-01
9.99645753e-01
9.99686722e-01
9.99726308e-01
9.99764455e-01
9.99801078e-01
9.99836074e-01
9.99869337e-01
9.99900771e-01
9.99930300e-01
9.99957876e-01
9.99983487e-01
1.00000716e+00
1.00002896e+00
1.00004898e+00
1.00006738e+00
1.00008432e+00
1.00010001e+00
1.00011465e+00
1.00012848e+00
1.00014174e+00
1.00015466e+00
1.00016747e+00
1.00018039e+00
1.00019361e+00
1.00020731e+00
1.00022165e+00
1.00023675e+00
1.00025272e+00
1.00026964e+00
1.00028755e+00
1.00030650e+00
1.00032648e+00
1.00034749e+00
1.00036950e+00
1.00039247e+00
1.00041633e+00
1.00044101e+00
1.00046644e+00
1.00049252e+00
1.00051916e+00
1.00054626e+00
1.00057369e+00
1.00060136e+00
1.00062914e+00
1.00065693e+00
1.00068463e+00
1.00071213e+00
1.00073937e+00
1.00076626e+00
1.00079277e+00
1.00081888e+00
1.00084460e+00
1.00086998e+00
1.00089509e+00
1.00092004e+00
1.00094499e+00
1.00097011e+00
1.00099563e+00
1.00102178e+00
1.00104884e+00
1.00107709e+00
1.00110683e+00
1.00113836e+00
1.00117200e+00
1.00120802e+00
1.00124673e+00
1.00128835e+00
1.00133313e+00
1.00138124e+00
1.00143283e+00
1.00148799e+00
1.00154673e+00
1.00160903e+00
1.00167477e+00
1.00174378e+00
1.00181576e+00
1.00189038e+00
1.00196718e+00
1.00204561e+00
1.00212506e+00
1.00220483e+00
1.00228408e+00
1.00236196e+00
1.00243771e+00
1.00251030e+00
1.00257844e+00
1.00264166e+00
1.00269966e+00
1.00275010e+00
1.00279145e+00
1.00282729e+00
1.00285522e+00
1.00286997e+00
1.00287835e+00
9.97190355e-01
9.97205524e-01
9.97231760e-01
9.97270569e-01
9.97320689e-01
9.97382673e-01
9.97455220e-01
9.97536416e-01
9.97625799e-01
9.97722331e-01
9.97824207e-01
9.97929978e-01
9.98038437e-01
9.98148164e-01
9.98257758e-01
9.98366035e-01
9.98471940e-01
9.98574541e-01
9.98673093e-01
9.98767051e-01
9.98856053e-01
9.98939916e-01
9.99018623e-01
9.99092306e-01
9.99161210e-01
9.99225672e-01
9.99286088e-01
9.99342883e-01
9.99396486e-01
9.99447304e-01
9.99495703e-01
9.99541996e-01
9.99586433e-01
9.99629198e-01
9.99670408e-01
9.99710123e-01
9.99748348e-01
9.99785052e-01
9.99820171e-01
9.99853629e-01
9.99885344e-01
9.99915243e-01
9.99943272e-01
9.99969401e-01
9.99993633e-01
1.00001600e+00
1.00003658e+00
1.00005548e+00
1.00007284e+00
1.00008882e+00
1.00010362e+00
1.00011744e+00
1.00013051e+00
1.00014306e+00
1.00015529e+00
1.00016744e+00
1.00017970e+00
1.00019227e+00
1.00020530e+00
1.00021896e+00
1.00023335e+00
1.00024858e+00
1.00026472e+00
1.00028183e+00
1.00029993e+00
1.00031903e+00
1.00033912e+00
1.00036018e+00
1.00038217e+00
1.00040503e+00
1.00042869e+00
1.00045307e+00
1.00047810e+00
1.00050367e+00
1.00052969e+00
1.00055605e+00
1.00058265e+00
1.00060938e+00
1.00063613e+00
1.00066280e+00
1.00068931e+00
1.00071558e+00
1.00074154e+00
1.00076717e+00
1.00079244e+00
1.00081737e+00
1.00084201e+00
1.00086643e+00
1.00089074e+00
1.00091509e+00
1.00093965e+00
1.00096464e+00
1.00099030e+00
1.00101687e+00
1.00104465e+00
1.00107391e+00
1.00110496e+00
1.00113809e+00
1.00117359e+00
1.00121172e+00
1.00125273e+00
1.00129686e+00
1.00134427e+00
1.00139511e+00
1.00144946e+00
1.00150738e+00
1.00156881e+00
1.00163368e+00
1.00170179e+00
1.00177290e+00
1.00184667e+00
1.00192266e+00
1.00200035e+00
1.00207912e+00
1.00215830e+00
1.00223713e+00
1.00231470e+00
1.00239010e+00
1.00246259e+00
1.00253120e+00
1.00259448e+00
1.00265186e+00
1.00270335e+00
1.00274700e+00
1.00278166e+00
1.00280854e+00
1.00282603e+00
1.00283644e+00
9.97237307e-01
9.97252656e-01
9.97279781e-01
9.97317668e-01
9.97367736e-01
9.97429870e-01
9.97501391e-01
9.97581852e-01
9.97670820e-01
9.97766446e-01
9.97867204e-01
9.97972043e-01
9.98079568e-01
9.98188274e-01
9.98296907e-01
9.98404333e-01
9.98509470e-01
9.98611402e-01
9.98709411e-01
9.98802949e-01
9.98891641e-01
9.98975290e-01
9.99053859e-01
9.99127447e-01
9.99196270e-01
9.99260630e-01
9.99320888e-01
9.99377438e-01
9.99430678e-01
9.99480992e-01
9.99528731e-01
9.99574197e-01
9.99617637e-01
9.99659238e-01
9.99699131e-01
9.99737391e-01
9.99774046e-01
9.99809087e-01
9.99842480e-01
9.99874176e-01
9.99904119e-01
9.99932264e-01
9.99958578e-01
9.99983052e-01
1.00000570e+00
1.00002658e+00
1.00004576e+00
1.00006335e+00
1.00007950e+00
1.00009437e+00
1.00010813e+00
1.00012100e+00
1.00013318e+00
1.00014487e+00
1.00015630e+00
1.00016766e+00
1.00017914e+00
1.00019092e+00
1.00020316e+00
1.00021600e+00
1.00022955e+00
1.00024390e+00
1.00025912e+00
1.00027527e+00
1.00029237e+00
1.00031044e+00
1.00032946e+00
1.00034941e+00
1.00037025e+00
1.00039194e+00
1.00041440e+00
1.00043757e+00
1.00046137e+00
1.00048570e+00
1.00051047e+00
1.00053558e+00
1.00056093e+00
1.00058642e+00
1.00061196e+00
1.00063744e+00
1.00066279e+00
1.00068793e+00
1.00071281e+00
1.00073741e+00
1.00076170e+00
1.00078571e+00
1.00080947e+00
1.00083308e+00
1.00085664e+00
1.00088028e+00
1.00090419e+00
1.00092857e+00
1.00095364e+00
1.00097965e+00
1.00100688e+00
1.00103559e+00
1.00106609e+00
1.00109864e+00
1.00113352e+00
1.00117101e+00
1.00121133e+00
1.00125472e+00
1.00130133e+00
1.00135133e+00
1.00140481e+00
1.00146179e+00
1.00152227e+00
1.00158615e+00
1.00165329e+00
1.00172342e+00
1.00179624e+00
1.00187133e+00
1.00194820e+00
1.00202624e+00
1.00210475e+00
1.00218303e+00
1.00226027e+00
1.00233546e+00
1.00240765e+00
1.00247622e+00
1.00254010e+00
1.00259767e+00
1.00264884e+00
1.00269359e+00
1.00272917e+00
1.00275560e+00
1.00277458e+00
1.00278547e+00
9.97291864e-01
9.97306628e-01
9.97332964e-01
9.97371363e-01
9.97421685e-01
9.97482499e-01
9.97553303e-01
9.97633583e-01
9.97721554e-01
9.97815912e-01
9.97915743e-01
9.98019606e-01
9.98125954e-01
9.98233550e-01
9.98341205e-01
9.98447705e-01
9.98551998e-01
9.98653223e-01
9.98750660e-01
9.98843748e-01
9.98932106e-01
9.99015523e-01
9.99093933e-01
9.99167405e-01
9.99236119e-01
9.99300340e-01
9.99360391e-01
9.99416633e-01
9.99469433e-01
9.99519152e-01
9.99566121e-01
9.99610634e-01
9.99652935e-01
9.99693219e-01
9.99731627e-01
9.99768253e-01
9.99803149e-01
9.99836335e-01
9.99867805e-01
9.99897539e-01
9.99925513e-01
9.99951708e-01
9.99976116e-01
9.99998750e-01
1.00001964e+00
1.00003885e+00
1.00005647e+00
1.00007261e+00
1.00008740e+00
1.00010101e+00
1.00011361e+00
1.00012539e+00
1.00013655e+00
1.00014727e+00
1.00015777e+00
1.00016822e+00
1.00017881e+00
1.00018969e+00
1.00020102e+00
1.00021291e+00
1.00022549e+00
1.00023883e+00
1.00025301e+00
1.00026806e+00
1.00028403e+00
1.00030091e+00
1.00031871e+00
1.00033740e+00
1.00035694e+00
1.00037729e+00
1.00039840e+00
1.00042019e+00
1.00044259e+00
1.00046551e+00
1.00048886e+00
1.00051256e+00
1.00053650e+00
1.00056059e+00
1.00058475e+00
1.00060888e+00
1.00063291e+00
1.00065678e+00
1.00068044e+00
1.00070386e+00
1.00072704e+00
1.00075000e+00
1.00077279e+00
1.00079548e+00
1.00081818e+00
1.00084103e+00
1.00086420e+00
1.00088788e+00
1.00091229e+00
1.00093768e+00
1.00096429e+00
1.00099239e+00
1.00102226e+00
1.00105417e+00
1.00108838e+00
1.00112516e+00
1.00116472e+00
1.00120730e+00
1.00125305e+00
1.00130214e+00
1.00135465e+00
1.00141062e+00
1.00147006e+00
1.00153289e+00
1.00159896e+00
1.00166804e+00
1.00173984e+00
1.00181396e+00
1.00188991e+00
1.00196714e+00
1.00204498e+00
1.00212264e+00
1.00219935e+00
1.00227433e+00
1.00234647e+00
1.00241472e+00
1.00247857e+00
1.00253700e+00
1.00258841e+00
1.00263263e+00
1.00266931e+00
1.00269695e+00
1.00271564e+00
1.00272618e+00
9.97351823e-01
9.97366615e-01
9.97392761e-01
9.97431114e-01
9.97480795e-01
9.97540901e-01
9.97611306e-01
9.97690592e-01
9.97777342e-01
9.97870752e-01
9.97969511e-01
9.98072066e-01
9.98177186e-01
9.98283672e-01
9.98390226e-01
9.98495691e-01
9.98599094e-01
9.98699569e-01
9.98796381e-01
9.98888979e-01
9.98976977e-01
9.99060138e-01
9.99138366e-01
9.99211699e-01
9.99280277e-01
9.99344325e-01
9.99404130e-01
9.99460012e-01
9.99512310e-01
9.99561357e-01
9.99607467e-01
9.99650923e-01
9.99691969e-01
9.99730805e-01
9.99767586e-01
9.99802428e-01
9.99835407e-01
9.99866572e-01
9.99895950e-01
9.99923552e-01
9.99949386e-01
9.99973462e-01
9.99995799e-01
1.00001643e+00
1.00003541e+00
1.00005281e+00
1.00006872e+00
1.00008326e+00
1.00009657e+00
1.00010880e+00
1.00012011e+00
1.00013069e+00
1.00014071e+00
1.00015036e+00
1.00015982e+00
1.00016926e+00
1.00017884e+00
1.00018871e+00
1.00019902e+00
1.00020986e+00
1.00022135e+00
1.00023357e+00
1.00024657e+00
1.00026040e+00
1.00027510e+00
1.00029066e+00
1.00030709e+00
1.00032437e+00
1.00034247e+00
1.00036135e+00
1.00038094e+00
1.00040120e+00
1.00042204e+00
1.00044339e+00
1.00046517e+00
1.00048729e+00
1.00050966e+00
1.00053220e+00
1.00055483e+00
1.00057746e+00
1.00060003e+00
1.00062249e+00
1.00064479e+00
1.00066692e+00
1.00068887e+00
1.00071068e+00
1.00073238e+00
1.00075406e+00
1.00077582e+00
1.00079780e+00
1.00082016e+00
1.00084308e+00
1.00086678e+00
1.00089147e+00
1.00091742e+00
1.00094486e+00
1.00097406e+00
1.00100528e+00
1.00103877e+00
1.00107478e+00
1.00111354e+00
1.00115524e+00
1.00120008e+00
1.00124819e+00
1.00129967e+00
1.00135459e+00
1.00141292e+00
1.00147463e+00
1.00153957e+00
1.00160753e+00
1.00167825e+00
1.00175134e+00
1.00182633e+00
1.00190266e+00
1.00197973e+00
1.00205679e+00
1.00213296e+00
1.00220746e+00
1.00227945e+00
1.00234777e+00
1.00241138e+00
1.00246983e+00
1.00252191e+00
1.00256632e+00
1.00260310e+00
1.00263142e+00
1.00265051e+00
1.00266132e+00
9.97417201e-01
9.97432132e-01
9.97458447e-01
9.97496128e-01
9.97545070e-01
9.97604860e-01
9.97674371e-01
9.97752367e-01
9.97838141e-01
9.97930457e-01
9.98027802e-01
9.98129013e-01
9.98232906e-01
9.98338126e-01
9.98443451e-01
9.98547838e-01
9.98650297e-01
9.98749947e-01
9.98846085e-01
9.98938161e-01
9.99025767e-01
9.99108642e-01
9.99186664e-01
9.99259834e-01
9.99328251e-01
9.99392098e-01
9.99451621e-01
9.99507101e-01
9.99558845e-01
9.99607158e-01
9.99652336e-01
9.99694652e-01
9.99734348e-01
9.99771632e-01
9.99806673e-01
9.99839608e-01
9.99870542e-01
9.99899554e-01
9.99926702e-01
9.99952033e-01
9.99975588e-01
9.99997407e-01
1.00001754e+00
1.00003603e+00
1.00005297e+00
1.00006842e+00
1.00008251e+00
1.00009534e+00
1.00010705e+00
1.00011779e+00
1.00012771e+00
1.00013699e+00
1.00014578e+00
1.00015425e+00
1.00016257e+00
1.00017090e+00
1.00017938e+00
1.00018814e+00
1.00019732e+00
1.00020701e+00
1.00021730e+00
1.00022828e+00
1.00023999e+00
1.00025248e+00
1.00026578e+00
1.00027990e+00
1.00029484e+00
1.00031058e+00
1.00032709e+00
1.00034434e+00
1.00036228e+00
1.00038085e+00
1.00039999e+00
1.00041962e+00
1.00043968e+00
1.00046007e+00
1.00048073e+00
1.00050157e+00
1.00052253e+00
1.00054353e+00
1.00056451e+00
1.00058543e+00
1.00060626e+00
1.00062698e+00
1.00064760e+00
1.00066815e+00
1.00068868e+00
1.00070927e+00
1.00073002e+00
1.00075106e+00
1.00077255e+00
1.00079467e+00
1.00081761e+00
1.00084158e+00
1.00086682e+00
1.00089356e+00
1.00092206e+00
1.00095255e+00
1.00098529e+00
1.00102050e+00
1.00105841e+00
1.00109922e+00
1.00114310e+00
1.00119019e+00
1.00124061e+00
1.00129441e+00
1.00135160e+00
1.00141214e+00
1.00147591e+00
1.00154272e+00
1.00161230e+00
1.00168431e+00
1.00175830e+00
1.00183372e+00
1.00190994e+00
1.00198629e+00
1.00206195e+00
1.00213597e+00
1.00220751e+00
1.00227576e+00
1.00233949e+00
1.00239769e+00
1.00244987e+00
1.00249490e+00
1.00253177e+00
1.00256011e+00
1.00257988e+00
1.00259110e+00
9.97488101e-01
9.97502763e-01
9.97528843e-01
9.97566062e-01
9.97614481e-01
9.97673429e-01
9.97741789e-01
9.97818778e-01
9.97903404e-01
9.97994253e-01
9.98090185e-01
9.98190062e-01
9.98292533e-01
9.98396345e-01
9.98500410e-01
9.98603651e-01
9.98705070e-01
9.98803836e-01
9.98899260e-01
9.98990771e-01
9.99077946e-01
9.99160506e-01
9.99238299e-01
9.99311283e-01
9.99379516e-01
9.99443139e-01
9.99502353e-01
9.99557401e-01
9.99608553e-01
9.99656088e-01
9.99700282e-01
9.99741397e-01
9.99779675e-01
9.99815329e-01
9.99848546e-01
9.99879484e-01
9.99908277e-01
9.99935034e-01
9.99959849e-01
9.99982803e-01
1.00000397e+00
1.00002342e+00
1.00004124e+00
1.00005749e+00
1.00007228e+00
1.00008570e+00
1.00009786e+00
1.00010888e+00
1.00011890e+00
1.00012806e+00
1.00013650e+00
1.00014438e+00
1.00015185e+00
1.00015906e+00
1.00016616e+00
1.00017328e+00
1.00018057e+00
1.00018813e+00
1.00019608e+00
1.00020452e+00
1.00021352e+00
1.00022315e+00
1.00023346e+00
1.00024450e+00
1.00025630e+00
1.00026885e+00
1.00028217e+00
1.00029624e+00
1.00031104e+00
1.00032653e+00
1.00034267e+00
1.00035942e+00
1.00037671e+00
1.00039449e+00
1.00041268e+00
1.00043121e+00
1.00045001e+00
1.00046903e+00
1.00048818e+00
1.00050741e+00
1.00052669e+00
1.00054596e+00
1.00056520e+00
1.00058442e+00
1.00060362e+00
1.00062283e+00
1.00064212e+00
1.00066156e+00
1.00068125e+00
1.00070131e+00
1.00072189e+00
1.00074316e+00
1.00076531e+00
1.00078853e+00
1.00081304e+00
1.00083907e+00
1.00086684e+00
1.00089659e+00
1.00092856e+00
1.00096295e+00
1.00100000e+00
1.00103988e+00
1.00108278e+00
1.00112884e+00
1.00117817e+00
1.00123084e+00
1.00128687e+00
1.00134623e+00
1.00140880e+00
1.00147443e+00
1.00154287e+00
1.00161376e+00
1.00168671e+00
1.00176118e+00
1.00183655e+00
1.00191210e+00
1.00198712e+00
1.00206071e+00
1.00213184e+00
1.00219969e+00
1.00226336e+00
1.00232163e+00
1.00237367e+00
1.00241879e+00
1.00245595e+00
1.00248452e+00
1.00250459e+00
1.00251581e+00
9.97563636e-01
9.97577924e-01
9.97603579e-01
9.97640379e-01
9.97688097e-01
9.97745959e-01
9.97813277e-01
9.97889144e-01
9.97972310e-01
9.98061680e-01
9.98156197e-01
9.98254537e-01
9.98355451e-01
9.98457835e-01
9.98560561e-01
9.98662544e-01
9.98762860e-01
9.98860701e-01
9.98955357e-01
9.99046255e-01
9.99132967e-01
9.99215188e-01
9.99292727e-01
9.99365505e-01
9.99433539e-01
9.99496921e-01
9.99555808e-01
9.99610404e-01
9.99660941e-01
9.99707670e-01
9.99750847e-01
9.99790724e-01
9.99827539e-01
9.99861515e-01
9.99892854e-01
9.99921736e-01
9.99948323e-01
9.99972758e-01
9.99995169e-01
1.00001567e+00
1.00003438e+00
1.00005139e+00
1.00006682e+00
1.00008075e+00
1.00009331e+00
1.00010461e+00
1.00011477e+00
1.00012391e+00
1.00013216e+00
1.00013966e+00
1.00014655e+00
1.00015296e+00
1.00015903e+00
1.00016490e+00
1.00017070e+00
1.00017654e+00
1.00018255e+00
1.00018883e+00
1.00019547e+00
1.00020256e+00
1.00021017e+00
1.00021835e+00
1.00022717e+00
1.00023666e+00
1.00024683e+00
1.00025771e+00
1.00026929e+00
1.00028157e+00
1.00029453e+00
1.00030813e+00
1.00032236e+00
1.00033716e+00
1.00035247e+00
1.00036826e+00
1.00038445e+00
1.00040098e+00
1.00041781e+00
1.00043487e+00
1.00045210e+00
1.00046946e+00
1.00048691e+00
1.00050443e+00
1.00052200e+00
1.00053963e+00
1.00055733e+00
1.00057515e+00
1.00059313e+00
1.00061137e+00
1.00062995e+00
1.00064900e+00
1.00066865e+00
1.00068906e+00
1.00071040e+00
1.00073286e+00
1.00075663e+00
1.00078194e+00
1.00080898e+00
1.00083799e+00
1.00086918e+00
1.00090276e+00
1.00093893e+00
1.00097790e+00
1.00101982e+00
1.00106485e+00
1.00111310e+00
1.00116464e+00
1.00121951e+00
1.00127768e+00
1.00133907e+00
1.00140352e+00
1.00147080e+00
1.00154060e+00
1.00161248e+00
1.00168596e+00
1.00176046e+00
1.00183524e+00
1.00190952e+00
1.00198251e+00
1.00205327e+00
1.00212073e+00
1.00218404e+00
1.00224226e+00
1.00229427e+00
1.00233925e+00
1.00237650e+00
1.00240530e+00
1.00242549e+00
1.00243661e+00
9.97642929e-01
9.97656869e-01
9.97682134e-01
9.97718289e-01
9.97765110e-01
9.97821977e-01
9.97888170e-01
9.97962625e-01
9.98044307e-01
9.98132211e-01
9.98225114e-01
9.98321788e-01
9.98421134e-01
9.98522006e-01
9.98623272e-01
9.98723940e-01
9.98823113e-01
9.98919965e-01
9.99013798e-01
9.99104050e-01
9.99190271e-01
9.99272123e-01
9.99349388e-01
9.99421946e-01
9.99489767e-01
9.99552899e-01
9.99611452e-01
9.99665587e-01
9.99715501e-01
9.99761415e-01
9.99803564e-01
9.99842188e-01
9.99877524e-01
9.99909800e-01
9.99939236e-01
9.99966034e-01
9.99990384e-01
1.00001246e+00
1.00003243e+00
1.00005045e+00
1.00006665e+00
1.00008118e+00
1.00009416e+00
1.00010573e+00
1.00011602e+00
1.00012515e+00
1.00013325e+00
1.00014045e+00
1.00014688e+00
1.00015266e+00
1.00015793e+00
1.00016281e+00
1.00016742e+00
1.00017188e+00
1.00017631e+00
1.00018080e+00
1.00018545e+00
1.00019037e+00
1.00019561e+00
1.00020127e+00
1.00020740e+00
1.00021406e+00
1.00022129e+00
1.00022911e+00
1.00023757e+00
1.00024666e+00
1.00025640e+00
1.00026677e+00
1.00027778e+00
1.00028938e+00
1.00030157e+00
1.00031429e+00
1.00032751e+00
1.00034118e+00
1.00035525e+00
1.00036967e+00
1.00038440e+00
1.00039939e+00
1.00041459e+00
1.00042997e+00
1.00044551e+00
1.00046119e+00
1.00047701e+00
1.00049298e+00
1.00050912e+00
1.00052549e+00
1.00054213e+00
1.00055913e+00
1.00057658e+00
1.00059459e+00
1.00061329e+00
1.00063283e+00
1.00065337e+00
1.00067507e+00
1.00069812e+00
1.00072271e+00
1.00074904e+00
1.00077732e+00
1.00080774e+00
1.00084052e+00
1.00087585e+00
1.00091391e+00
1.00095488e+00
1.00099890e+00
1.00104609e+00
1.00109653e+00
1.00115027e+00
1.00120729e+00
1.00126752e+00
1.00133082e+00
1.00139697e+00
1.00146567e+00
1.00153652e+00
1.00160902e+00
1.00168259e+00
1.00175657e+00
1.00183015e+00
1.00190246e+00
1.00197267e+00
1.00203976e+00
1.00210269e+00
1.00216057e+00
1.00221246e+00
1.00225734e+00
1.00229448e+00
1.00232329e+00
1.00234359e+00
1.00235461e+00
9.97725354e-01
9.97738847e-01
9.97763631e-01
9.97799033e-01
9.97844920e-01
9.97900726e-01
9.97965606e-01
9.98038600e-01
9.98118796e-01
9.98205068e-01
9.98296244e-01
9.98391244e-01
9.98488942e-01
9.98588186e-01
9.98687944e-01
9.98787258e-01
9.98885218e-01
9.98981026e-01
9.99074004e-01
9.99163578e-01
9.99249274e-01
9.99330737e-01
9.99407713e-01
9.99480040e-01
9.99547643e-01
9.99610522e-01
9.99668743e-01
9.99722422e-01
9.99771719e-01
9.99816825e-01
9.99857953e-01
9.99895332e-01
9.99929195e-01
9.99959779e-01
9.99987316e-01
1.00001203e+00
1.00003415e+00
1.00005387e+00
1.00007140e+00
1.00008691e+00
1.00010060e+00
1.00011263e+00
1.00012316e+00
1.00013235e+00
1.00014034e+00
1.00014727e+00
1.00015328e+00
1.00015851e+00
1.00016307e+00
1.00016710e+00
1.00017071e+00
1.00017400e+00
1.00017710e+00
1.00018009e+00
1.00018308e+00
1.00018615e+00
1.00018939e+00
1.00019287e+00
1.00019665e+00
1.00020080e+00
1.00020537e+00
1.00021041e+00
1.00021595e+00
1.00022203e+00
1.00022867e+00
1.00023588e+00
1.00024367e+00
1.00025204e+00
1.00026098e+00
1.00027048e+00
1.00028051e+00
1.00029104e+00
1.00030205e+00
1.00031349e+00
1.00032534e+00
1.00033754e+00
1.00035006e+00
1.00036288e+00
1.00037596e+00
1.00038927e+00
1.00040282e+00
1.00041658e+00
1.00043058e+00
1.00044483e+00
1.00045937e+00
1.00047424e+00
1.00048951e+00
1.00050525e+00
1.00052155e+00
1.00053853e+00
1.00055628e+00
1.00057496e+00
1.00059470e+00
1.00061566e+00
1.00063800e+00
1.00066190e+00
1.00068754e+00
1.00071512e+00
1.00074482e+00
1.00077683e+00
1.00081135e+00
1.00084855e+00
1.00088860e+00
1.00093166e+00
1.00097784e+00
1.00102724e+00
1.00107990e+00
1.00113582e+00
1.00119495e+00
1.00125715e+00
1.00132222e+00
1.00138986e+00
1.00145970e+00
1.00153125e+00
1.00160391e+00
1.00167704e+00
1.00174987e+00
1.00182152e+00
1.00189108e+00
1.00195765e+00
1.00202019e+00
1.00207767e+00
1.00212923e+00
1.00217392e+00
1.00221089e+00
1.00223957e+00
1.00225985e+00
1.00227066e+00
9.97810126e-01
9.97823045e-01
9.97847223e-01
9.97881859e-01
9.97926765e-01
9.97981362e-01
9.98044868e-01
9.98116404e-01
9.98194990e-01
9.98279525e-01
9.98368969e-01
9.98462231e-01
9.98558176e-01
9.98655752e-01
9.98753969e-01
9.98851862e-01
9.98948558e-01
9.99043291e-01
9.99135382e-01
9.99224242e-01
9.99309390e-01
9.99390448e-01
9.99467122e-01
9.99539212e-01
9.99606596e-01
9.99669228e-01
9.99727126e-01
9.99780364e-01
9.99829063e-01
9.99873384e-01
9.99913519e-01
9.99949681e-01
9.99982103e-01
1.00001103e+00
1.00003670e+00
1.00005937e+00
1.00007928e+00
1.00009667e+00
1.00011178e+00
1.00012483e+00
1.00013602e+00
1.00014557e+00
1.00015366e+00
1.00016047e+00
1.00016616e+00
1.00017090e+00
1.00017481e+00
1.00017805e+00
1.00018073e+00
1.00018298e+00
1.00018489e+00
1.00018657e+00
1.00018810e+00
1.00018958e+00
1.00019109e+00
1.00019268e+00
1.00019444e+00
1.00019642e+00
1.00019867e+00
1.00020124e+00
1.00020418e+00
1.00020752e+00
1.00021130e+00
1.00021555e+00
1.00022028e+00
1.00022552e+00
1.00023127e+00
1.00023754e+00
1.00024432e+00
1.00025160e+00
1.00025938e+00
1.00026763e+00
1.00027632e+00
1.00028544e+00
1.00029495e+00
1.00030483e+00
1.00031506e+00
1.00032562e+00
1.00033649e+00
1.00034766e+00
1.00035914e+00
1.00037093e+00
1.00038306e+00
1.00039555e+00
1.00040844e+00
1.00042180e+00
1.00043567e+00
1.00045015e+00
1.00046530e+00
1.00048124e+00
1.00049807e+00
1.00051590e+00
1.00053486e+00
1.00055510e+00
1.00057677e+00
1.00060001e+00
1.00062501e+00
1.00065192e+00
1.00068094e+00
1.00071224e+00
1.00074600e+00
1.00078240e+00
1.00082161e+00
1.00086378e+00
1.00090902e+00
1.00095745e+00
1.00100911e+00
1.00106402e+00
1.00112212e+00
1.00118330e+00
1.00124735e+00
1.00131400e+00
1.00138287e+00
1.00145348e+00
1.00152528e+00
1.00159757e+00
1.00166960e+00
1.00174056e+00
1.00180948e+00
1.00187542e+00
1.00193743e+00
1.00199448e+00
1.00204561e+00
1.00208994e+00
1.00212664e+00
1.00215514e+00
1.00217526e+00
1.00218575e+00
9.97896338e-01
9.97908633e-01
9.97932137e-01
9.97965942e-01
9.98009787e-01
9.98063126e-01
9.98125239e-01
9.98195235e-01
9.98272129e-01
9.98354924e-01
9.98442590e-01
9.98534027e-01
9.98628190e-01
9.98724075e-01
9.98820693e-01
9.98917120e-01
9.99012528e-01
9.99106157e-01
9.99197324e-01
9.99285446e-01
9.99370031e-01
9.99450668e-01
9.99527031e-01
9.99598881e-01
9.99666051e-01
9.99728447e-01
9.99786039e-01
9.99838860e-01
9.99886992e-01
9.99930565e-01
9.99969747e-01
1.00000474e+00
1.00003577e+00
1.00006309e+00
1.00008695e+00
1.00010763e+00
1.00012540e+00
1.00014053e+00
1.00015328e+00
1.00016391e+00
1.00017267e+00
1.00017978e+00
1.00018547e+00
1.00018993e+00
1.00019336e+00
1.00019592e+00
1.00019775e+00
1.00019901e+00
1.00019981e+00
1.00020026e+00
1.00020046e+00
1.00020049e+00
1.00020044e+00
1.00020037e+00
1.00020035e+00
1.00020043e+00
1.00020065e+00
1.00020107e+00
1.00020173e+00
1.00020266e+00
1.00020390e+00
1.00020548e+00
1.00020743e+00
1.00020977e+00
1.00021252e+00