# vtk DataFile Version 2.0
LBM Flow Field - Timestep 1550
ASCII
DATASET STRUCTURED_POINTS
DIMENSIONS 128 128 1
ORIGIN 0.0 0.0 0.0
SPACING 1.0 1.0 1.0
POINT_DATA 16384
SCALARS density double 1
LOOKUP_TABLE default
9.93666567e-01
9.93678366e-01
9.93697751e-01
9.93726567e-01
9.93766040e-01
9.93814631e-01
9.93872908e-01
9.93940968e-01
9.94018105e-01
9.94104151e-01
9.94199116e-01
9.94302585e-01
9.94414074e-01
9.94533224e-01
9.94659558e-01
9.94792459e-01
9.94931288e-01
9.95075385e-01
9.95224022e-01
9.95376438e-01
9.95531871e-01
9.95689556e-01
9.95848734e-01
9.96008674e-01
9.96168683e-01
9.96328115e-01
9.96486375e-01
9.96642933e-01
9.96797321e-01
9.96949138e-01
9.97098045e-01
9.97243771e-01
9.97386100e-01
9.97524873e-01
9.97659979e-01
9.97791350e-01
9.97918956e-01
9.98042799e-01
9.98162904e-01
9.98279320e-01
9.98392111e-01
9.98501351e-01
9.98607126e-01
9.98709527e-01
9.98808646e-01
9.98904581e-01
9.98997426e-01
9.99087277e-01
9.99174229e-01
9.99258374e-01
9.99339804e-01
9.99418613e-01
9.99494892e-01
9.99568736e-01
9.99640244e-01
9.99709519e-01
9.99776673e-01
9.99841824e-01
9.99905103e-01
9.99966653e-01
1.00002663e+00
1.00008521e+00
1.00014258e+00
1.00019894e+00
1.00025452e+00
1.00030955e+00
1.00036429e+00
1.00041900e+00
1.00047396e+00
1.00052947e+00
1.00058581e+00
1.00064330e+00
1.00070225e+00
1.00076295e+00
1.00082572e+00
1.00089085e+00
1.00095865e+00
1.00102940e+00
1.00110337e+00
1.00118084e+00
1.00126205e+00
1.00134725e+00
1.00143665e+00
1.00153045e+00
1.00162885e+00
1.00173200e+00
1.00184004e+00
1.00195309e+00
1.00207123e+00
1.00219454e+00
1.00232302e+00
1.00245669e+00
1.00259548e+00
1.00273932e+00
1.00288809e+00
1.00304162e+00
1.00319969e+00
1.00336204e+00
1.00352838e+00
1.00369836e+00
1.00387158e+00
1.00404759e+00
1.00422592e+00
1.00440603e+00
1.00458737e+00
1.00476931e+00
1.00495123e+00
1.00513244e+00
1.00531224e+00
1.00548989e+00
1.00566465e+00
1.00583572e+00
1.00600232e+00
1.00616368e+00
1.00631899e+00
1.00646740e+00
1.00660817e+00
1.00674065e+00
1.00686396e+00
1.00697722e+00
1.00708017e+00
1.00717227e+00
1.00725212e+00
1.00731947e+00
1.00737502e+00
1.00741624e+00
1.00744462e+00
1.00746232e+00
9.93678697e-01
9.93690110e-01
9.93710434e-01
9.93739879e-01
9.93779280e-01
9.93828002e-01
9.93886343e-01
9.93954202e-01
9.94031208e-01
9.94117158e-01
9.94211873e-01
9.94315020e-01
9.94426184e-01
9.94544934e-01
9.94670769e-01
9.94803115e-01
9.94941341e-01
9.95084773e-01
9.95232697e-01
9.95384371e-01
9.95539041e-01
9.95695951e-01
9.95854357e-01
9.96013542e-01
9.96172821e-01
9.96331559e-01
9.96489170e-01
9.96645129e-01
9.96798973e-01
9.96950303e-01
9.97098783e-01
9.97244137e-01
9.97386149e-01
9.97524655e-01
9.97659540e-01
9.97790729e-01
9.97918188e-01
9.98041910e-01
9.98161918e-01
9.98278253e-01
9.98390975e-01
9.98500155e-01
9.98605874e-01
9.98708221e-01
9.98807287e-01
9.98903167e-01
9.98995957e-01
9.99085752e-01
9.99172647e-01
9.99256738e-01
9.99338118e-01
9.99416881e-01
9.99493122e-01
9.99566939e-01
9.99638433e-01
9.99707709e-01
9.99774881e-01
9.99840071e-01
9.99903410e-01
9.99965043e-01
1.00002513e+00
1.00008384e+00
1.00014136e+00
1.00019790e+00
1.00025368e+00
1.00030894e+00
1.00036392e+00
1.00041889e+00
1.00047413e+00
1.00052993e+00
1.00058658e+00
1.00064438e+00
1.00070363e+00
1.00076465e+00
1.00082772e+00
1.00089317e+00
1.00096126e+00
1.00103230e+00
1.00110655e+00
1.00118428e+00
1.00126574e+00
1.00135116e+00
1.00144076e+00
1.00153473e+00
1.00163327e+00
1.00173652e+00
1.00184463e+00
1.00195771e+00
1.00207584e+00
1.00219907e+00
1.00232743e+00
1.00246091e+00
1.00259946e+00
1.00274299e+00
1.00289138e+00
1.00304446e+00
1.00320202e+00
1.00336380e+00
1.00352950e+00
1.00369877e+00
1.00387122e+00
1.00404641e+00
1.00422387e+00
1.00440308e+00
1.00458347e+00
1.00476444e+00
1.00494537e+00
1.00512558e+00
1.00530438e+00
1.00548104e+00
1.00565482e+00
1.00582494e+00
1.00599063e+00
1.00615110e+00
1.00630555e+00
1.00645319e+00
1.00659326e+00
1.00672501e+00
1.00684765e+00
1.00696047e+00
1.00706294e+00
1.00715439e+00
1.00723402e+00
1.00730131e+00
1.00735652e+00
1.00739814e+00
1.00742762e+00
1.00744467e+00
9.93694058e-01
9.93705761e-01
9.93726018e-01
9.93755589e-01
9.93794649e-01
9.93843832e-01
9.93902339e-01
9.93969793e-01
9.94046606e-01
9.94132529e-01
9.94226992e-01
9.94329767e-01
9.94440589e-01
9.94558939e-01
9.94684268e-01
9.94816051e-01
9.94953672e-01
9.95096440e-01
9.95243649e-01
9.95394579e-01
9.95548480e-01
9.95704606e-01
9.95862225e-01
9.96020633e-01
9.96179154e-01
9.96337162e-01
9.96494080e-01
9.96649390e-01
9.96802633e-01
9.96953412e-01
9.97101393e-01
9.97246301e-01
9.97387915e-01
9.97526068e-01
9.97660642e-01
9.97791557e-01
9.97918771e-01
9.98042275e-01
9.98162083e-01
9.98278233e-01
9.98390778e-01
9.98499788e-01
9.98605339e-01
9.98707518e-01
9.98806416e-01
9.98902126e-01
9.98994745e-01
9.99084371e-01
9.99171099e-01
9.99255027e-01
9.99336252e-01
9.99414872e-01
9.99490986e-01
9.99564693e-01
9.99636099e-01
9.99705314e-01
9.99772452e-01
9.99837639e-01
9.99901008e-01
9.99962707e-01
1.00002289e+00
1.00008174e+00
1.00013944e+00
1.00019619e+00
1.00025221e+00
1.00030774e+00
1.00036303e+00
1.00041833e+00
1.00047393e+00
1.00053010e+00
1.00058713e+00
1.00064533e+00
1.00070499e+00
1.00076642e+00
1.00082991e+00
1.00089576e+00
1.00096425e+00
1.00103568e+00
1.00111030e+00
1.00118838e+00
1.00127016e+00
1.00135587e+00
1.00144572e+00
1.00153992e+00
1.00163863e+00
1.00174202e+00
1.00185020e+00
1.00196330e+00
1.00208138e+00
1.00220450e+00
1.00233267e+00
1.00246589e+00
1.00260409e+00
1.00274720e+00
1.00289508e+00
1.00304756e+00
1.00320444e+00
1.00336545e+00
1.00353030e+00
1.00369865e+00
1.00387011e+00
1.00404425e+00
1.00422061e+00
1.00439866e+00
1.00457787e+00
1.00475764e+00
1.00493734e+00
1.00511632e+00
1.00529390e+00
1.00546936e+00
1.00564196e+00
1.00581094e+00
1.00597555e+00
1.00613497e+00
1.00628842e+00
1.00643519e+00
1.00657444e+00
1.00670532e+00
1.00682726e+00
1.00693969e+00
1.00704153e+00
1.00713207e+00
1.00721163e+00
1.00727932e+00
1.00733364e+00
1.00737523e+00
1.00740448e+00
1.00742188e+00
9.93711197e-01
9.93722529e-01
9.93743824e-01
9.93774193e-01
9.93813472e-01
9.93862299e-01
9.93920601e-01
9.93988185e-01
9.94064883e-01
9.94150425e-01
9.94244590e-01
9.94347078e-01
9.94457465e-01
9.94575301e-01
9.94700097e-01
9.94831283e-01
9.94968233e-01
9.95110286e-01
9.95256749e-01
9.95406894e-01
9.95559987e-01
9.95715295e-01
9.95872098e-01
9.96029695e-01
9.96187426e-01
9.96344671e-01
9.96500861e-01
9.96655482e-01
9.96808080e-01
9.96958260e-01
9.97105689e-01
9.97250090e-01
9.97391240e-01
9.97528971e-01
9.97663156e-01
9.97793713e-01
9.97920594e-01
9.98043784e-01
9.98163293e-01
9.98279153e-01
9.98391415e-01
9.98500143e-01
9.98605412e-01
9.98707307e-01
9.98805919e-01
9.98901341e-01
9.98993673e-01
9.99083012e-01
9.99169459e-01
9.99253114e-01
9.99334080e-01
9.99412457e-01
9.99488350e-01
9.99561864e-01
9.99633107e-01
9.99702195e-01
9.99769247e-01
9.99834390e-01
9.99897762e-01
9.99959512e-01
1.00001980e+00
1.00007880e+00
1.00013670e+00
1.00019369e+00
1.00025001e+00
1.00030588e+00
1.00036155e+00
1.00041726e+00
1.00047331e+00
1.00052995e+00
1.00058748e+00
1.00064620e+00
1.00070638e+00
1.00076834e+00
1.00083235e+00
1.00089872e+00
1.00096773e+00
1.00103964e+00
1.00111473e+00
1.00119325e+00
1.00127543e+00
1.00136151e+00
1.00145169e+00
1.00154616e+00
1.00164508e+00
1.00174861e+00
1.00185688e+00
1.00196998e+00
1.00208799e+00
1.00221094e+00
1.00233887e+00
1.00247174e+00
1.00260949e+00
1.00275205e+00
1.00289929e+00
1.00305102e+00
1.00320705e+00
1.00336711e+00
1.00353093e+00
1.00369815e+00
1.00386841e+00
1.00404129e+00
1.00421631e+00
1.00439299e+00
1.00457078e+00
1.00474911e+00
1.00492737e+00
1.00510490e+00
1.00528104e+00
1.00545508e+00
1.00562629e+00
1.00579393e+00
1.00595723e+00
1.00611543e+00
1.00626774e+00
1.00641337e+00
1.00655159e+00
1.00668163e+00
1.00680272e+00
1.00691420e+00
1.00701546e+00
1.00710581e+00
1.00718471e+00
1.00725153e+00
1.00730586e+00
1.00734839e+00
1.00737871e+00
1.00739548e+00
9.93732448e-01
9.93744393e-01
9.93765049e-01
9.93795454e-01
9.93835243e-01
9.93883948e-01
9.93942089e-01
9.94009668e-01
9.94086117e-01
9.94171293e-01
9.94265153e-01
9.94367255e-01
9.94477125e-01
9.94594396e-01
9.94718584e-01
9.94849084e-01
9.94985283e-01
9.95126543e-01
9.95272170e-01
9.95421444e-01
9.95573645e-01
9.95728053e-01
9.95883954e-01
9.96040661e-01
9.96197522e-01
9.96353927e-01
9.96509312e-01
9.96663171e-01
9.96815053e-01
9.96964565e-01
9.97111372e-01
9.97255197e-01
9.97395815e-01
9.97533052e-01
9.97666776e-01
9.97796901e-01
9.97923372e-01
9.98046168e-01
9.98165294e-01
9.98280777e-01
9.98392663e-01
9.98501014e-01
9.98605903e-01
9.98707413e-01
9.98805635e-01
9.98900665e-01
9.98992602e-01
9.99081550e-01
9.99167612e-01
9.99250894e-01
9.99331502e-01
9.99409545e-01
9.99485132e-01
9.99558375e-01
9.99629388e-01
9.99698292e-01
9.99765210e-01
9.99830275e-01
9.99893629e-01
9.99955421e-01
1.00001581e+00
1.00007498e+00
1.00013311e+00
1.00019041e+00
1.00024708e+00
1.00030336e+00
1.00035948e+00
1.00041571e+00
1.00047230e+00
1.00052953e+00
1.00058767e+00
1.00064701e+00
1.00070784e+00
1.00077045e+00
1.00083511e+00
1.00090212e+00
1.00097176e+00
1.00104427e+00
1.00111994e+00
1.00119900e+00
1.00128168e+00
1.00136821e+00
1.00145877e+00
1.00155357e+00
1.00165275e+00
1.00175646e+00
1.00186483e+00
1.00197793e+00
1.00209584e+00
1.00221860e+00
1.00234622e+00
1.00247866e+00
1.00261588e+00
1.00275778e+00
1.00290424e+00
1.00305507e+00
1.00321008e+00
1.00336901e+00
1.00353159e+00
1.00369748e+00
1.00386631e+00
1.00403767e+00
1.00421112e+00
1.00438617e+00
1.00456229e+00
1.00473892e+00
1.00491546e+00
1.00509128e+00
1.00526571e+00
1.00543807e+00
1.00560765e+00
1.00577370e+00
1.00593546e+00
1.00609219e+00
1.00624313e+00
1.00638745e+00
1.00652440e+00
1.00665338e+00
1.00677352e+00
1.00688395e+00
1.00698437e+00
1.00707428e+00
1.00715251e+00
1.00721873e+00
1.00727347e+00
1.00731583e+00
1.00734493e+00
1.00736228e+00
9.93756785e-01
9.93769012e-01
9.93790093e-01
9.93820375e-01
9.93860043e-01
9.93908990e-01
9.93967105e-01
9.94034268e-01
9.94110438e-01
9.94195429e-01
9.94288856e-01
9.94390392e-01
9.94499727e-01
9.94616398e-01
9.94739862e-01
9.94869578e-01
9.95004956e-01
9.95145335e-01
9.95290028e-01
9.95438341e-01
9.95589562e-01
9.95742974e-01
9.95897881e-01
9.96053606e-01
9.96209508e-01
9.96364982e-01
9.96519476e-01
9.96672486e-01
9.96823565e-01
9.96972323e-01
9.97118424e-01
9.97261590e-01
9.97401592e-01
9.97538251e-01
9.97671431e-01
9.97801039e-01
9.97927014e-01
9.98049329e-01
9.98167983e-01
9.98282999e-01
9.98394418e-01
9.98502299e-01
9.98606712e-01
9.98707741e-01
9.98805477e-01
9.98900016e-01
9.98991463e-01
9.99079923e-01
9.99165506e-01
9.99248324e-01
9.99328489e-01
9.99406117e-01
9.99481324e-01
9.99554229e-01
9.99624954e-01
9.99693625e-01
9.99760372e-01
9.99825334e-01
9.99888654e-01
9.99950486e-01
1.00001100e+00
1.00007036e+00
1.00012875e+00
1.00018639e+00
1.00024347e+00
1.00030023e+00
1.00035690e+00
1.00041372e+00
1.00047095e+00
1.00052886e+00
1.00058772e+00
1.00064781e+00
1.00070940e+00
1.00077277e+00
1.00083820e+00
1.00090597e+00
1.00097634e+00
1.00104957e+00
1.00112591e+00
1.00120560e+00
1.00128887e+00
1.00137592e+00
1.00146694e+00
1.00156212e+00
1.00166160e+00
1.00176552e+00
1.00187398e+00
1.00198708e+00
1.00210488e+00
1.00222740e+00
1.00235465e+00
1.00248659e+00
1.00262317e+00
1.00276430e+00
1.00290983e+00
1.00305961e+00
1.00321343e+00
1.00337104e+00
1.00353217e+00
1.00369651e+00
1.00386368e+00
1.00403329e+00
1.00420491e+00
1.00437807e+00
1.00455226e+00
1.00472692e+00
1.00490147e+00
1.00507530e+00
1.00524777e+00
1.00541819e+00
1.00558586e+00
1.00575006e+00
1.00591006e+00
1.00606507e+00
1.00621437e+00
1.00635721e+00
1.00649279e+00
1.00662034e+00
1.00673926e+00
1.00684885e+00
1.00694831e+00
1.00703708e+00
1.00711479e+00
1.00718097e+00
1.00723513e+00
1.00727694e+00
1.00730648e+00
1.00732408e+00
9.93785318e-01
9.93797614e-01
9.93818861e-01
9.93849013e-01
9.93888491e-01
9.93937449e-01
9.93995420e-01
9.94062310e-01
9.94138210e-01
9.94222807e-01
9.94315714e-01
9.94416708e-01
9.94525433e-01
9.94641375e-01
9.94764038e-01
9.94892905e-01
9.95027364e-01
9.95166760e-01
9.95310430e-01
9.95457689e-01
9.95607828e-01
9.95760148e-01
9.95913965e-01
9.96068612e-01
9.96223457e-01
9.96377907e-01
9.96531414e-01
9.96683481e-01
9.96833666e-01
9.96981578e-01
9.97126883e-01
9.97269299e-01
9.97408596e-01
9.97544587e-01
9.97677134e-01
9.97806135e-01
9.97931525e-01
9.98053269e-01
9.98171360e-01
9.98285816e-01
9.98396675e-01
9.98503991e-01
9.98607835e-01
9.98708287e-01
9.98805441e-01
9.98899397e-01
9.98990260e-01
9.99078142e-01
9.99163158e-01
9.99245427e-01
9.99325070e-01
9.99402208e-01
9.99476967e-01
9.99549474e-01
9.99619859e-01
9.99688254e-01
9.99754796e-01
9.99819630e-01
9.99882905e-01
9.99944777e-01
1.00000541e+00
1.00006499e+00
1.00012369e+00
1.00018171e+00
1.00023926e+00
1.00029656e+00
1.00035384e+00
1.00041134e+00
1.00046930e+00
1.00052799e+00
1.00058767e+00
1.00064860e+00
1.00071105e+00
1.00077529e+00
1.00084160e+00
1.00091022e+00
1.00098143e+00
1.00105546e+00
1.00113257e+00
1.00121298e+00
1.00129690e+00
1.00138454e+00
1.00147607e+00
1.00157167e+00
1.00167147e+00
1.00177561e+00
1.00188418e+00
1.00199726e+00
1.00211491e+00
1.00223714e+00
1.00236395e+00
1.00249531e+00
1.00263115e+00
1.00277137e+00
1.00291585e+00
1.00306442e+00
1.00321688e+00
1.00337298e+00
1.00353247e+00
1.00369503e+00
1.00386031e+00
1.00402794e+00
1.00419749e+00
1.00436851e+00
1.00454050e+00
1.00471293e+00
1.00488523e+00
1.00505682e+00
1.00522705e+00
1.00539527e+00
1.00556079e+00
1.00572289e+00
1.00588087e+00
1.00603397e+00
1.00618141e+00
1.00632249e+00
1.00645649e+00
1.00658257e+00
1.00670005e+00
1.00680843e+00
1.00690688e+00
1.00699466e+00
1.00707163e+00
1.00713735e+00
1.00719084e+00
1.00723212e+00
1.00726172e+00
1.00727929e+00
9.93817859e-01
9.93829928e-01
9.93850990e-01
9.93881321e-01
9.93920843e-01
9.93969440e-01
9.94027154e-01
9.94093923e-01
9.94169435e-01
9.94253472e-01
9.94345880e-01
9.94446300e-01
9.94554274e-01
9.94669400e-01
9.94791214e-01
9.94919140e-01
9.95052572e-01
9.95190897e-01
9.95333456e-01
9.95479560e-01
9.95628520e-01
9.95779653e-01
9.95932282e-01
9.96085753e-01
9.96239444e-01
9.96392772e-01
9.96545196e-01
9.96696226e-01
9.96845420e-01
9.96992392e-01
9.97136807e-01
9.97278381e-01
9.97416878e-01
9.97552109e-01
9.97683930e-01
9.97812231e-01
9.97936941e-01
9.98058019e-01
9.98175454e-01
9.98289256e-01
9.98399461e-01
9.98506118e-01
9.98609298e-01
9.98709081e-01
9.98805562e-01
9.98898842e-01
9.98989032e-01
9.99076249e-01
9.99160616e-01
9.99242257e-01
9.99321302e-01
9.99397881e-01
9.99472130e-01
9.99544183e-01
9.99614178e-01
9.99682257e-01
9.99748565e-01
9.99813250e-01
9.99876467e-01
9.99938377e-01
9.99999148e-01
1.00005896e+00
1.00011799e+00
1.00017643e+00
1.00023450e+00
1.00029240e+00
1.00035036e+00
1.00040860e+00
1.00046738e+00
1.00052693e+00
1.00058751e+00
1.00064937e+00
1.00071278e+00
1.00077798e+00
1.00084524e+00
1.00091481e+00
1.00098694e+00
1.00106186e+00
1.00113980e+00
1.00122099e+00
1.00130562e+00
1.00139389e+00
1.00148597e+00
1.00158202e+00
1.00168216e+00
1.00178652e+00
1.00189518e+00
1.00200822e+00
1.00212567e+00
1.00224756e+00
1.00237386e+00
1.00250454e+00
1.00263954e+00
1.00277875e+00
1.00292203e+00
1.00306924e+00
1.00322017e+00
1.00337458e+00
1.00353223e+00
1.00369282e+00
1.00385600e+00
1.00402141e+00
1.00418866e+00
1.00435729e+00
1.00452684e+00
1.00469679e+00
1.00486661e+00
1.00503569e+00
1.00520344e+00
1.00536921e+00
1.00553234e+00
1.00569211e+00
1.00584782e+00
1.00599876e+00
1.00614418e+00
1.00628330e+00
1.00641543e+00
1.00653990e+00
1.00665591e+00
1.00676275e+00
1.00685995e+00
1.00694693e+00
1.00702294e+00
1.00708761e+00
1.00714076e+00
1.00718197e+00
1.00721102e+00
1.00722812e+00
9.93854032e-01
9.93866192e-01
9.93887123e-01
9.93917375e-01
9.93956772e-01
9.94005153e-01
9.94062638e-01
9.94129048e-01
9.94204094e-01
9.94287650e-01
9.94379472e-01
9.94479157e-01
9.94586335e-01
9.94700609e-01
9.94821463e-01
9.94948339e-01
9.95080668e-01
9.95217835e-01
9.95359176e-01
9.95504025e-01
9.95651710e-01
9.95801554e-01
9.95952892e-01
9.96105085e-01
9.96257522e-01
9.96409627e-01
9.96560867e-01
9.96710758e-01
9.96858864e-01
9.97004797e-01
9.97148224e-01
9.97288857e-01
9.97426458e-01
9.97560834e-01
9.97691831e-01
9.97819338e-01
9.97943274e-01
9.98063593e-01
9.98180277e-01
9.98293333e-01
9.98402790e-01
9.98508697e-01
9.98611122e-01
9.98710147e-01
9.98805865e-01
9.98898384e-01
9.98987818e-01
9.99074290e-01
9.99157930e-01
9.99238870e-01
9.99317248e-01
9.99393206e-01
9.99466887e-01
9.99538435e-01
9.99607998e-01
9.99675725e-01
9.99741770e-01
9.99806287e-01
9.99869436e-01
9.99931382e-01
9.99992296e-01
1.00005235e+00
1.00011174e+00
1.00017064e+00
1.00022926e+00
1.00028781e+00
1.00034650e+00
1.00040556e+00
1.00046521e+00
1.00052569e+00
1.00058724e+00
1.00065011e+00
1.00071455e+00
1.00078079e+00
1.00084908e+00
1.00091966e+00
1.00099278e+00
1.00106864e+00
1.00114748e+00
1.00122950e+00
1.00131489e+00
1.00140383e+00
1.00149648e+00
1.00159298e+00
1.00169347e+00
1.00179804e+00
1.00190677e+00
1.00201973e+00
1.00213694e+00
1.00225841e+00
1.00238413e+00
1.00251405e+00
1.00264809e+00
1.00278616e+00
1.00292812e+00
1.00307382e+00
1.00322306e+00
1.00337561e+00
1.00353124e+00
1.00368965e+00
1.00385053e+00
1.00401351e+00
1.00417823e+00
1.00434426e+00
1.00451114e+00
1.00467838e+00
1.00484545e+00
1.00501181e+00
1.00517684e+00
1.00533992e+00
1.00550041e+00
1.00565763e+00
1.00581087e+00
1.00595941e+00
1.00610256e+00
1.00623957e+00
1.00636968e+00
1.00649224e+00
1.00660658e+00
1.00671193e+00
1.00680770e+00
1.00689347e+00
1.00696853e+00
1.00703233e+00
1.00708482e+00
1.00712558e+00
1.00715418e+00
1.00717126e+00
9.93893911e-01
9.93906151e-01
9.93927204e-01
9.93957248e-01
9.93996397e-01
9.94044669e-01
9.94101848e-01
9.94167759e-01
9.94242350e-01
9.94325381e-01
9.94416484e-01
9.94515376e-01
9.94621721e-01
9.94735038e-01
9.94854825e-01
9.94980577e-01
9.95111719e-01
9.95247619e-01
9.95387642e-01
9.95531141e-01
9.95677448e-01
9.95825898e-01
9.95975842e-01
9.96126654e-01
9.96277731e-01
9.96428508e-01
9.96578462e-01
9.96727111e-01
9.96874024e-01
9.97018817e-01
9.97161153e-01
9.97300745e-01
9.97437350e-01
9.97570770e-01
9.97700847e-01
9.97827461e-01
9.97950527e-01
9.98069991e-01
9.98185831e-01
9.98298047e-01
9.98406666e-01
9.98511734e-01
9.98613317e-01
9.98711497e-01
9.98806371e-01
9.98898049e-01
9.98986650e-01
9.99072303e-01
9.99155146e-01
9.99235320e-01
9.99312972e-01
9.99388253e-01
9.99461315e-01
9.99532314e-01
9.99601407e-01
9.99668752e-01
9.99734510e-01
9.99798842e-01
9.99861915e-01
9.99923896e-01
9.99984958e-01
1.00004528e+00
1.00010504e+00
1.00016443e+00
1.00022364e+00
1.00028287e+00
1.00034234e+00
1.00040226e+00
1.00046283e+00
1.00052430e+00
1.00058689e+00
1.00065083e+00
1.00071635e+00
1.00078368e+00
1.00085307e+00
1.00092472e+00
1.00099887e+00
1.00107573e+00
1.00115550e+00
1.00123839e+00
1.00132456e+00
1.00141418e+00
1.00150741e+00
1.00160438e+00
1.00170519e+00
1.00180995e+00
1.00191872e+00
1.00203155e+00
1.00214847e+00
1.00226946e+00
1.00239452e+00
1.00252357e+00
1.00265656e+00
1.00279337e+00
1.00293388e+00
1.00307792e+00
1.00322531e+00
1.00337584e+00
1.00352927e+00
1.00368533e+00
1.00384370e+00
1.00400407e+00
1.00416605e+00
1.00432926e+00
1.00449325e+00
1.00465756e+00
1.00482167e+00
1.00498506e+00
1.00514715e+00
1.00530733e+00
1.00546495e+00
1.00561939e+00
1.00576994e+00
1.00591590e+00
1.00605655e+00
1.00619123e+00
1.00631919e+00
1.00643968e+00
1.00655209e+00
1.00665582e+00
1.00675013e+00
1.00683442e+00
1.00690836e+00
1.00697143e+00
1.00702306e+00
1.00706309e+00
1.00709160e+00
1.00710863e+00
9.93937844e-01
9.93950067e-01
9.93971067e-01
9.94000994e-01
9.94039966e-01
9.94087946e-01
9.94144726e-01
9.94210219e-01
9.94284286e-01
9.94366630e-01
9.94456984e-01
9.94555062e-01
9.94660453e-01
9.94772708e-01
9.94891371e-01
9.95015914e-01
9.95145753e-01
9.95280289e-01
9.95418903e-01
9.95560948e-01
9.95705768e-01
9.95852718e-01
9.96001164e-01
9.96150486e-01
9.96300095e-01
9.96449437e-01
9.96597995e-01
9.96745295e-01
9.96890909e-01
9.97034454e-01
9.97175595e-01
9.97314041e-01
9.97449547e-01
9.97581910e-01
9.97710966e-01
9.97836589e-01
9.97958687e-01
9.98077202e-01
9.98192104e-01
9.98303390e-01
9.98411083e-01
9.98515225e-01
9.98615883e-01
9.98713140e-01
9.98807093e-01
9.98897856e-01
9.98985555e-01
9.99070325e-01
9.99152309e-01
9.99231660e-01
9.99308534e-01
9.99383090e-01
9.99455493e-01
9.99525907e-01
9.99594500e-01
9.99661438e-01
9.99726890e-01
9.99791025e-01
9.99854015e-01
9.99916030e-01
9.99977246e-01
1.00003784e+00
1.00009799e+00
1.00015789e+00
1.00021772e+00
1.00027767e+00
1.00033795e+00
1.00039877e+00
1.00046031e+00
1.00052281e+00
1.00058648e+00
1.00065153e+00
1.00071818e+00
1.00078666e+00
1.00085717e+00
1.00092993e+00
1.00100515e+00
1.00108303e+00
1.00116376e+00
1.00124753e+00
1.00133449e+00
1.00142480e+00
1.00151861e+00
1.00161602e+00
1.00171715e+00
1.00182206e+00
1.00193083e+00
1.00204348e+00
1.00216003e+00
1.00228048e+00
1.00240478e+00
1.00253288e+00
1.00266470e+00
1.00280014e+00
1.00293906e+00
1.00308131e+00
1.00322672e+00
1.00337507e+00
1.00352614e+00
1.00367966e+00
1.00383536e+00
1.00399291e+00
1.00415197e+00
1.00431216e+00
1.00447306e+00
1.00463422e+00
1.00479517e+00
1.00495538e+00
1.00511431e+00
1.00527136e+00
1.00542593e+00
1.00557737e+00
1.00572501e+00
1.00586819e+00
1.00600619e+00
1.00613831e+00
1.00626389e+00
1.00638222e+00
1.00649258e+00
1.00659440e+00
1.00668709e+00
1.00676998e+00
1.00684261e+00
1.00690462e+00
1.00695547e+00
1.00699490e+00
1.00702303e+00
1.00703983e+00
9.93985709e-01
9.93997896e-01
9.94018795e-01
9.94048643e-01
9.94087417e-01
9.94135009e-01
9.94191387e-01
9.94256425e-01
9.94329854e-01
9.94411467e-01
9.94501037e-01
9.94598195e-01
9.94702538e-01
9.94813673e-01
9.94931125e-01
9.95054349e-01
9.95182792e-01
9.95315874e-01
9.95452973e-01
9.95593454e-01
9.95736684e-01
9.95882030e-01
9.96028866e-01
9.96176588e-01
9.96324620e-01
9.96472417e-01
9.96619469e-01
9.96765310e-01
9.96909515e-01
9.97051705e-01
9.97191542e-01
9.97328736e-01
9.97463038e-01
9.97594239e-01
9.97722172e-01
9.97846704e-01
9.97967738e-01
9.98085209e-01
9.98199081e-01
9.98309349e-01
9.98416029e-01
9.98519165e-01
9.98618821e-01
9.98715079e-01
9.98808042e-01
9.98897825e-01
9.98984561e-01
9.99068390e-01
9.99149465e-01
9.99227946e-01
9.99303999e-01
9.99377794e-01
9.99449504e-01
9.99519306e-01
9.99587374e-01
9.99653887e-01
9.99719021e-01
9.99782950e-01
9.99845853e-01
9.99907904e-01
9.99969279e-01
1.00003016e+00
1.00009072e+00
1.00015114e+00
1.00021160e+00
1.00027230e+00
1.00033342e+00
1.00039516e+00
1.00045771e+00
1.00052127e+00
1.00058605e+00
1.00065224e+00
1.00072005e+00
1.00078969e+00
1.00086136e+00
1.00093525e+00
1.00101156e+00
1.00109048e+00
1.00117217e+00
1.00125682e+00
1.00134457e+00
1.00143556e+00
1.00152992e+00
1.00162776e+00
1.00172916e+00
1.00183419e+00
1.00194289e+00
1.00205530e+00
1.00217143e+00
1.00229124e+00
1.00241470e+00
1.00254175e+00
1.00267230e+00
1.00280625e+00
1.00294346e+00
1.00308380e+00
1.00322707e+00
1.00337310e+00
1.00352165e+00
1.00367249e+00
1.00382534e+00
1.00397991e+00
1.00413586e+00
1.00429285e+00
1.00445047e+00
1.00460830e+00
1.00476589e+00
1.00492273e+00
1.00507830e+00
1.00523202e+00
1.00538333e+00
1.00553158e+00
1.00567612e+00
1.00581631e+00
1.00595147e+00
1.00608089e+00
1.00620389e+00
1.00631984e+00
1.00642806e+00
1.00652785e+00
1.00661870e+00
1.00670008e+00
1.00677137e+00
1.00683214e+00
1.00688213e+00
1.00692100e+00
1.00694862e+00
1.00696513e+00
9.94037438e-01
9.94049659e-01
9.94070506e-01
9.94100167e-01
9.94138660e-01
9.94185916e-01
9.94241858e-01
9.94306305e-01
9.94379061e-01
9.94459930e-01
9.94548608e-01
9.94644747e-01
9.94747996e-01
9.94857931e-01
9.94974060e-01
9.95095875e-01
9.95222839e-01
9.95354363e-01
9.95489838e-01
9.95628654e-01
9.95770189e-01
9.95913819e-01
9.96058935e-01
9.96204948e-01
9.96351291e-01
9.96497430e-01
9.96642865e-01
9.96787135e-01
9.96929820e-01
9.97070543e-01
9.97208967e-01
9.97344801e-01
9.97477792e-01
9.97607728e-01
9.97734436e-01
9.97857778e-01
9.97977651e-01
9.98093985e-01
9.98206739e-01
9.98315902e-01
9.98421490e-01
9.98523543e-01
9.98622124e-01
9.98717317e-01
9.98809227e-01
9.98897974e-01
9.98983694e-01
9.99066536e-01
9.99146660e-01
9.99224234e-01
9.99299433e-01
9.99372438e-01
9.99443433e-01
9.99512603e-01
9.99580133e-01
9.99646210e-01
9.99711017e-01
9.99774738e-01
9.99837553e-01
9.99899642e-01
9.99961183e-01
1.00002235e+00
1.00008333e+00
1.00014429e+00
1.00020541e+00
1.00026687e+00
1.00032885e+00
1.00039153e+00
1.00045509e+00
1.00051974e+00
1.00058564e+00
1.00065299e+00
1.00072198e+00
1.00079279e+00
1.00086563e+00
1.00094065e+00
1.00101805e+00
1.00109800e+00
1.00118066e+00
1.00126617e+00
1.00135469e+00
1.00144633e+00
1.00154122e+00
1.00163943e+00
1.00174106e+00
1.00184615e+00
1.00195474e+00
1.00206684e+00
1.00218245e+00
1.00230155e+00
1.00242408e+00
1.00254998e+00
1.00267916e+00
1.00281150e+00
1.00294690e+00
1.00308518e+00
1.00322620e+00
1.00336976e+00
1.00351566e+00
1.00366366e+00
1.00381352e+00
1.00396494e+00
1.00411763e+00
1.00427125e+00
1.00442542e+00
1.00457975e+00
1.00473379e+00
1.00488708e+00
1.00503911e+00
1.00518933e+00
1.00533718e+00
1.00548206e+00
1.00562334e+00
1.00576036e+00
1.00589247e+00
1.00601903e+00
1.00613933e+00
1.00625271e+00
1.00635858e+00
1.00645628e+00
1.00654519e+00
1.00662483e+00
1.00669468e+00
1.00675425e+00
1.00680322e+00
1.00684133e+00
1.00686851e+00
1.00688481e+00
9.94093079e-01
9.94105291e-01
9.94126088e-01
9.94155534e-01
9.94193723e-01
9.94240609e-01
9.94296037e-01
9.94359851e-01
9.94431904e-01
9.94511937e-01
9.94599640e-01
9.94694713e-01
9.94796788e-01
9.94905417e-01
9.95020141e-01
9.95140467e-01
9.95265848e-01
9.95395707e-01
9.95529462e-01
9.95666511e-01
9.95806240e-01
9.95948045e-01
9.96091332e-01
9.96235524e-01
9.96380066e-01
9.96524435e-01
9.96668140e-01
9.96810727e-01
9.96951781e-01
9.97090926e-01
9.97227829e-01
9.97362194e-01
9.97493768e-01
9.97622335e-01
9.97747717e-01
9.97869771e-01
9.97988389e-01
9.98103496e-01
9.98215046e-01
9.98323024e-01
9.98427443e-01
9.98528342e-01
9.98625784e-01
9.98719853e-01
9.98810657e-01
9.98898319e-01
9.98982982e-01
9.99064799e-01
9.99143940e-01
9.99220579e-01
9.99294903e-01
9.99367102e-01
9.99437367e-01
9.99505895e-01
9.99572881e-01
9.99638518e-01
9.99702998e-01
9.99766511e-01
9.99829242e-01
9.99891375e-01
9.99953088e-01
1.00001456e+00
1.00007596e+00
1.00013747e+00
1.00019925e+00
1.00026148e+00
1.00032432e+00
1.00038795e+00
1.00045255e+00
1.00051827e+00
1.00058530e+00
1.00065382e+00
1.00072398e+00
1.00079597e+00
1.00086996e+00
1.00094611e+00
1.00102459e+00
1.00110555e+00
1.00118914e+00
1.00127550e+00
1.00136475e+00
1.00145701e+00
1.00155237e+00
1.00165092e+00
1.00175271e+00
1.00185780e+00
1.00196620e+00
1.00207792e+00
1.00219295e+00
1.00231124e+00
1.00243275e+00
1.00255740e+00
1.00268510e+00
1.00281574e+00
1.00294920e+00
1.00308532e+00
1.00322396e+00
1.00336494e+00
1.00350805e+00
1.00365309e+00
1.00379981e+00
1.00394795e+00
1.00409723e+00
1.00424733e+00
1.00439790e+00
1.00454856e+00
1.00469890e+00
1.00484848e+00
1.00499680e+00
1.00514335e+00
1.00528758e+00
1.00542891e+00
1.00556674e+00
1.00570045e+00
1.00582937e+00
1.00595287e+00
1.00607032e+00
1.00618103e+00
1.00628439e+00
1.00637982e+00
1.00646672e+00
1.00654450e+00
1.00661276e+00
1.00667105e+00
1.00671895e+00
1.00675622e+00
1.00678292e+00
1.00679892e+00
9.94152606e-01
9.94164761e-01
9.94185440e-01
9.94214680e-01
9.94252549e-01
9.94298977e-01
9.94353845e-01
9.94417013e-01
9.94488282e-01
9.94567391e-01
9.94654076e-01
9.94748015e-01
9.94848813e-01
9.94956057e-01
9.95069302e-01
9.95188039e-01
9.95311734e-01
9.95439838e-01
9.95571773e-01
9.95706946e-01
9.95844763e-01
9.95984637e-01
9.96125986e-01
9.96268245e-01
9.96410875e-01
9.96553363e-01
9.96695227e-01
9.96836019e-01
9.96975331e-01
9.97112789e-01
9.97248060e-01
9.97380851e-01
9.97510904e-01
9.97638000e-01
9.97761958e-01
9.97882629e-01
9.97999901e-01
9.98113694e-01
9.98223959e-01
9.98330677e-01
9.98433858e-01
9.98533539e-01
9.98629784e-01
9.98722679e-01
9.98812332e-01
9.98898871e-01
9.98982444e-01
9.99063211e-01
9.99141347e-01
9.99217037e-01
9.99290474e-01
9.99361858e-01
9.99431391e-01
9.99499277e-01
9.99565719e-01
9.99630921e-01
9.99695080e-01
9.99758392e-01
9.99821046e-01
9.99883229e-01
9.99945121e-01
1.00000690e+00
1.00006873e+00
1.00013079e+00
1.00019324e+00
1.00025624e+00
1.00031995e+00
1.00038453e+00
1.00045015e+00
1.00051695e+00
1.00058511e+00
1.00065477e+00
1.00072610e+00
1.00079925e+00
1.00087437e+00
1.00095163e+00
1.00103116e+00
1.00111310e+00
1.00119759e+00
1.00128475e+00
1.00137469e+00
1.00146751e+00
1.00156330e+00
1.00166211e+00
1.00176401e+00
1.00186902e+00
1.00197716e+00
1.00208841e+00
1.00220277e+00
1.00232017e+00
1.00244056e+00
1.00256387e+00
1.00268999e+00
1.00281883e+00
1.00295024e+00
1.00308410e+00
1.00322025e+00
1.00335853e+00
1.00349874e+00
1.00364069e+00
1.00378416e+00
1.00392889e+00
1.00407463e+00
1.00422108e+00
1.00436791e+00
1.00451477e+00
1.00466127e+00
1.00480699e+00
1.00495146e+00
1.00509418e+00
1.00523465e+00
1.00537229e+00
1.00550652e+00
1.00563674e+00
1.00576233e+00
1.00588265e+00
1.00599707e+00
1.00610499e+00
1.00620574e+00
1.00629875e+00
1.00638348e+00
1.00645937e+00
1.00652595e+00
1.00658280e+00
1.00662957e+00
1.00666599e+00
1.00669209e+00
1.00670770e+00
9.94215866e-01
9.94227944e-01
9.94248484e-01
9.94277481e-01
9.94314981e-01
9.94360913e-01
9.94415187e-01
9.94477640e-01
9.94548052e-01
9.94626195e-01
9.94711795e-01
9.94804505e-01
9.94903955e-01
9.95009744e-01
9.95121414e-01
9.95238466e-01
9.95360390e-01
9.95486642e-01
9.95616652e-01
9.95749846e-01
9.95885650e-01
9.96023487e-01
9.96162789e-01
9.96303008e-01
9.96443618e-01
9.96584115e-01
9.96724027e-01
9.96862916e-01
9.97000376e-01
9.97136040e-01
9.97269575e-01
9.97400686e-01
9.97529117e-01
9.97654644e-01
9.97777082e-01
9.97896280e-01
9.98012120e-01
9.98124519e-01
9.98233424e-01
9.98338812e-01
9.98440693e-01
9.98539101e-01
9.98634100e-01
9.98725778e-01
9.98814245e-01
9.98899634e-01
9.98982095e-01
9.99061796e-01
9.99138918e-01
9.99213654e-01
9.99286205e-01
9.99356778e-01
9.99425585e-01
9.99492837e-01
9.99558748e-01
9.99623526e-01
9.99687376e-01
9.99750498e-01
9.99813087e-01
9.99875331e-01
9.99937411e-01
9.99999502e-01
1.00006177e+00
1.00012438e+00
1.00018750e+00