# vtk DataFile Version 2.0
LBM Flow Field - Timestep 880
ASCII
DATASET STRUCTURED_POINTS
DIMENSIONS 128 128 1
ORIGIN 0.0 0.0 0.0
SPACING 1.0 1.0 1.0
POINT_DATA 16384
SCALARS density double 1
LOOKUP_TABLE default
1.00100486e+00
1.00099891e+00
1.00098946e+00
1.00097905e+00
1.00096453e+00
1.00094541e+00
1.00092197e+00
1.00089353e+00
1.00085923e+00
1.00081856e+00
1.00077110e+00
1.00071637e+00
1.00065402e+00
1.00058386e+00
1.00050584e+00
1.00042009e+00
1.00032693e+00
1.00022690e+00
1.00012073e+00
1.00000935e+00
9.99893832e-01
9.99775377e-01
9.99655273e-01
9.99534839e-01
9.99415387e-01
9.99298170e-01
9.99184345e-01
9.99074934e-01
9.98970811e-01
9.98872679e-01
9.98781076e-01
9.98696387e-01
9.98618861e-01
9.98548638e-01
9.98485784e-01
9.98430321e-01
9.98382261e-01
9.98341627e-01
9.98308475e-01
9.98282908e-01
9.98265073e-01
9.98255163e-01
9.98253400e-01
9.98260024e-01
9.98275270e-01
9.98299350e-01
9.98332432e-01
9.98374622e-01
9.98425954e-01
9.98486372e-01
9.98555725e-01
9.98633765e-01
9.98720147e-01
9.98814429e-01
9.98916076e-01
9.99024473e-01
9.99138931e-01
9.99258694e-01
9.99382959e-01
9.99510883e-01
9.99641600e-01
9.99774237e-01
9.99907929e-01
1.00004184e+00
1.00017516e+00
1.00030716e+00
1.00043716e+00
1.00056458e+00
1.00068893e+00
1.00080980e+00
1.00092688e+00
1.00103996e+00
1.00114889e+00
1.00125358e+00
1.00135399e+00
1.00145006e+00
1.00154173e+00
1.00162889e+00
1.00171133e+00
1.00178877e+00
1.00186079e+00
1.00192685e+00
1.00198628e+00
1.00203827e+00
1.00208194e+00
1.00211629e+00
1.00214030e+00
1.00215295e+00
1.00215324e+00
1.00214031e+00
1.00211343e+00
1.00207209e+00
1.00201606e+00
1.00194538e+00
1.00186048e+00
1.00176211e+00
1.00165140e+00
1.00152982e+00
1.00139915e+00
1.00126141e+00
1.00111881e+00
1.00097367e+00
1.00082831e+00
1.00068496e+00
1.00054570e+00
1.00041238e+00
1.00028655e+00
1.00016944e+00
1.00006193e+00
9.99964564e-01
9.99877548e-01
9.99800798e-01
9.99733975e-01
9.99676545e-01
9.99627810e-01
9.99586949e-01
9.99553118e-01
9.99525480e-01
9.99503142e-01
9.99485237e-01
9.99471172e-01
9.99460354e-01
9.99451711e-01
9.99444632e-01
9.99439783e-01
9.99436452e-01
9.99430852e-01
9.99426883e-01
1.00099992e+00
1.00099593e+00
1.00098756e+00
1.00097671e+00
1.00096192e+00
1.00094269e+00
1.00091880e+00
1.00088973e+00
1.00085488e+00
1.00081367e+00
1.00076565e+00
1.00071040e+00
1.00064761e+00
1.00057709e+00
1.00049883e+00
1.00041298e+00
1.00031988e+00
1.00022009e+00
1.00011434e+00
1.00000355e+00
9.99888793e-01
9.99771239e-01
9.99652154e-01
9.99532828e-01
9.99414540e-01
9.99298511e-01
9.99185864e-01
9.99077599e-01
9.98974565e-01
9.98877453e-01
9.98786795e-01
9.98702976e-01
9.98626251e-01
9.98556774e-01
9.98494623e-01
9.98439837e-01
9.98392439e-01
9.98352465e-01
9.98319976e-01
9.98295074e-01
9.98277903e-01
9.98268643e-01
9.98267502e-01
9.98274699e-01
9.98290451e-01
9.98314947e-01
9.98348334e-01
9.98390701e-01
9.98442063e-01
9.98502351e-01
9.98571407e-01
9.98648978e-01
9.98734715e-01
9.98828180e-01
9.98928847e-01
9.99036110e-01
9.99149295e-01
9.99267666e-01
9.99390439e-01
9.99516796e-01
9.99645898e-01
9.99776897e-01
9.99908957e-01
1.00004127e+00
1.00017305e+00
1.00030359e+00
1.00043224e+00
1.00055843e+00
1.00068166e+00
1.00080155e+00
1.00091778e+00
1.00103013e+00
1.00113844e+00
1.00124260e+00
1.00134254e+00
1.00143820e+00
1.00152948e+00
1.00161626e+00
1.00169832e+00
1.00177536e+00
1.00184698e+00
1.00191262e+00
1.00197163e+00
1.00202324e+00
1.00206656e+00
1.00210064e+00
1.00212449e+00
1.00213711e+00
1.00213755e+00
1.00212498e+00
1.00209868e+00
1.00205818e+00
1.00200323e+00
1.00193389e+00
1.00185055e+00
1.00175396e+00
1.00164518e+00
1.00152564e+00
1.00139706e+00
1.00126139e+00
1.00112077e+00
1.00097746e+00
1.00083370e+00
1.00069170e+00
1.00055350e+00
1.00042093e+00
1.00029554e+00
1.00017858e+00
1.00007094e+00
9.99973212e-01
9.99885639e-01
9.99808185e-01
9.99740559e-01
9.99682264e-01
9.99632642e-01
9.99590924e-01
9.99556287e-01
9.99527878e-01
9.99504853e-01
9.99486411e-01
9.99471839e-01
9.99460435e-01
9.99451485e-01
9.99444527e-01
9.99439430e-01
9.99435696e-01
9.99431651e-01
9.99430117e-01
1.00099511e+00
1.00099243e+00
1.00098663e+00
1.00097524e+00
1.00095988e+00
1.00094063e+00
1.00091641e+00
1.00088676e+00
1.00085138e+00
1.00080972e+00
1.00076119e+00
1.00070545e+00
1.00064223e+00
1.00057137e+00
1.00049286e+00
1.00040689e+00
1.00031383e+00
1.00021423e+00
1.00010885e+00
9.99998607e-01
9.99884554e-01
9.99767865e-01
9.99649780e-01
9.99531570e-01
9.99414485e-01
9.99299720e-01
9.99188373e-01
9.99081418e-01
9.98979687e-01
9.98883855e-01
9.98794447e-01
9.98711842e-01
9.98636299e-01
9.98567976e-01
9.98506958e-01
9.98453293e-01
9.98407008e-01
9.98368142e-01
9.98336754e-01
9.98312940e-01
9.98296830e-01
9.98288588e-01
9.98288399e-01
9.98296459e-01
9.98312955e-01
9.98338049e-01
9.98371864e-01
9.98414463e-01
9.98465840e-01
9.98525910e-01
9.98594502e-01
9.98671357e-01
9.98756127e-01
9.98848376e-01
9.98947590e-01
9.99053180e-01
9.99164492e-01
9.99280815e-01
9.99401397e-01
9.99525453e-01
9.99652179e-01
9.99780768e-01
9.99910421e-01
1.00004036e+00
1.00016986e+00
1.00029821e+00
1.00042482e+00
1.00054911e+00
1.00067063e+00
1.00078898e+00
1.00090386e+00
1.00101503e+00
1.00112233e+00
1.00122563e+00
1.00132484e+00
1.00141987e+00
1.00151062e+00
1.00159693e+00
1.00167858e+00
1.00175526e+00
1.00182655e+00
1.00189191e+00
1.00195070e+00
1.00200215e+00
1.00204540e+00
1.00207952e+00
1.00210356e+00
1.00211653e+00
1.00211753e+00
1.00210571e+00
1.00208040e+00
1.00204112e+00
1.00198763e+00
1.00191997e+00
1.00183851e+00
1.00174394e+00
1.00163730e+00
1.00151996e+00
1.00139356e+00
1.00126001e+00
1.00112137e+00
1.00097985e+00
1.00083765e+00
1.00069692e+00
1.00055971e+00
1.00042781e+00
1.00030280e+00
1.00018593e+00
1.00007815e+00
9.99980049e-01
9.99891938e-01
9.99813820e-01
9.99745448e-01
9.99686356e-01
9.99635924e-01
9.99593434e-01
9.99558068e-01
9.99528960e-01
9.99505332e-01
9.99486446e-01
9.99471401e-01
9.99459432e-01
9.99450346e-01
9.99443635e-01
9.99437884e-01
9.99433483e-01
9.99432700e-01
9.99432739e-01
1.00099403e+00
1.00099118e+00
1.00098451e+00
1.00097339e+00
1.00095833e+00
1.00093860e+00
1.00091390e+00
1.00088392e+00
1.00084810e+00
1.00080591e+00
1.00075693e+00
1.00070080e+00
1.00063724e+00
1.00056613e+00
1.00048749e+00
1.00040154e+00
1.00030864e+00
1.00020939e+00
1.00010453e+00
9.99994967e-01
9.99881766e-01
9.99766081e-01
9.99649131e-01
9.99532164e-01
9.99416407e-01
9.99303028e-01
9.99193105e-01
9.99087593e-01
9.98987309e-01
9.98892920e-01
9.98804946e-01
9.98723771e-01
9.98649656e-01
9.98582766e-01
9.98523196e-01
9.98470995e-01
9.98426195e-01
9.98388828e-01
9.98358946e-01
9.98336626e-01
9.98321976e-01
9.98315130e-01
9.98316240e-01
9.98325467e-01
9.98342960e-01
9.98368846e-01
9.98403211e-01
9.98446089e-01
9.98497449e-01
9.98557187e-01
9.98625117e-01
9.98700976e-01
9.98784415e-01
9.98875010e-01
9.98972261e-01
9.99075601e-01
9.99184404e-01
9.99297997e-01
9.99415666e-01
9.99536669e-01
9.99660250e-01
9.99785649e-01
9.99912117e-01
1.00003893e+00
1.00016539e+00
1.00029086e+00
1.00041475e+00
1.00053654e+00
1.00065578e+00
1.00077210e+00
1.00088519e+00
1.00099482e+00
1.00110081e+00
1.00120302e+00
1.00130134e+00
1.00139564e+00
1.00148581e+00
1.00157165e+00
1.00165292e+00
1.00172930e+00
1.00180035e+00
1.00186553e+00
1.00192420e+00
1.00197560e+00
1.00201890e+00
1.00205319e+00
1.00207751e+00
1.00209094e+00
1.00209257e+00
1.00208161e+00
1.00205738e+00
1.00201942e+00
1.00196748e+00
1.00190161e+00
1.00182214e+00
1.00172974e+00
1.00162540e+00
1.00151043e+00
1.00138642e+00
1.00125520e+00
1.00111878e+00
1.00097930e+00
1.00083891e+00
1.00069974e+00
1.00056377e+00
1.00043281e+00
1.00030842e+00
1.00019188e+00
1.00008414e+00
9.99985860e-01
9.99897365e-01
9.99818706e-01
9.99749679e-01
9.99689870e-01
9.99638692e-01
9.99595441e-01
9.99559346e-01
9.99529598e-01
9.99505359e-01
9.99485856e-01
9.99470389e-01
9.99458209e-01
9.99448660e-01
9.99441456e-01
9.99436288e-01
9.99432464e-01
9.99430757e-01
9.99430372e-01
1.00099333e+00
1.00098995e+00
1.00098273e+00
1.00097199e+00
1.00095677e+00
1.00093651e+00
1.00091145e+00
1.00088110e+00
1.00084478e+00
1.00080211e+00
1.00075271e+00
1.00069620e+00
1.00063234e+00
1.00056104e+00
1.00048236e+00
1.00039652e+00
1.00030391e+00
1.00020514e+00
1.00010095e+00
9.99992252e-01
9.99880094e-01
9.99765614e-01
9.99650012e-01
9.99534509e-01
9.99420304e-01
9.99308543e-01
9.99200278e-01
9.99096446e-01
9.98997850e-01
9.98905152e-01
9.98818869e-01
9.98739388e-01
9.98666979e-01
9.98601815e-01
9.98544000e-01
9.98493587e-01
9.98450608e-01
9.98415089e-01
9.98387066e-01
9.98366592e-01
9.98353746e-01
9.98348623e-01
9.98351334e-01
9.98361993e-01
9.98380703e-01
9.98407545e-01
9.98442563e-01
9.98485754e-01
9.98537056e-01
9.98596341e-01
9.98663410e-01
9.98737991e-01
9.98819741e-01
9.98908245e-01
9.99003024e-01
9.99103539e-01
9.99209202e-01
9.99319381e-01
9.99433410e-01
9.99550604e-01
9.99670262e-01
9.99791685e-01
9.99914184e-01
1.00003709e+00
1.00015977e+00
1.00028164e+00
1.00040214e+00
1.00052080e+00
1.00063720e+00
1.00075098e+00
1.00086184e+00
1.00096956e+00
1.00107392e+00
1.00117478e+00
1.00127200e+00
1.00136542e+00
1.00145488e+00
1.00154018e+00
1.00162102e+00
1.00169707e+00
1.00176786e+00
1.00183287e+00
1.00189143e+00
1.00194280e+00
1.00198617e+00
1.00202064e+00
1.00204530e+00
1.00205923e+00
1.00206158e+00
1.00205156e+00
1.00202854e+00
1.00199205e+00
1.00194185e+00
1.00187799e+00
1.00180077e+00
1.00171083e+00
1.00160911e+00
1.00149686e+00
1.00137560e+00
1.00124709e+00
1.00111327e+00
1.00097620e+00
1.00083799e+00
1.00070069e+00
1.00056627e+00
1.00043651e+00
1.00031298e+00
1.00019696e+00
1.00008944e+00
9.99991090e-01
9.99902303e-01
9.99823168e-01
9.99753527e-01
9.99693017e-01
9.99641097e-01
9.99597085e-01
9.99560239e-01
9.99529808e-01
9.99504961e-01
9.99484849e-01
9.99468849e-01
9.99456390e-01
9.99446574e-01
9.99438834e-01
9.99433673e-01
9.99430471e-01
9.99427998e-01
9.99427049e-01
1.00099259e+00
1.00098910e+00
1.00098187e+00
1.00097065e+00
1.00095489e+00
1.00093452e+00
1.00090914e+00
1.00087823e+00
1.00084144e+00
1.00079837e+00
1.00074855e+00
1.00069168e+00
1.00062758e+00
1.00055617e+00
1.00047753e+00
1.00039190e+00
1.00029970e+00
1.00020154e+00
1.00009818e+00
9.99990510e-01
9.99879576e-01
9.99766494e-01
9.99652443e-01
9.99538617e-01
9.99426190e-01
9.99316277e-01
9.99209911e-01
9.99108008e-01
9.99011360e-01
9.98920620e-01
9.98836308e-01
9.98758814e-01
9.98688415e-01
9.98625293e-01
9.98569558e-01
9.98521266e-01
9.98480447e-01
9.98447113e-01
9.98421281e-01
9.98402977e-01
9.98392239e-01
9.98389120e-01
9.98393680e-01
9.98405979e-01
9.98426069e-01
9.98453977e-01
9.98489700e-01
9.98533193e-01
9.98584361e-01
9.98643049e-01
9.98709042e-01
9.98782063e-01
9.98861773e-01
9.98947770e-01
9.99039600e-01
9.99136758e-01
9.99238697e-01
9.99344834e-01
9.99454561e-01
9.99567252e-01
9.99682275e-01
9.99798999e-01
9.99916803e-01
1.00003509e+00
1.00015328e+00
1.00027086e+00
1.00038733e+00
1.00050224e+00
1.00061523e+00
1.00072594e+00
1.00083410e+00
1.00093947e+00
1.00104184e+00
1.00114103e+00
1.00123687e+00
1.00132919e+00
1.00141777e+00
1.00150236e+00
1.00158267e+00
1.00165830e+00
1.00172880e+00
1.00179360e+00
1.00185204e+00
1.00190340e+00
1.00194687e+00
1.00198158e+00
1.00200664e+00
1.00202119e+00
1.00202437e+00
1.00201544e+00
1.00199379e+00
1.00195897e+00
1.00191076e+00
1.00184916e+00
1.00177447e+00
1.00168730e+00
1.00158852e+00
1.00147933e+00
1.00136117e+00
1.00123572e+00
1.00110485e+00
1.00097054e+00
1.00083483e+00
1.00069972e+00
1.00056714e+00
1.00043885e+00
1.00031640e+00
1.00020110e+00
1.00009396e+00
9.99995685e-01
9.99906710e-01
9.99827179e-01
9.99756987e-01
9.99695806e-01
9.99643147e-01
9.99598394e-01
9.99560813e-01
9.99529632e-01
9.99504119e-01
9.99483508e-01
9.99466976e-01
9.99453899e-01
9.99443864e-01
9.99436212e-01
9.99430514e-01
9.99426796e-01
9.99424515e-01
9.99423555e-01
1.00099223e+00
1.00098849e+00
1.00098107e+00
1.00096940e+00
1.00095335e+00
1.00093268e+00
1.00090681e+00
1.00087543e+00
1.00083823e+00
1.00079472e+00
1.00074449e+00
1.00068732e+00
1.00062304e+00
1.00055157e+00
1.00047305e+00
1.00038773e+00
1.00029607e+00
1.00019866e+00
1.00009627e+00
9.99989807e-01
9.99880282e-01
9.99768798e-01
9.99656510e-01
9.99544584e-01
9.99434164e-01
9.99326341e-01
9.99222119e-01
9.99122400e-01
9.99027961e-01
9.98939449e-01
9.98857383e-01
9.98782158e-01
9.98714059e-01
9.98653275e-01
9.98599921e-01
9.98554055e-01
9.98515699e-01
9.98484852e-01
9.98461504e-01
9.98445647e-01
9.98437277e-01
9.98436396e-01
9.98443006e-01
9.98457110e-01
9.98478698e-01
9.98507744e-01
9.98544191e-01
9.98587949e-01
9.98638885e-01
9.98696820e-01
9.98761521e-01
9.98832706e-01
9.98910042e-01
9.98993144e-01
9.99081586e-01
9.99174899e-01
9.99272583e-01
9.99374110e-01
9.99478935e-01
9.99586499e-01
9.99696243e-01
9.99807610e-01
9.99920056e-01
1.00003306e+00
1.00014612e+00
1.00025877e+00
1.00037058e+00
1.00048117e+00
1.00059019e+00
1.00069733e+00
1.00080231e+00
1.00090491e+00
1.00100490e+00
1.00110208e+00
1.00119626e+00
1.00128721e+00
1.00137469e+00
1.00145842e+00
1.00153805e+00
1.00161316e+00
1.00168327e+00
1.00174781e+00
1.00180611e+00
1.00185744e+00
1.00190102e+00
1.00193601e+00
1.00196154e+00
1.00197677e+00
1.00198090e+00
1.00197320e+00
1.00195309e+00
1.00192014e+00
1.00187412e+00
1.00181504e+00
1.00174317e+00
1.00165906e+00
1.00156356e+00
1.00145777e+00
1.00134306e+00
1.00122104e+00
1.00109348e+00
1.00096228e+00
1.00082940e+00
1.00069680e+00
1.00056635e+00
1.00043979e+00
1.00031866e+00
1.00020428e+00
1.00009768e+00
9.99999619e-01
9.99910563e-01
9.99830714e-01
9.99760022e-01
9.99698214e-01
9.99644840e-01
9.99599329e-01
9.99561011e-01
9.99529116e-01
9.99502894e-01
9.99481667e-01
9.99464670e-01
9.99451115e-01
9.99440595e-01
9.99432766e-01
9.99426856e-01
9.99422709e-01
9.99420357e-01
9.99419160e-01
1.00099217e+00
1.00098812e+00
1.00098030e+00
1.00096841e+00
1.00095207e+00
1.00093088e+00
1.00090456e+00
1.00087282e+00
1.00083516e+00
1.00079118e+00
1.00074062e+00
1.00068320e+00
1.00061877e+00
1.00054733e+00
1.00046902e+00
1.00038413e+00
1.00029312e+00
1.00019661e+00
1.00009536e+00
9.99990276e-01
9.99882350e-01
9.99772670e-01
9.99662360e-01
9.99552559e-01
9.99444380e-01
9.99338886e-01
9.99237057e-01
9.99139773e-01
9.99047799e-01
9.98961776e-01
9.98882221e-01
9.98809534e-01
9.98744006e-01
9.98685833e-01
9.98635133e-01
9.98591962e-01
9.98556334e-01
9.98528228e-01
9.98507607e-01
9.98494423e-01
9.98488623e-01
9.98490153e-01
9.98498957e-01
9.98514973e-01
9.98538128e-01
9.98568334e-01
9.98605481e-01
9.98649433e-01
9.98700018e-01
9.98757029e-01
9.98820219e-01
9.98889302e-01
9.98963951e-01
9.99043802e-01
9.99128459e-01
9.99217493e-01
9.99310454e-01
9.99406873e-01
9.99506272e-01
9.99608163e-01
9.99712065e-01
9.99817502e-01
9.99924010e-01
1.00003115e+00
1.00013849e+00
1.00024565e+00
1.00035226e+00
1.00045799e+00
1.00056252e+00
1.00066560e+00
1.00076695e+00
1.00086635e+00
1.00096358e+00
1.00105840e+00
1.00115059e+00
1.00123991e+00
1.00132605e+00
1.00140870e+00
1.00148747e+00
1.00156192e+00
1.00163152e+00
1.00169570e+00
1.00175379e+00
1.00180506e+00
1.00184874e+00
1.00188401e+00
1.00191005e+00
1.00192603e+00
1.00193119e+00
1.00192484e+00
1.00190642e+00
1.00187551e+00
1.00183189e+00
1.00177557e+00
1.00170678e+00
1.00162603e+00
1.00153410e+00
1.00143204e+00
1.00132113e+00
1.00120289e+00
1.00107898e+00
1.00095124e+00
1.00082154e+00
1.00069177e+00
1.00056375e+00
1.00043919e+00
1.00031963e+00
1.00020639e+00
1.00010052e+00
1.00000282e+00
9.99913809e-01
9.99833738e-01
9.99762612e-01
9.99700226e-01
9.99646181e-01
9.99599928e-01
9.99560843e-01
9.99528246e-01
9.99501364e-01
9.99479443e-01
9.99461868e-01
9.99447974e-01
9.99437027e-01
9.99428662e-01
9.99422586e-01
9.99418352e-01
9.99415594e-01
9.99414056e-01
1.00099207e+00
1.00098784e+00
1.00097977e+00
1.00096761e+00
1.00095087e+00
1.00092926e+00
1.00090255e+00
1.00087035e+00
1.00083222e+00
1.00078787e+00
1.00073699e+00
1.00067934e+00
1.00061483e+00
1.00054350e+00
1.00046550e+00
1.00038116e+00
1.00029094e+00
1.00019548e+00
1.00009554e+00
9.99992012e-01
9.99885889e-01
9.99778226e-01
9.99670122e-01
9.99562682e-01
9.99456990e-01
9.99354077e-01
9.99254896e-01
9.99160306e-01
9.99071058e-01
9.98987784e-01
9.98911000e-01
9.98841108e-01
9.98778403e-01
9.98723087e-01
9.98675280e-01
9.98635034e-01
9.98602350e-01
9.98577187e-01
9.98559475e-01
9.98549124e-01
9.98546031e-01
9.98550083e-01
9.98561160e-01
9.98579132e-01
9.98603863e-01
9.98635202e-01
9.98672984e-01
9.98717023e-01
9.98767112e-01
9.98823017e-01
9.98884475e-01
9.98951199e-01
9.99022871e-01
9.99099149e-01
9.99179668e-01
9.99264044e-01
9.99351878e-01
9.99442764e-01
9.99536292e-01
9.99632050e-01
9.99729635e-01
9.99828655e-01
9.99928732e-01
1.00002951e+00
1.00013064e+00
1.00023181e+00
1.00033272e+00
1.00043310e+00
1.00053269e+00
1.00063125e+00
1.00072854e+00
1.00082433e+00
1.00091841e+00
1.00101051e+00
1.00110039e+00
1.00118775e+00
1.00127228e+00
1.00135359e+00
1.00143129e+00
1.00150487e+00
1.00157381e+00
1.00163749e+00
1.00169526e+00
1.00174638e+00
1.00179010e+00
1.00182563e+00
1.00185217e+00
1.00186893e+00
1.00187519e+00
1.00187029e+00
1.00185369e+00
1.00182499e+00
1.00178397e+00
1.00173063e+00
1.00166517e+00
1.00158807e+00
1.00150003e+00
1.00140203e+00
1.00129526e+00
1.00118114e+00
1.00106125e+00
1.00093732e+00
1.00081113e+00
1.00068451e+00
1.00055923e+00
1.00043696e+00
1.00031923e+00
1.00020734e+00
1.00010240e+00
1.00000522e+00
9.99916392e-01
9.99836209e-01
9.99764736e-01
9.99701821e-01
9.99647134e-01
9.99600183e-01
9.99560357e-01
9.99527011e-01
9.99499454e-01
9.99476929e-01
9.99458739e-01
9.99444326e-01
9.99433027e-01
9.99424282e-01
9.99417862e-01
9.99413437e-01
9.99410475e-01
9.99408788e-01
1.00099200e+00
1.00098768e+00
1.00097946e+00
1.00096695e+00
1.00094983e+00
1.00092786e+00
1.00090072e+00
1.00086803e+00
1.00082951e+00
1.00078481e+00
1.00073363e+00
1.00067582e+00
1.00061132e+00
1.00054018e+00
1.00046259e+00
1.00037891e+00
1.00028963e+00
1.00019538e+00
1.00009693e+00
9.99995163e-01
9.99891053e-01
9.99785632e-01
9.99679969e-01
9.99575138e-01
9.99472185e-01
9.99372109e-01
9.99275836e-01
9.99184201e-01
9.99097937e-01
9.99017666e-01
9.98943901e-01
9.98877043e-01
9.98817390e-01
9.98765148e-01
9.98720436e-01
9.98683300e-01
9.98653727e-01
9.98631652e-01
9.98616972e-01
9.98609552e-01
9.98609237e-01
9.98615852e-01
9.98629213e-01
9.98649123e-01
9.98675380e-01
9.98707771e-01
9.98746075e-01
9.98790060e-01
9.98839483e-01
9.98894083e-01
9.98953586e-01
9.99017704e-01
9.99086130e-01
9.99158546e-01
9.99234620e-01
9.99314015e-01
9.99396386e-01
9.99481389e-01
9.99568682e-01
9.99657933e-01
9.99748819e-01
9.99841032e-01
9.99934278e-01
1.00002828e+00
1.00012279e+00
1.00021756e+00
1.00031236e+00
1.00040698e+00
1.00050120e+00
1.00059483e+00
1.00068765e+00
1.00077945e+00
1.00086998e+00
1.00095899e+00
1.00104619e+00
1.00113127e+00
1.00121386e+00
1.00129356e+00
1.00136990e+00
1.00144238e+00
1.00151043e+00
1.00157343e+00
1.00163072e+00
1.00168157e+00
1.00172523e+00
1.00176096e+00
1.00178797e+00
1.00180551e+00
1.00181291e+00
1.00180952e+00
1.00179484e+00
1.00176849e+00
1.00173025e+00
1.00168010e+00
1.00161822e+00
1.00154503e+00
1.00146118e+00
1.00136755e+00
1.00126526e+00
1.00115561e+00
1.00104009e+00
1.00092031e+00
1.00079799e+00
1.00067486e+00
1.00055264e+00
1.00043295e+00
1.00031730e+00
1.00020702e+00
1.00010321e+00
1.00000674e+00
9.99918236e-01
9.99838058e-01
9.99766337e-01
9.99702973e-01
9.99647689e-01
9.99600064e-01
9.99559542e-01
9.99525468e-01
9.99497194e-01
9.99474060e-01
9.99455325e-01
9.99440337e-01
9.99428600e-01
9.99419582e-01
9.99412819e-01
9.99408088e-01
9.99405061e-01
9.99403327e-01
1.00099208e+00
1.00098767e+00
1.00097927e+00
1.00096648e+00
1.00094903e+00
1.00092667e+00
1.00089908e+00
1.00086600e+00
1.00082709e+00
1.00078204e+00
1.00073063e+00
1.00067273e+00
1.00060831e+00
1.00053745e+00
1.00046040e+00
1.00037751e+00
1.00028932e+00
1.00019645e+00
1.00009968e+00
9.99999878e-01
9.99898004e-01
9.99795062e-01
9.99692088e-01
9.99590120e-01
9.99490168e-01
9.99393195e-01
9.99300095e-01
9.99211675e-01
9.99128650e-01
9.99051628e-01
9.98981115e-01
9.98917511e-01
9.98861113e-01
9.98812127e-01
9.98770671e-01
9.98736781e-01
9.98710430e-01
9.98691528e-01
9.98679937e-01
9.98675477e-01
9.98677939e-01
9.98687089e-01
9.98702678e-01
9.98724444e-01
9.98752117e-01
9.98785427e-01
9.98824099e-01
9.98867854e-01
9.98916415e-01
9.98969500e-01
9.99026824e-01
9.99088099e-01
9.99153033e-01
9.99221332e-01
9.99292701e-01
9.99366849e-01
9.99443485e-01
9.99522328e-01
9.99603108e-01
9.99685567e-01
9.99769463e-01
9.99854571e-01
9.99940683e-01
1.00002761e+00
1.00011517e+00
1.00020320e+00
1.00029155e+00
1.00038006e+00
1.00046857e+00
1.00055690e+00
1.00064489e+00
1.00073231e+00
1.00081892e+00
1.00090447e+00
1.00098864e+00
1.00107107e+00
1.00115138e+00
1.00122912e+00
1.00130380e+00
1.00137488e+00
1.00144178e+00
1.00150386e+00
1.00156045e+00
1.00161084e+00
1.00165431e+00
1.00169011e+00
1.00171752e+00
1.00173581e+00
1.00174434e+00
1.00174251e+00
1.00172984e+00
1.00170595e+00
1.00167064e+00
1.00162387e+00
1.00156579e+00
1.00149677e+00
1.00141739e+00
1.00132844e+00
1.00123095e+00
1.00112611e+00
1.00101530e+00
1.00090004e+00
1.00078192e+00
1.00066262e+00
1.00054377e+00
1.00042697e+00
1.00031369e+00
1.00020526e+00
1.00010281e+00
1.00000724e+00
9.99919230e-01
9.99839193e-01
9.99767326e-01
9.99703604e-01
9.99647800e-01
9.99599538e-01
9.99558331e-01
9.99523581e-01
9.99494627e-01
9.99470828e-01
9.99451535e-01
9.99436065e-01
9.99423858e-01
9.99414470e-01
9.99407445e-01
9.99402493e-01
9.99399340e-01
9.99397532e-01
1.00099237e+00
1.00098788e+00
1.00097929e+00
1.00096626e+00
1.00094849e+00
1.00092572e+00
1.00089774e+00
1.00086428e+00
1.00082500e+00
1.00077965e+00
1.00072808e+00
1.00067016e+00
1.00060590e+00
1.00053544e+00
1.00045904e+00
1.00037710e+00
1.00029015e+00
1.00019885e+00
1.00010396e+00
1.00000635e+00
9.99906941e-01
9.99806724e-01
9.99706696e-01
9.99607855e-01
9.99511171e-01
9.99417568e-01
9.99327904e-01
9.99242957e-01
9.99163417e-01
9.99089876e-01
9.99022829e-01
9.98962671e-01
9.98909697e-01
9.98864110e-01
9.98826022e-01
9.98795463e-01
9.98772387e-01
9.98756679e-01
9.98748165e-01
9.98746624e-01
9.98751794e-01
9.98763381e-01
9.98781075e-01
9.98804550e-01
9.98833475e-01
9.98867521e-01
9.98906362e-01
9.98949679e-01
9.98997163e-01
9.99048511e-01
9.99103431e-01
9.99161638e-01
9.99222856e-01
9.99286819e-01
9.99353268e-01
9.99421957e-01
9.99492653e-01
9.99565135e-01
9.99639203e-01
9.99714673e-01
9.99791382e-01
9.99869185e-01
9.99947957e-01
1.00002759e+00
1.00010798e+00
1.00018904e+00
1.00027068e+00
1.00035281e+00
1.00043531e+00
1.00051805e+00
1.00060087e+00
1.00068357e+00
1.00076592e+00
1.00084764e+00
1.00092839e+00
1.00100781e+00
1.00108546e+00
1.00116088e+00
1.00123354e+00
1.00130288e+00
1.00136831e+00
1.00142917e+00
1.00148480e+00
1.00153450e+00
1.00157757e+00
1.00161330e+00
1.00164098e+00
1.00165994e+00
1.00166956e+00
1.00166929e+00
1.00165866e+00
1.00163732e+00
1.00160506e+00
1.00156183e+00
1.00150775e+00
1.00144313e+00
1.00136848e+00
1.00128450e+00
1.00119211e+00
1.00109241e+00
1.00098666e+00
1.00087625e+00
1.00076269e+00
1.00064755e+00
1.00053241e+00
1.00041880e+00
1.00030818e+00
1.00020187e+00
1.00010102e+00
1.00000656e+00
9.99919220e-01
9.99839483e-01
9.99767598e-01
9.99703611e-01
9.99647370e-01
9.99598547e-01
9.99556691e-01
9.99521277e-01
9.99491686e-01
9.99467255e-01
9.99447372e-01
9.99431428e-01
9.99418799e-01
9.99409012e-01
9.99401718e-01
9.99396593e-01
9.99393299e-01
9.99391434e-01
1.00099289e+00
1.00098835e+00
1.00097962e+00
1.00096634e+00
1.00094824e+00
1.00092512e+00
1.00089678e+00
1.00086294e+00
1.00082334e+00
1.00077777e+00
1.00072608e+00
1.00066821e+00
1.00060422e+00
1.00053427e+00
1.00045867e+00
1.00037783e+00
1.00029231e+00
1.00020276e+00
1.00010997e+00
1.00001477e+00
9.99918082e-01
9.99820845e-01
9.99724025e-01
9.99628580e-01
9.99535434e-01
9.99445468e-01
9.99359501e-01
9.99278275e-01
9.99202453e-01
9.99132607e-01
9.99069216e-01
9.99012665e-01
9.98963246e-01
9.98921156e-01
9.98886500e-01
9.98859298e-01
9.98839487e-01
9.98826927e-01
9.98821412e-01
9.98822679e-01
9.98830415e-01
9.98844273e-01
9.98863884e-01
9.98888861e-01
9.98918817e-01
9.98953369e-01
9.98992144e-01
9.99034786e-01
9.99080957e-01
9.99130339e-01
9.99182633e-01
9.99237561e-01
9.99294866e-01
9.99354308e-01
9.99415666e-01
9.99478742e-01
9.99543355e-01
9.99609348e-01
9.99676586e-01
9.99744957e-01
9.99814373e-01
9.99884767e-01
9.99956091e-01
1.00002831e+00
1.00010141e+00
1.00017535e+00
1.00025012e+00
1.00032568e+00
1.00040195e+00
1.00047885e+00
1.00055623e+00
1.00063391e+00
1.00071167e+00
1.00078920e+00
1.00086617e+00
1.00094218e+00
1.00101679e+00
1.00108949e+00
1.00115974e+00
1.00122696e+00
1.00129054e+00
1.00134984e+00
1.00140420e+00
1.00145293e+00
1.00149535e+00
1.00153078e+00
1.00155857e+00
1.00157806e+00
1.00158869e+00
1.00158993e+00
1.00158135e+00
1.00156260e+00
1.00153348e+00
1.00149392e+00
1.00144400e+00
1.00138397e+00
1.00131428e+00
1.00123554e+00
1.00114855e+00
1.00105430e+00
1.00095392e+00
1.00084870e+00
1.00074004e+00
1.00062940e+00
1.00051829e+00
1.00040819e+00
1.00030053e+00
1.00019662e+00
1.00009761e+00
1.00000449e+00
9.99918024e-01
9.99838752e-01
9.99766999e-01
9.99702868e-01
9.99646274e-01
9.99596967e-01
9.99554540e-01
9.99518495e-01
9.99488277e-01
9.99463266e-01
9.99442826e-01
9.99426372e-01
9.99413337e-01
9.99403210e-01
9.99395627e-01
9.99390301e-01
9.99386910e-01
9.99385028e-01
1.00099376e+00
1.00098918e+00
1.00098031e+00
1.00096679e+00
1.00094839e+00
1.00092495e+00
1.00089625e+00
1.00086208e+00
1.00082222e+00
1.00077648e+00
1.00072475e+00
1.00066703e+00
1.00060342e+00
1.00053412e+00
1.00045945e+00
1.00037988e+00
1.00029598e+00
1.00020840e+00
1.00011793e+00
1.00002539e+00
9.99931664e-01
9.99837670e-01
9.99744328e-01
9.99652549e-01
9.99563211e-01
9.99477144e-01
9.99395124e-01
9.99317855e-01
9.99245965e-01
9.99180000e-01
9.99120423e-01
9.99067605e-01
9.99021829e-01
9.98983283e-01
9.98952068e-01
9.98928190e-01
9.98911571e-01
9.98902047e-01
9.98899383e-01
9.98903276e-01
9.98913370e-01
9.98929268e-01
9.98950545e-01
9.98976762e-01
9.99007479e-01
9.99042265e-01
9.99080706e-01
9.99122411e-01
9.99167020e-01
9.99214200e-01
9.99263652e-01
9.99315107e-01
9.99368325e-01
9.99423096e-01
9.99479239e-01
9.99536600e-01
9.99595052e-01
9.99654497e-01
9.99714864e-01
9.99776110e-01
9.99838217e-01
9.99901190e-01
9.99965053e-01
1.00002984e+00
1.00009561e+00
1.00016239e+00
1.00023021e+00
1.00029909e+00
1.00036900e+00
1.00043987e+00
1.00051160e+00
1.00058401e+00
1.00065688e+00
1.00072990e+00
1.00080273e+00
1.00087495e+00
1.00094610e+00
1.00101567e+00
1.00108309e+00
1.00114777e+00
1.00120911e+00
1.00126646e+00
1.00131917e+00
1.00136658e+00
1.00140805e+00
1.00144292e+00
1.00147058e+00
1.00149043e+00
1.00150192e+00
1.00150458e+00
1.00149799e+00
1.00148183e+00
1.00145588e+00
1.00142007e+00
1.00137444e+00
1.00131918e+00
1.00125465e+00
1.00118137e+00
1.00110005e+00
1.00101153e+00
1.00091683e+00
1.00081712e+00
1.00071369e+00
1.00060788e+00
1.00050114e+00
1.00039487e+00
1.00029047e+00
1.00018924e+00
1.00009235e+00
1.00000081e+00
9.99915424e-01
9.99836805e-01
9.99765340e-01
9.99701205e-01
9.99644376e-01
9.99594665e-01
9.99551739e-01
9.99515135e-01
9.99484327e-01
9.99458753e-01
9.99437799e-01
9.99420864e-01
9.99407415e-01
9.99396964e-01
9.99389112e-01
9.99383587e-01
9.99380107e-01
9.99378214e-01
1.00099506e+00
1.00099044e+00
1.00098144e+00
1.00096771e+00
1.00094903e+00
1.00092528e+00
1.00089627e+00
1.00086182e+00
1.00082175e+00
1.00077591e+00
1.00072424e+00
1.00066678e+00
1.00060366e+00
1.00053514e+00
1.00046159e+00
1.00038347e+00
1.00030138e+00
1.00021600e+00
1.00012808e+00
1.00003844e+00
9.99947943e-01
9.99857458e-01
9.99767865e-01
9.99680022e-01
9.99594753e-01
9.99512838e-01
9.99435001e-01
9.99361903e-01
9.99294133e-01
9.99232208e-01
9.99176566e-01
9.99127563e-01
9.99085469e-01
9.99050465e-01
9.99022641e-01
9.99001993e-01
9.98988428e-01
9.98981763e-01
9.98981735e-01
9.98988008e-01
9.99000187e-01
9.99017831e-01
9.99040468e-01
9.99067612e-01
9.99098777e-01
9.99133489e-01
9.99171298e-01
9.99211786e-01
9.99254573e-01
9.99299317e-01
9.99345720e-01
9.99393524e-01
9.99442509e-01
9.99492497e-01
9.99543344e-01
9.99594940e-01
9.99647212e-01
9.99700118e-01
9.99753648e-01
9.99807822e-01
9.99862687e-01
9.99918316e-01
9.99974796e-01
1.00003223e+00
1.00009072e+00
1.00015038e+00
1.00021126e+00
1.00027344e+00
1.00033693e+00
1.00040168e+00
1.00046760e+00
1.00053453e+00
1.00060226e+00
1.00067047e+00
1.00073882e+00
1.00080688e+00
1.00087417e+00
1.00094017e+00
1.00100432e+00
1.00106602e+00
1.00112467e+00
1.00117963e+00
1.00123029e+00
1.00127600e+00
1.00131615e+00
1.00135015e+00
1.00137739e+00
1.00139735e+00
1.00140952e+00
1.00141344e+00
1.00140874e+00
1.00139511e+00
1.00137233e+00
1.00134030e+00
1.00129903e+00
1.00124865e+00
1.00118945e+00
1.00112184e+00
1.00104640e+00
1.00096387e+00
1.00087514e+00
1.00078125e+00
1.00068334e+00
1.00058270e+00
1.00048064e+00
1.00037852e+00
1.00027770e+00
1.00017945e+00
1.00008495e+00
9.99995236e-01
9.99911169e-01
9.99833408e-01
9.99762408e-01
9.99698419e-01
9.99641488e-01
9.99591484e-01
9.99548136e-01
9.99511047e-01
9.99479720e-01
9.99453615e-01
9.99432169e-01
9.99414800e-01
9.99400959e-01
9.99390178e-01
9.99382078e-01
9.99376380e-01
9.99372800e-01
9.99370891e-01
1.00099687e+00
1.00099222e+00
1.00098310e+00
1.00096918e+00
1.00095025e+00
1.00092622e+00
1.00089695e+00
1.00086228e+00
1.00082206e+00
1.00077620e+00
1.00072470e+00
1.00066761e+00
1.00060513e+00
1.00053756e+00
1.00046528e+00
1.00038882e+00
1.00030876e+00
1.00022579e+00
1.00014068e+00
1.00005420e+00
9.99967188e-01
9.99880482e-01
9.99794903e-01
9.99711256e-01
9.99630309e-01
9.99552781e-01
9.99479342e-01
9.99410602e-01
9.99347109e-01
9.99289344e-01
9.99237717e-01
9.99192565e-01
9.99154142e-01
9.99122619e-01
9.99098077e-01
9.99080504e-01
9.99069793e-01
9.99065745e-01
9.99068075e-01
9.99076420e-01
9.99090353e-01
9.99109395e-01
9.99133036e-01
9.99160750e-01
9.99192012e-01
9.99226312e-01
9.99263172e-01
9.99302150e-01
9.99342851e-01
9.99384929e-01
9.99428088e-01
9.99472084e-01
9.99516721e-01
9.99561849e-01
9.99607362e-01
9.99653196e-01
9.99699326e-01
9.99745765e-01
9.99792559e-01
9.99839787e-01
9.99887557e-01
9.99935998e-01
9.99985259e-01
1.00003550e+00
1.00008687e+00