# vtk DataFile Version 2.0
LBM Flow Field - Timestep 1770
ASCII
DATASET STRUCTURED_POINTS
DIMENSIONS 128 128 1
ORIGIN 0.0 0.0 0.0
SPACING 1.0 1.0 1.0
POINT_DATA 16384
SCALARS density double 1
LOOKUP_TABLE default
1.00562815e+00
1.00561111e+00
1.00558829e+00
1.00556971e+00
1.00554423e+00
1.00551163e+00
1.00547428e+00
1.00543245e+00
1.00538566e+00
1.00533441e+00
1.00527910e+00
1.00521991e+00
1.00515703e+00
1.00509072e+00
1.00502118e+00
1.00494859e+00
1.00487311e+00
1.00479488e+00
1.00471400e+00
1.00463056e+00
1.00454463e+00
1.00445624e+00
1.00436543e+00
1.00427221e+00
1.00417661e+00
1.00407863e+00
1.00397829e+00
1.00387564e+00
1.00377072e+00
1.00366360e+00
1.00355438e+00
1.00344319e+00
1.00333017e+00
1.00321552e+00
1.00309943e+00
1.00298214e+00
1.00286390e+00
1.00274500e+00
1.00262572e+00
1.00250636e+00
1.00238721e+00
1.00226858e+00
1.00215076e+00
1.00203403e+00
1.00191865e+00
1.00180487e+00
1.00169291e+00
1.00158296e+00
1.00147519e+00
1.00136975e+00
1.00126675e+00
1.00116627e+00
1.00106838e+00
1.00097309e+00
1.00088041e+00
1.00079033e+00
1.00070279e+00
1.00061774e+00
1.00053507e+00
1.00045470e+00
1.00037648e+00
1.00030027e+00
1.00022592e+00
1.00015324e+00
1.00008203e+00
1.00001209e+00
9.99943196e-01
9.99875106e-01
9.99807572e-01
9.99740336e-01
9.99673130e-01
9.99605681e-01
9.99537714e-01
9.99468951e-01
9.99399121e-01
9.99327956e-01
9.99255201e-01
9.99180617e-01
9.99103979e-01
9.99025091e-01
9.98943778e-01
9.98859897e-01
9.98773339e-01
9.98684029e-01
9.98591929e-01
9.98497041e-01
9.98399404e-01
9.98299097e-01
9.98196239e-01
9.98090985e-01
9.97983526e-01
9.97874086e-01
9.97762923e-01
9.97650320e-01
9.97536590e-01
9.97422069e-01
9.97307112e-01
9.97192094e-01
9.97077405e-01
9.96963445e-01
9.96850626e-01
9.96739360e-01
9.96630064e-01
9.96523147e-01
9.96419012e-01
9.96318045e-01
9.96220612e-01
9.96127051e-01
9.96037670e-01
9.95952737e-01
9.95872473e-01
9.95797058e-01
9.95726614e-01
9.95661217e-01
9.95600882e-01
9.95545565e-01
9.95495184e-01
9.95449682e-01
9.95408810e-01
9.95372255e-01
9.95340089e-01
9.95312453e-01
9.95287970e-01
9.95266482e-01
9.95251061e-01
9.95240539e-01
9.95220500e-01
9.95204333e-01
1.00561087e+00
1.00560010e+00
1.00558020e+00
1.00555998e+00
1.00553359e+00
1.00550179e+00
1.00546463e+00
1.00542277e+00
1.00537613e+00
1.00532512e+00
1.00526991e+00
1.00521082e+00
1.00514806e+00
1.00508186e+00
1.00501242e+00
1.00493993e+00
1.00486455e+00
1.00478642e+00
1.00470565e+00
1.00462233e+00
1.00453653e+00
1.00444829e+00
1.00435765e+00
1.00426462e+00
1.00416922e+00
1.00407148e+00
1.00397141e+00
1.00386906e+00
1.00376446e+00
1.00365770e+00
1.00354887e+00
1.00343809e+00
1.00332551e+00
1.00321131e+00
1.00309570e+00
1.00297890e+00
1.00286117e+00
1.00274276e+00
1.00262398e+00
1.00250511e+00
1.00238644e+00
1.00226827e+00
1.00215088e+00
1.00203456e+00
1.00191957e+00
1.00180614e+00
1.00169450e+00
1.00158484e+00
1.00147732e+00
1.00137210e+00
1.00126928e+00
1.00116895e+00
1.00107116e+00
1.00097594e+00
1.00088331e+00
1.00079323e+00
1.00070567e+00
1.00062056e+00
1.00053782e+00
1.00045733e+00
1.00037898e+00
1.00030261e+00
1.00022807e+00
1.00015519e+00
1.00008376e+00
1.00001357e+00
9.99944421e-01
9.99876062e-01
9.99808250e-01
9.99740730e-01
9.99673239e-01
9.99605508e-01
9.99537264e-01
9.99468235e-01
9.99398154e-01
9.99326759e-01
9.99253798e-01
9.99179037e-01
9.99102256e-01
9.99023263e-01
9.98941886e-01
9.98857987e-01
9.98771458e-01
9.98682227e-01
9.98590258e-01
9.98495552e-01
9.98398149e-01
9.98298129e-01
9.98195608e-01
9.98090738e-01
9.97983708e-01
9.97874740e-01
9.97764086e-01
9.97652026e-01
9.97538868e-01
9.97424941e-01
9.97310596e-01
9.97196201e-01
9.97082138e-01
9.96968803e-01
9.96856598e-01
9.96745930e-01
9.96637205e-01
9.96530829e-01
9.96427195e-01
9.96326682e-01
9.96229651e-01
9.96136435e-01
9.96047337e-01
9.95962622e-01
9.95882510e-01
9.95807183e-01
9.95736764e-01
9.95671330e-01
9.95610900e-01
9.95555464e-01
9.95504928e-01
9.95459202e-01
9.95418087e-01
9.95381486e-01
9.95349141e-01
9.95321010e-01
9.95296444e-01
9.95275816e-01
9.95258965e-01
9.95246093e-01
9.95229908e-01
9.95221653e-01
1.00559006e+00
1.00558247e+00
1.00557052e+00
1.00554766e+00
1.00552000e+00
1.00548903e+00
1.00545230e+00
1.00541021e+00
1.00536362e+00
1.00531272e+00
1.00525756e+00
1.00519847e+00
1.00513574e+00
1.00506956e+00
1.00500014e+00
1.00492769e+00
1.00485235e+00
1.00477428e+00
1.00469358e+00
1.00461036e+00
1.00452467e+00
1.00443657e+00
1.00434610e+00
1.00425329e+00
1.00415814e+00
1.00406068e+00
1.00396093e+00
1.00385894e+00
1.00375475e+00
1.00364843e+00
1.00354007e+00
1.00342981e+00
1.00331777e+00
1.00320414e+00
1.00308912e+00
1.00297293e+00
1.00285582e+00
1.00273804e+00
1.00261988e+00
1.00250163e+00
1.00238357e+00
1.00226599e+00
1.00214918e+00
1.00203341e+00
1.00191893e+00
1.00180599e+00
1.00169480e+00
1.00158555e+00
1.00147842e+00
1.00137353e+00
1.00127101e+00
1.00117093e+00
1.00107336e+00
1.00097832e+00
1.00088582e+00
1.00079585e+00
1.00070835e+00
1.00062326e+00
1.00054050e+00
1.00045997e+00
1.00038154e+00
1.00030506e+00
1.00023038e+00
1.00015733e+00
1.00008571e+00
1.00001532e+00
9.99945939e-01
9.99877342e-01
9.99809284e-01
9.99741514e-01
9.99673774e-01
9.99605799e-01
9.99537324e-01
9.99468081e-01
9.99397808e-01
9.99326249e-01
9.99253158e-01
9.99178305e-01
9.99101476e-01
9.99022482e-01
9.98941156e-01
9.98857364e-01
9.98770999e-01
9.98681991e-01
9.98590304e-01
9.98495941e-01
9.98398941e-01
9.98299380e-01
9.98197373e-01
9.98093068e-01
9.97986650e-01
9.97878335e-01
9.97768369e-01
9.97657027e-01
9.97544607e-01
9.97431433e-01
9.97317847e-01
9.97204208e-01
9.97090891e-01
9.96978281e-01
9.96866773e-01
9.96756764e-01
9.96648654e-01
9.96542838e-01
9.96439704e-01
9.96339624e-01
9.96242954e-01
9.96150024e-01
9.96061132e-01
9.95976543e-01
9.95896482e-01
9.95821127e-01
9.95750609e-01
9.95685012e-01
9.95624363e-01
9.95568664e-01
9.95517842e-01
9.95471753e-01
9.95430315e-01
9.95393516e-01
9.95360839e-01
9.95331947e-01
9.95307681e-01
9.95288024e-01
9.95269040e-01
9.95252556e-01
9.95246560e-01
9.95242304e-01
1.00557691e+00
1.00556811e+00
1.00555321e+00
1.00553131e+00
1.00550537e+00
1.00547376e+00
1.00543666e+00
1.00539483e+00
1.00534837e+00
1.00529738e+00
1.00524221e+00
1.00518315e+00
1.00512040e+00
1.00505420e+00
1.00498477e+00
1.00491230e+00
1.00483696e+00
1.00475890e+00
1.00467823e+00
1.00459506e+00
1.00450945e+00
1.00442147e+00
1.00433114e+00
1.00423851e+00
1.00414359e+00
1.00404640e+00
1.00394698e+00
1.00384537e+00
1.00374160e+00
1.00363576e+00
1.00352793e+00
1.00341823e+00
1.00330681e+00
1.00319384e+00
1.00307950e+00
1.00296402e+00
1.00284764e+00
1.00273062e+00
1.00261321e+00
1.00249571e+00
1.00237840e+00
1.00226156e+00
1.00214547e+00
1.00203039e+00
1.00191658e+00
1.00180427e+00
1.00169368e+00
1.00158499e+00
1.00147837e+00
1.00137396e+00
1.00127186e+00
1.00117217e+00
1.00107493e+00
1.00098018e+00
1.00088793e+00
1.00079815e+00
1.00071080e+00
1.00062582e+00
1.00054313e+00
1.00046261e+00
1.00038416e+00
1.00030763e+00
1.00023286e+00
1.00015969e+00
1.00008792e+00
1.00001736e+00
9.99947796e-01
9.99878994e-01
9.99810724e-01
9.99742739e-01
9.99674786e-01
9.99606609e-01
9.99537947e-01
9.99468540e-01
9.99398133e-01
9.99326476e-01
9.99253329e-01
9.99178469e-01
9.99101688e-01
9.99022799e-01
9.98941643e-01
9.98858085e-01
9.98772024e-01
9.98683389e-01
9.98592145e-01
9.98498292e-01
9.98401869e-01
9.98302947e-01
9.98201636e-01
9.98098080e-01
9.97992456e-01
9.97884973e-01
9.97775869e-01
9.97665409e-01
9.97553884e-01
9.97441606e-01
9.97328907e-01
9.97216137e-01
9.97103661e-01
9.96991853e-01
9.96881099e-01
9.96771788e-01
9.96664311e-01
9.96559056e-01
9.96456402e-01
9.96356719e-01
9.96260357e-01
9.96167642e-01
9.96078875e-01
9.95994319e-01
9.95914201e-01
9.95838704e-01
9.95767967e-01
9.95702084e-01
9.95641090e-01
9.95584979e-01
9.95533724e-01
9.95487232e-01
9.95445326e-01
9.95407906e-01
9.95374955e-01
9.95346054e-01
9.95320856e-01
9.95299873e-01
9.95282915e-01
9.95267717e-01
9.95257800e-01
9.95251636e-01
1.00556013e+00
1.00554997e+00
1.00553378e+00
1.00551366e+00
1.00548765e+00
1.00545526e+00
1.00541837e+00
1.00537677e+00
1.00533018e+00
1.00527911e+00
1.00522395e+00
1.00516485e+00
1.00510203e+00
1.00503577e+00
1.00496629e+00
1.00489376e+00
1.00481837e+00
1.00474027e+00
1.00465959e+00
1.00457642e+00
1.00449085e+00
1.00440294e+00
1.00431273e+00
1.00422026e+00
1.00412555e+00
1.00402864e+00
1.00392955e+00
1.00382832e+00
1.00372501e+00
1.00361968e+00
1.00351243e+00
1.00340338e+00
1.00329265e+00
1.00318042e+00
1.00306687e+00
1.00295221e+00
1.00283669e+00
1.00272054e+00
1.00260402e+00
1.00248742e+00
1.00237101e+00
1.00225506e+00
1.00213984e+00
1.00202561e+00
1.00191262e+00
1.00180109e+00
1.00169125e+00
1.00158326e+00
1.00147730e+00
1.00137349e+00
1.00127196e+00
1.00117277e+00
1.00107598e+00
1.00098164e+00
1.00088973e+00
1.00080024e+00
1.00071313e+00
1.00062834e+00
1.00054578e+00
1.00046536e+00
1.00038695e+00
1.00031042e+00
1.00023561e+00
1.00016236e+00
1.00009048e+00
1.00001978e+00
9.99950053e-01
9.99881074e-01
9.99812616e-01
9.99744440e-01
9.99676301e-01
9.99607950e-01
9.99539134e-01
9.99469601e-01
9.99399103e-01
9.99327399e-01
9.99254257e-01
9.99179459e-01
9.99102804e-01
9.99024112e-01
9.98943226e-01
9.98860016e-01
9.98774382e-01
9.98686254e-01
9.98595596e-01
9.98502408e-01
9.98406723e-01
9.98308608e-01
9.98208168e-01
9.98105537e-01
9.98000886e-01
9.97894412e-01
9.97786344e-01
9.97676937e-01
9.97566468e-01
9.97455239e-01
9.97343569e-01
9.97231798e-01
9.97120278e-01
9.97009373e-01
9.96899456e-01
9.96790908e-01
9.96684110e-01
9.96579442e-01
9.96477278e-01
9.96377980e-01
9.96281896e-01
9.96189350e-01
9.96100642e-01
9.96016037e-01
9.95935767e-01
9.95860021e-01
9.95788944e-01
9.95722638e-01
9.95661164e-01
9.95604514e-01
9.95552653e-01
9.95505573e-01
9.95463130e-01
9.95425012e-01
9.95391323e-01
9.95362251e-01
9.95336825e-01
9.95314323e-01
9.95297071e-01
9.95283948e-01
9.95271835e-01
9.95263854e-01
1.00553914e+00
1.00552941e+00
1.00551382e+00
1.00549292e+00
1.00546611e+00
1.00543437e+00
1.00539765e+00
1.00535566e+00
1.00530897e+00
1.00525796e+00
1.00520271e+00
1.00514348e+00
1.00508057e+00
1.00501422e+00
1.00494463e+00
1.00487200e+00
1.00479652e+00
1.00471834e+00
1.00463760e+00
1.00455441e+00
1.00446884e+00
1.00438098e+00
1.00429086e+00
1.00419854e+00
1.00410405e+00
1.00400741e+00
1.00390866e+00
1.00380785e+00
1.00370503e+00
1.00360027e+00
1.00349366e+00
1.00338531e+00
1.00327535e+00
1.00316396e+00
1.00305130e+00
1.00293758e+00
1.00282303e+00
1.00270788e+00
1.00259240e+00
1.00247684e+00
1.00236147e+00
1.00224655e+00
1.00213235e+00
1.00201912e+00
1.00190709e+00
1.00179650e+00
1.00168755e+00
1.00158041e+00
1.00147524e+00
1.00137218e+00
1.00127133e+00
1.00117277e+00
1.00107655e+00
1.00098271e+00
1.00089125e+00
1.00080215e+00
1.00071537e+00
1.00063085e+00
1.00054851e+00
1.00046824e+00
1.00038993e+00
1.00031345e+00
1.00023864e+00
1.00016535e+00
1.00009340e+00
1.00002259e+00
9.99952726e-01
9.99883594e-01
9.99814973e-01
9.99746630e-01
9.99678330e-01
9.99609831e-01
9.99540891e-01
9.99471267e-01
9.99400720e-01
9.99329017e-01
9.99255934e-01
9.99181263e-01
9.99104808e-01
9.99026395e-01
9.98945873e-01
9.98863115e-01
9.98778022e-01
9.98690526e-01
9.98600590e-01
9.98508209e-01
9.98413412e-01
9.98316262e-01
9.98216854e-01
9.98115315e-01
9.98011803e-01
9.97906507e-01
9.97799642e-01
9.97691448e-01
9.97582192e-01
9.97472161e-01
9.97361661e-01
9.97251016e-01
9.97140567e-01
9.97030664e-01
9.96921669e-01
9.96813952e-01
9.96707884e-01
9.96603837e-01
9.96502177e-01
9.96403262e-01
9.96307436e-01
9.96215022e-01
9.96126319e-01
9.96041597e-01
9.95961093e-01
9.95885003e-01
9.95813483e-01
9.95746639e-01
9.95684551e-01
9.95627253e-01
9.95574691e-01
9.95526802e-01
9.95483607e-01
9.95444971e-01
9.95410503e-01
9.95380238e-01
9.95354539e-01
9.95332530e-01
9.95313729e-01
9.95299148e-01
9.95287804e-01
9.95280372e-01
1.00551567e+00
1.00550582e+00
1.00549048e+00
1.00546910e+00
1.00544243e+00
1.00541084e+00
1.00537372e+00
1.00533161e+00
1.00528499e+00
1.00523384e+00
1.00517841e+00
1.00511907e+00
1.00505604e+00
1.00498954e+00
1.00491979e+00
1.00484702e+00
1.00477141e+00
1.00469312e+00
1.00461229e+00
1.00452903e+00
1.00444345e+00
1.00435561e+00
1.00426557e+00
1.00417339e+00
1.00407911e+00
1.00398275e+00
1.00388437e+00
1.00378400e+00
1.00368171e+00
1.00357757e+00
1.00347165e+00
1.00336409e+00
1.00325499e+00
1.00314452e+00
1.00303285e+00
1.00292019e+00
1.00280673e+00
1.00269272e+00
1.00257839e+00
1.00246401e+00
1.00234982e+00
1.00223608e+00
1.00212304e+00
1.00201095e+00
1.00190004e+00
1.00179053e+00
1.00168261e+00
1.00157645e+00
1.00147221e+00
1.00137002e+00
1.00126998e+00
1.00117217e+00
1.00107664e+00
1.00098342e+00
1.00089250e+00
1.00080388e+00
1.00071752e+00
1.00063334e+00
1.00055128e+00
1.00047123e+00
1.00039309e+00
1.00031671e+00
1.00024195e+00
1.00016867e+00
1.00009667e+00
1.00002579e+00
9.99955825e-01
9.99886570e-01
9.99817811e-01
9.99749329e-01
9.99680894e-01
9.99612278e-01
9.99543246e-01
9.99473567e-01
9.99403011e-01
9.99331356e-01
9.99258388e-01
9.99183904e-01
9.99107719e-01
9.99029665e-01
9.98949595e-01
9.98867386e-01
9.98782942e-01
9.98696194e-01
9.98607103e-01
9.98515662e-01
9.98421894e-01
9.98325854e-01
9.98227628e-01
9.98127334e-01
9.98025118e-01
9.97921154e-01
9.97815644e-01
9.97708814e-01
9.97600916e-01
9.97492219e-01
9.97383017e-01
9.97273617e-01
9.97164345e-01
9.97055539e-01
9.96947547e-01
9.96840726e-01
9.96735439e-01
9.96632047e-01
9.96530910e-01
9.96432380e-01
9.96336799e-01
9.96244489e-01
9.96155750e-01
9.96070856e-01
9.95990049e-01
9.95913533e-01
9.95841480e-01
9.95774013e-01
9.95711202e-01
9.95653107e-01
9.95599756e-01
9.95551045e-01
9.95506884e-01
9.95467367e-01
9.95432323e-01
9.95401237e-01
9.95374380e-01
9.95352073e-01
9.95332989e-01
9.95317352e-01
9.95306182e-01
9.95298454e-01
1.00548988e+00
1.00547976e+00
1.00546398e+00
1.00544272e+00
1.00541619e+00
1.00538416e+00
1.00534691e+00
1.00530489e+00
1.00525808e+00
1.00520670e+00
1.00515115e+00
1.00509167e+00
1.00502844e+00
1.00496175e+00
1.00489183e+00
1.00481888e+00
1.00474310e+00
1.00466466e+00
1.00458370e+00
1.00450036e+00
1.00441473e+00
1.00432689e+00
1.00423692e+00
1.00414488e+00
1.00405080e+00
1.00395474e+00
1.00385674e+00
1.00375685e+00
1.00365513e+00
1.00355165e+00
1.00344649e+00
1.00333977e+00
1.00323161e+00
1.00312216e+00
1.00301158e+00
1.00290007e+00
1.00278782e+00
1.00267506e+00
1.00256202e+00
1.00244894e+00
1.00233607e+00
1.00222365e+00
1.00211191e+00
1.00200111e+00
1.00189145e+00
1.00178315e+00
1.00167640e+00
1.00157136e+00
1.00146819e+00
1.00136700e+00
1.00126789e+00
1.00117094e+00
1.00107621e+00
1.00098370e+00
1.00089344e+00
1.00080540e+00
1.00071953e+00
1.00063579e+00
1.00055409e+00
1.00047433e+00
1.00039640e+00
1.00032019e+00
1.00024554e+00
1.00017230e+00
1.00010032e+00
1.00002940e+00
9.99959367e-01
9.99890022e-01
9.99821161e-01
9.99752571e-01
9.99684036e-01
9.99615336e-01
9.99546250e-01
9.99476556e-01
9.99406036e-01
9.99334478e-01
9.99261679e-01
9.99187445e-01
9.99111599e-01
9.99033980e-01
9.98954447e-01
9.98872879e-01
9.98789184e-01
9.98703291e-01
9.98615161e-01
9.98524781e-01
9.98432168e-01
9.98337370e-01
9.98240463e-01
9.98141551e-01
9.98040769e-01
9.97938276e-01
9.97834258e-01
9.97728926e-01
9.97622513e-01
9.97515274e-01
9.97407483e-01
9.97299434e-01
9.97191434e-01
9.97083808e-01
9.96976890e-01
9.96871024e-01
9.96766562e-01
9.96663856e-01
9.96563260e-01
9.96465121e-01
9.96369775e-01
9.96277546e-01
9.96188737e-01
9.96103625e-01
9.96022459e-01
9.95945453e-01
9.95872788e-01
9.95804610e-01
9.95741013e-01
9.95682035e-01
9.95627728e-01
9.95578120e-01
9.95533067e-01
9.95492451e-01
9.95456412e-01
9.95424803e-01
9.95397104e-01
9.95373560e-01
9.95354232e-01
9.95338454e-01
9.95326321e-01
9.95318009e-01
1.00546099e+00
1.00545076e+00
1.00543489e+00
1.00541365e+00
1.00538690e+00
1.00535470e+00
1.00531748e+00
1.00527526e+00
1.00522819e+00
1.00517670e+00
1.00512099e+00
1.00506127e+00
1.00499783e+00
1.00493093e+00
1.00486079e+00
1.00478762e+00
1.00471164e+00
1.00463302e+00
1.00455191e+00
1.00446845e+00
1.00438275e+00
1.00429491e+00
1.00420499e+00
1.00411308e+00
1.00401922e+00
1.00392346e+00
1.00382586e+00
1.00372647e+00
1.00362536e+00
1.00352258e+00
1.00341824e+00
1.00331244e+00
1.00320529e+00
1.00309694e+00
1.00298754e+00
1.00287728e+00
1.00276635e+00
1.00265496e+00
1.00254332e+00
1.00243167e+00
1.00232024e+00
1.00220927e+00
1.00209897e+00
1.00198959e+00
1.00188132e+00
1.00177437e+00
1.00166892e+00
1.00156513e+00
1.00146314e+00
1.00136307e+00
1.00126502e+00
1.00116905e+00
1.00107522e+00
1.00098355e+00
1.00089404e+00
1.00080666e+00
1.00072139e+00
1.00063816e+00
1.00055690e+00
1.00047750e+00
1.00039987e+00
1.00032388e+00
1.00024940e+00
1.00017627e+00
1.00010433e+00
1.00003343e+00
9.99963376e-01
9.99893983e-01
9.99825058e-01
9.99756400e-01
9.99687804e-01
9.99619061e-01
9.99549961e-01
9.99480295e-01
9.99409858e-01
9.99338449e-01
9.99265873e-01
9.99191950e-01
9.99116510e-01
9.99039398e-01
9.98960479e-01
9.98879638e-01
9.98796782e-01
9.98711843e-01
9.98624776e-01
9.98535565e-01
9.98444221e-01
9.98350781e-01
9.98255312e-01
9.98157904e-01
9.98058677e-01
9.97957777e-01
9.97855370e-01
9.97751652e-01
9.97646837e-01
9.97541161e-01
9.97434882e-01
9.97328275e-01
9.97221631e-01
9.97115259e-01
9.97009478e-01
9.96904620e-01
9.96801025e-01
9.96699036e-01
9.96598998e-01
9.96501256e-01
9.96406141e-01
9.96313978e-01
9.96225072e-01
9.96139705e-01
9.96058136e-01
9.95980592e-01
9.95907259e-01
9.95838291e-01
9.95773824e-01
9.95713930e-01
9.95658610e-01
9.95607913e-01
9.95561880e-01
9.95520331e-01
9.95483155e-01
9.95450533e-01
9.95422220e-01
9.95397832e-01
9.95377671e-01
9.95361536e-01
9.95348962e-01
9.95340316e-01
1.00542931e+00
1.00541910e+00
1.00540320e+00
1.00538176e+00
1.00535483e+00
1.00532263e+00
1.00528523e+00
1.00524275e+00
1.00519555e+00
1.00514388e+00
1.00508791e+00
1.00502795e+00
1.00496428e+00
1.00489713e+00
1.00482673e+00
1.00475332e+00
1.00467711e+00
1.00459828e+00
1.00451699e+00
1.00443339e+00
1.00434761e+00
1.00425973e+00
1.00416987e+00
1.00407808e+00
1.00398444e+00
1.00388900e+00
1.00379182e+00
1.00369295e+00
1.00359248e+00
1.00349046e+00
1.00338698e+00
1.00328215e+00
1.00317609e+00
1.00306891e+00
1.00296079e+00
1.00285187e+00
1.00274236e+00
1.00263244e+00
1.00252232e+00
1.00241222e+00
1.00230236e+00
1.00219295e+00
1.00208423e+00
1.00197639e+00
1.00186963e+00
1.00176416e+00
1.00166014e+00
1.00155772e+00
1.00145705e+00
1.00135822e+00
1.00126134e+00
1.00116647e+00
1.00107366e+00
1.00098292e+00
1.00089426e+00
1.00080765e+00
1.00072307e+00
1.00064044e+00
1.00055969e+00
1.00048074e+00
1.00040348e+00
1.00032778e+00
1.00025352e+00
1.00018056e+00
1.00010874e+00
1.00003790e+00
9.99967874e-01
9.99898482e-01
9.99829540e-01
9.99760859e-01
9.99692246e-01
9.99623504e-01
9.99554437e-01
9.99484847e-01
9.99414543e-01
9.99343333e-01
9.99271038e-01
9.99197484e-01
9.99122512e-01
9.99045975e-01
9.98967744e-01
9.98887707e-01
9.98805773e-01
9.98721873e-01
9.98635960e-01
9.98548014e-01
9.98458036e-01
9.98366056e-01
9.98272126e-01
9.98176326e-01
9.98078759e-01
9.97979553e-01
9.97878860e-01
9.97776853e-01
9.97673730e-01
9.97569708e-01
9.97465024e-01
9.97359937e-01
9.97254719e-01
9.97149663e-01
9.97045073e-01
9.96941268e-01
9.96838576e-01
9.96737331e-01
9.96637870e-01
9.96540532e-01
9.96445649e-01
9.96353543e-01
9.96264523e-01
9.96178878e-01
9.96096872e-01
9.96018745e-01
9.95944704e-01
9.95874913e-01
9.95809507e-01
9.95748607e-01
9.95692269e-01
9.95640474e-01
9.95593270e-01
9.95550697e-01
9.95512567e-01
9.95478802e-01
9.95449552e-01
9.95424579e-01
9.95403626e-01
9.95386747e-01
9.95373864e-01
9.95365082e-01
1.00539499e+00
1.00538471e+00
1.00536873e+00
1.00534717e+00
1.00532016e+00
1.00528781e+00
1.00525017e+00
1.00520754e+00
1.00516017e+00
1.00510822e+00
1.00505200e+00
1.00499180e+00
1.00492786e+00
1.00486041e+00
1.00478974e+00
1.00471606e+00
1.00463958e+00
1.00456051e+00
1.00447902e+00
1.00439527e+00
1.00430938e+00
1.00422147e+00
1.00413164e+00
1.00403998e+00
1.00394655e+00
1.00385144e+00
1.00375470e+00
1.00365639e+00
1.00355659e+00
1.00345536e+00
1.00335281e+00
1.00324901e+00
1.00314409e+00
1.00303817e+00
1.00293139e+00
1.00282392e+00
1.00271592e+00
1.00260757e+00
1.00249908e+00
1.00239064e+00
1.00228246e+00
1.00217474e+00
1.00206770e+00
1.00196152e+00
1.00185641e+00
1.00175254e+00
1.00165007e+00
1.00154915e+00
1.00144990e+00
1.00135244e+00
1.00125685e+00
1.00116318e+00
1.00107149e+00
1.00098179e+00
1.00089408e+00
1.00080835e+00
1.00072454e+00
1.00064260e+00
1.00056246e+00
1.00048403e+00
1.00040721e+00
1.00033188e+00
1.00025791e+00
1.00018518e+00
1.00011354e+00
1.00004282e+00
9.99972882e-01
9.99903544e-01
9.99834638e-01
9.99765985e-01
9.99697405e-01
9.99628714e-01
9.99559729e-01
9.99490266e-01
9.99420145e-01
9.99349189e-01
9.99277228e-01
9.99204102e-01
9.99129658e-01
9.99053759e-01
9.98976282e-01
9.98897118e-01
9.98816178e-01
9.98733393e-01
9.98648713e-01
9.98562111e-01
9.98473583e-01
9.98383146e-01
9.98290842e-01
9.98196735e-01
9.98100913e-01
9.98003486e-01
9.97904588e-01
9.97804373e-01
9.97703019e-01
9.97600723e-01
9.97497704e-01
9.97394199e-01
9.97290465e-01
9.97186777e-01
9.97083424e-01
9.96980711e-01
9.96878953e-01
9.96778477e-01
9.96679611e-01
9.96582690e-01
9.96488042e-01
9.96395991e-01
9.96306849e-01
9.96220912e-01
9.96138453e-01
9.96059718e-01
9.95984932e-01
9.95914290e-01
9.95847930e-01
9.95785970e-01
9.95728530e-01
9.95675653e-01
9.95627300e-01
9.95583531e-01
9.95544376e-01
9.95509659e-01
9.95479362e-01
9.95453550e-01
9.95431969e-01
9.95414504e-01
9.95401197e-01
9.95392100e-01
1.00535807e+00
1.00534773e+00
1.00533163e+00
1.00530999e+00
1.00528285e+00
1.00525030e+00
1.00521250e+00
1.00516969e+00
1.00512204e+00
1.00506984e+00
1.00501337e+00
1.00495288e+00
1.00488861e+00
1.00482087e+00
1.00474989e+00
1.00467590e+00
1.00459915e+00
1.00451982e+00
1.00443810e+00
1.00435417e+00
1.00426816e+00
1.00418020e+00
1.00409041e+00
1.00399887e+00
1.00390568e+00
1.00381090e+00
1.00371462e+00
1.00361689e+00
1.00351779e+00
1.00341740e+00
1.00331581e+00
1.00321310e+00
1.00310939e+00
1.00300479e+00
1.00289944e+00
1.00279349e+00
1.00268709e+00
1.00258041e+00
1.00247364e+00
1.00236696e+00
1.00226057e+00
1.00215466e+00
1.00204941e+00
1.00194502e+00
1.00184166e+00
1.00173951e+00
1.00163870e+00
1.00153939e+00
1.00144170e+00
1.00134571e+00
1.00125151e+00
1.00115916e+00
1.00106870e+00
1.00098015e+00
1.00089349e+00
1.00080871e+00
1.00072578e+00
1.00064462e+00
1.00056517e+00
1.00048735e+00
1.00041105e+00
1.00033616e+00
1.00026257e+00
1.00019014e+00
1.00011873e+00
1.00004821e+00
9.99978415e-01
9.99909192e-01
9.99840379e-01
9.99771810e-01
9.99703318e-01
9.99634733e-01
9.99565883e-01
9.99496600e-01
9.99426715e-01
9.99356066e-01
9.99284495e-01
9.99211850e-01
9.99137992e-01
9.99062790e-01
9.98986126e-01
9.98907896e-01
9.98828014e-01
9.98746408e-01
9.98663026e-01
9.98577837e-01
9.98490825e-01
9.98402000e-01
9.98311390e-01
9.98219044e-01
9.98125034e-01
9.98029453e-01
9.97932414e-01
9.97834053e-01
9.97734527e-01
9.97634013e-01
9.97532711e-01
9.97430838e-01
9.97328633e-01
9.97226353e-01
9.97124273e-01
9.97022684e-01
9.96921888e-01
9.96822203e-01
9.96723950e-01
9.96627459e-01
9.96533056e-01
9.96441065e-01
9.96351802e-01
9.96265568e-01
9.96182648e-01
9.96103302e-01
9.96027761e-01
9.95956235e-01
9.95888907e-01
9.95825902e-01
9.95767324e-01
9.95713286e-01
9.95663821e-01
9.95618900e-01
9.95578584e-01
9.95542883e-01
9.95511668e-01
9.95484937e-01
9.95462660e-01
9.95444672e-01
9.95430883e-01
9.95421493e-01
1.00531855e+00
1.00530817e+00
1.00529200e+00
1.00527024e+00
1.00524296e+00
1.00521023e+00
1.00517226e+00
1.00512920e+00
1.00508129e+00
1.00502883e+00
1.00497206e+00
1.00491124e+00
1.00484666e+00
1.00477858e+00
1.00470726e+00
1.00463295e+00
1.00455589e+00
1.00447628e+00
1.00439432e+00
1.00431020e+00
1.00422406e+00
1.00413605e+00
1.00404629e+00
1.00395488e+00
1.00386192e+00
1.00376749e+00
1.00367168e+00
1.00357456e+00
1.00347620e+00
1.00337668e+00
1.00327610e+00
1.00317453e+00
1.00307209e+00
1.00296888e+00
1.00286503e+00
1.00276067e+00
1.00265595e+00
1.00255103e+00
1.00244608e+00
1.00234126e+00
1.00223676e+00
1.00213275e+00
1.00202940e+00
1.00192690e+00
1.00182541e+00
1.00172508e+00
1.00162606e+00
1.00152847e+00
1.00143243e+00
1.00133802e+00
1.00124533e+00
1.00115440e+00
1.00106528e+00
1.00097796e+00
1.00089246e+00
1.00080874e+00
1.00072677e+00
1.00064648e+00
1.00056781e+00
1.00049068e+00
1.00041498e+00
1.00034062e+00
1.00026747e+00
1.00019542e+00
1.00012433e+00
1.00005406e+00
9.99984484e-01
9.99915440e-01
9.99846783e-01
9.99778360e-01
9.99710016e-01
9.99641593e-01
9.99572935e-01
9.99503887e-01
9.99434294e-01
9.99364006e-01
9.99292878e-01
9.99220770e-01
9.99147551e-01
9.99073099e-01
9.98997301e-01
9.98920060e-01
9.98841288e-01
9.98760916e-01
9.98678886e-01
9.98595162e-01
9.98509721e-01
9.98422560e-01
9.98333695e-01
9.98243161e-01
9.98151013e-01
9.98057324e-01
9.97962191e-01
9.97865728e-01
9.97768073e-01
9.97669382e-01
9.97569833e-01
9.97469628e-01
9.97368984e-01
9.97268144e-01
9.97167364e-01
9.97066923e-01
9.96967113e-01
9.96868239e-01
9.96770617e-01
9.96674571e-01
9.96580426e-01
9.96488507e-01
9.96399133e-01
9.96312611e-01
9.96229234e-01
9.96149278e-01
9.96072990e-01
9.96000589e-01
9.95932275e-01
9.95868222e-01
9.95808539e-01
9.95753326e-01
9.95702696e-01
9.95656670e-01
9.95615235e-01
9.95578461e-01
9.95546334e-01
9.95518774e-01
9.95495759e-01
9.95477212e-01
9.95463019e-01
9.95453383e-01
1.00527654e+00
1.00526613e+00
1.00524988e+00
1.00522801e+00
1.00520057e+00
1.00516769e+00
1.00512948e+00
1.00508617e+00
1.00503801e+00
1.00498525e+00
1.00492815e+00
1.00486700e+00
1.00480207e+00
1.00473363e+00
1.00466195e+00
1.00458730e+00
1.00450991e+00
1.00443000e+00
1.00434779e+00
1.00426346e+00
1.00417718e+00
1.00408911e+00
1.00399937e+00
1.00390809e+00
1.00381538e+00
1.00372132e+00
1.00362600e+00
1.00352950e+00
1.00343192e+00
1.00333331e+00
1.00323378e+00
1.00313340e+00
1.00303228e+00
1.00293052e+00
1.00282823e+00
1.00272554e+00
1.00262258e+00
1.00251950e+00
1.00241645e+00
1.00231358e+00
1.00221106e+00
1.00210905e+00
1.00200771e+00
1.00190721e+00
1.00180768e+00
1.00170928e+00
1.00161214e+00
1.00151638e+00
1.00142210e+00
1.00132938e+00
1.00123829e+00
1.00114889e+00
1.00106119e+00
1.00097522e+00
1.00089097e+00
1.00080840e+00
1.00072748e+00
1.00064816e+00
1.00057036e+00
1.00049401e+00
1.00041900e+00
1.00034524e+00
1.00027262e+00
1.00020102e+00
1.00013032e+00
1.00006039e+00
9.99991093e-01
9.99922298e-01
9.99853865e-01
9.99785652e-01
9.99717519e-01
9.99649321e-01
9.99580915e-01
9.99512160e-01
9.99442915e-01
9.99373044e-01
9.99302412e-01
9.99230892e-01
9.99158362e-01
9.99084708e-01
9.99009826e-01
9.98933619e-01
9.98856003e-01
9.98776907e-01
9.98696272e-01
9.98614054e-01
9.98530222e-01
9.98444763e-01
9.98357680e-01
9.98268992e-01
9.98178738e-01
9.98086974e-01
9.97993775e-01
9.97899238e-01
9.97803479e-01
9.97706635e-01
9.97608865e-01
9.97510349e-01
9.97411288e-01
9.97311906e-01
9.97212447e-01
9.97113173e-01
9.97014366e-01
9.96916321e-01
9.96819348e-01
9.96723765e-01
9.96629895e-01
9.96538066e-01
9.96448597e-01
9.96361806e-01
9.96277992e-01
9.96197440e-01
9.96120418e-01
9.96047167e-01
9.95977892e-01
9.95912785e-01
9.95852011e-01
9.95795677e-01
9.95743880e-01
9.95696722e-01
9.95654230e-01
9.95616419e-01
9.95583340e-01
9.95554980e-01
9.95531274e-01
9.95512161e-01
9.95497567e-01
9.95487714e-01
1.00523213e+00
1.00522169e+00
1.00520536e+00
1.00518337e+00
1.00515580e+00
1.00512272e+00
1.00508428e+00
1.00504072e+00
1.00499227e+00
1.00493919e+00
1.00488175e+00
1.00482024e+00
1.00475493e+00
1.00468612e+00
1.00461406e+00
1.00453904e+00
1.00446130e+00
1.00438108e+00
1.00429860e+00
1.00421405e+00
1.00412763e+00
1.00403949e+00
1.00394979e+00
1.00385864e+00
1.00376618e+00
1.00367249e+00
1.00357769e+00
1.00348185e+00
1.00338506e+00
1.00328740e+00
1.00318895e+00
1.00308981e+00
1.00299006e+00
1.00288981e+00
1.00278914e+00
1.00268819e+00
1.00258706e+00
1.00248590e+00
1.00238483e+00
1.00228400e+00
1.00218355e+00
1.00208363e+00
1.00198439e+00
1.00188597e+00
1.00178851e+00
1.00169214e+00
1.00159698e+00
1.00150314e+00
1.00141072e+00
1.00131978e+00
1.00123040e+00
1.00114261e+00
1.00105645e+00
1.00097192e+00
1.00088900e+00
1.00080768e+00
1.00072791e+00
1.00064964e+00
1.00057280e+00
1.00049731e+00
1.00042308e+00
1.00035001e+00
1.00027800e+00
1.00020693e+00
1.00013670e+00
1.00006717e+00
9.99998240e-01
9.99929767e-01
9.99861629e-01
9.99793697e-01
9.99725841e-01
9.99657932e-01
9.99589841e-01
9.99521439e-01
9.99452600e-01
9.99383199e-01
9.99313116e-01
9.99242234e-01
9.99170441e-01
9.99097631e-01
9.99023706e-01
9.98948573e-01
9.98872150e-01
9.98794365e-01
9.98715156e-01
9.98634473e-01
9.98552277e-01
9.98468543e-01
9.98383263e-01
9.98296441e-01
9.98208098e-01
9.98118273e-01
9.98027023e-01
9.97934424e-01
9.97840573e-01
9.97745586e-01
9.97649604e-01
9.97552786e-01
9.97455318e-01
9.97357406e-01
9.97259278e-01
9.97161184e-01
9.97063394e-01
9.96966194e-01
9.96869887e-01
9.96774786e-01
9.96681214e-01
9.96589497e-01
9.96499959e-01
9.96412923e-01
9.96328700e-01
9.96247586e-01
9.96169859e-01
9.96095782e-01
9.96025585e-01
9.95959466e-01
9.95897615e-01
9.95840187e-01
9.95787285e-01
9.95739014e-01
9.95695468e-01
9.95656680e-01
9.95622685e-01
9.95593523e-01
9.95569159e-01
9.95549528e-01
9.95534558e-01
9.95524487e-01
1.00518539e+00
1.00517493e+00
1.00515853e+00
1.00513643e+00
1.00510870e+00
1.00507542e+00
1.00503675e+00
1.00499292e+00
1.00494416e+00
1.00489075e+00
1.00483295e+00
1.00477106e+00
1.00470535e+00
1.00463614e+00
1.00456369e+00
1.00448828e+00
1.00441017e+00
1.00432962e+00
1.00424685e+00
1.00416209e+00
1.00407551e+00
1.00398731e+00
1.00389763e+00
1.00380663e+00
1.00371443e+00
1.00362114e+00
1.00352686e+00
1.00343170e+00
1.00333574e+00
1.00323906e+00
1.00314174e+00
1.00304388e+00
1.00294555e+00
1.00284685e+00
1.00274787e+00
1.00264871e+00
1.00254949e+00
1.00245031e+00
1.00235130e+00
1.00225257e+00
1.00215428e+00
1.00205653e+00
1.00195947e+00
1.00186323e+00
1.00176792e+00
1.00167367e+00
1.00158059e+00
1.00148877e+00
1.00139829e+00
1.00130924e+00
1.00122165e+00
1.00113558e+00
1.00105104e+00
1.00096803e+00
1.00088655e+00
1.00080656e+00
1.00072803e+00
1.00065090e+00
1.00057510e+00
1.00050056e+00
1.00042719e+00
1.00035490e+00
1.00028358e+00
1.00021313e+00
1.00014345e+00