# vtk DataFile Version 2.0
LBM Flow Field - Timestep 2570
ASCII
DATASET STRUCTURED_POINTS
DIMENSIONS 128 128 1
ORIGIN 0.0 0.0 0.0
SPACING 1.0 1.0 1.0
POINT_DATA 16384
SCALARS density double 1
LOOKUP_TABLE default
1.00181816e+00
1.00183549e+00
1.00185325e+00
1.00184638e+00
1.00183805e+00
1.00183187e+00
1.00182207e+00
1.00180880e+00
1.00179486e+00
1.00177984e+00
1.00176318e+00
1.00174540e+00
1.00172694e+00
1.00170781e+00
1.00168813e+00
1.00166814e+00
1.00164801e+00
1.00162785e+00
1.00160777e+00
1.00158790e+00
1.00156831e+00
1.00154907e+00
1.00153021e+00
1.00151175e+00
1.00149371e+00
1.00147604e+00
1.00145872e+00
1.00144168e+00
1.00142485e+00
1.00140812e+00
1.00139140e+00
1.00137457e+00
1.00135748e+00
1.00134001e+00
1.00132200e+00
1.00130330e+00
1.00128377e+00
1.00126325e+00
1.00124159e+00
1.00121866e+00
1.00119432e+00
1.00116845e+00
1.00114096e+00
1.00111175e+00
1.00108075e+00
1.00104793e+00
1.00101324e+00
1.00097670e+00
1.00093834e+00
1.00089819e+00
1.00085635e+00
1.00081291e+00
1.00076801e+00
1.00072179e+00
1.00067444e+00
1.00062614e+00
1.00057711e+00
1.00052757e+00
1.00047776e+00
1.00042791e+00
1.00037829e+00
1.00032912e+00
1.00028065e+00
1.00023311e+00
1.00018673e+00
1.00014171e+00
1.00009824e+00
1.00005649e+00
1.00001661e+00
9.99978724e-01
9.99942934e-01
9.99909317e-01
9.99877924e-01
9.99848783e-01
9.99821897e-01
9.99797246e-01
9.99774789e-01
9.99754465e-01
9.99736195e-01
9.99719884e-01
9.99705423e-01
9.99692690e-01
9.99681554e-01
9.99671876e-01
9.99663511e-01
9.99656311e-01
9.99650124e-01
9.99644799e-01
9.99640185e-01
9.99636135e-01
9.99632502e-01
9.99629149e-01
9.99625939e-01
9.99622747e-01
9.99619452e-01
9.99615943e-01
9.99612117e-01
9.99607883e-01
9.99603158e-01
9.99597873e-01
9.99591969e-01
9.99585402e-01
9.99578138e-01
9.99570162e-01
9.99561468e-01
9.99552068e-01
9.99541988e-01
9.99531271e-01
9.99519976e-01
9.99508170e-01
9.99495936e-01
9.99483386e-01
9.99470637e-01
9.99457780e-01
9.99444960e-01
9.99432400e-01
9.99420202e-01
9.99408320e-01
9.99397185e-01
9.99387292e-01
9.99378018e-01
9.99368928e-01
9.99362846e-01
9.99359882e-01
9.99354079e-01
9.99349048e-01
9.99368461e-01
9.99386646e-01
1.00183550e+00
1.00183900e+00
1.00184866e+00
1.00184486e+00
1.00183888e+00
1.00183118e+00
1.00182146e+00
1.00180913e+00
1.00179538e+00
1.00178023e+00
1.00176384e+00
1.00174632e+00
1.00172797e+00
1.00170895e+00
1.00168943e+00
1.00166957e+00
1.00164953e+00
1.00162945e+00
1.00160944e+00
1.00158962e+00
1.00157006e+00
1.00155082e+00
1.00153196e+00
1.00151348e+00
1.00149539e+00
1.00147766e+00
1.00146027e+00
1.00144314e+00
1.00142621e+00
1.00140937e+00
1.00139254e+00
1.00137557e+00
1.00135835e+00
1.00134074e+00
1.00132260e+00
1.00130376e+00
1.00128409e+00
1.00126344e+00
1.00124165e+00
1.00121860e+00
1.00119416e+00
1.00116820e+00
1.00114062e+00
1.00111134e+00
1.00108029e+00
1.00104743e+00
1.00101272e+00
1.00097618e+00
1.00093782e+00
1.00089771e+00
1.00085591e+00
1.00081253e+00
1.00076770e+00
1.00072157e+00
1.00067432e+00
1.00062612e+00
1.00057721e+00
1.00052778e+00
1.00047809e+00
1.00042837e+00
1.00037886e+00
1.00032981e+00
1.00028145e+00
1.00023401e+00
1.00018772e+00
1.00014278e+00
1.00009937e+00
1.00005767e+00
1.00001783e+00
9.99979968e-01
9.99944186e-01
9.99910563e-01
9.99879148e-01
9.99849971e-01
9.99823035e-01
9.99798321e-01
9.99775789e-01
9.99755378e-01
9.99737011e-01
9.99720593e-01
9.99706016e-01
9.99693160e-01
9.99681894e-01
9.99672081e-01
9.99663577e-01
9.99656233e-01
9.99649900e-01
9.99644428e-01
9.99639666e-01
9.99635468e-01
9.99631690e-01
9.99628192e-01
9.99624843e-01
9.99621516e-01
9.99618091e-01
9.99614459e-01
9.99610520e-01
9.99606180e-01
9.99601362e-01
9.99595995e-01
9.99590022e-01
9.99583400e-01
9.99576098e-01
9.99568099e-01
9.99559399e-01
9.99550012e-01
9.99539965e-01
9.99529299e-01
9.99518071e-01
9.99506353e-01
9.99494233e-01
9.99481806e-01
9.99469188e-01
9.99456496e-01
9.99443879e-01
9.99431464e-01
9.99419411e-01
9.99407835e-01
9.99397007e-01
9.99386996e-01
9.99377941e-01
9.99369831e-01
9.99363838e-01
9.99359295e-01
9.99355850e-01
9.99354032e-01
9.99365217e-01
9.99369174e-01
1.00185389e+00
1.00184916e+00
1.00184044e+00
1.00184203e+00
1.00183987e+00
1.00182980e+00
1.00181911e+00
1.00180809e+00
1.00179463e+00
1.00177924e+00
1.00176303e+00
1.00174585e+00
1.00172763e+00
1.00170872e+00
1.00168938e+00
1.00166967e+00
1.00164975e+00
1.00162979e+00
1.00160989e+00
1.00159015e+00
1.00157066e+00
1.00155147e+00
1.00153264e+00
1.00151418e+00
1.00149609e+00
1.00147835e+00
1.00146093e+00
1.00144376e+00
1.00142677e+00
1.00140987e+00
1.00139296e+00
1.00137592e+00
1.00135861e+00
1.00134091e+00
1.00132267e+00
1.00130374e+00
1.00128398e+00
1.00126324e+00
1.00124138e+00
1.00121825e+00
1.00119374e+00
1.00116772e+00
1.00114010e+00
1.00111078e+00
1.00107971e+00
1.00104684e+00
1.00101214e+00
1.00097561e+00
1.00093729e+00
1.00089722e+00
1.00085548e+00
1.00081217e+00
1.00076742e+00
1.00072138e+00
1.00067422e+00
1.00062613e+00
1.00057731e+00
1.00052800e+00
1.00047841e+00
1.00042880e+00
1.00037939e+00
1.00033043e+00
1.00028216e+00
1.00023481e+00
1.00018859e+00
1.00014371e+00
1.00010036e+00
1.00005870e+00
1.00001889e+00
9.99981041e-01
9.99945262e-01
9.99911628e-01
9.99880192e-01
9.99850981e-01
9.99823999e-01
9.99799229e-01
9.99776631e-01
9.99756145e-01
9.99737695e-01
9.99721186e-01
9.99706513e-01
9.99693555e-01
9.99682183e-01
9.99672261e-01
9.99663646e-01
9.99656190e-01
9.99649745e-01
9.99644162e-01
9.99639292e-01
9.99634989e-01
9.99631111e-01
9.99627519e-01
9.99624083e-01
9.99620676e-01
9.99617182e-01
9.99613492e-01
9.99609505e-01
9.99605131e-01
9.99600292e-01
9.99594920e-01
9.99588958e-01
9.99582364e-01
9.99575107e-01
9.99567171e-01
9.99558553e-01
9.99549267e-01
9.99539339e-01
9.99528810e-01
9.99517736e-01
9.99506190e-01
9.99494261e-01
9.99482035e-01
9.99469621e-01
9.99457168e-01
9.99444805e-01
9.99432587e-01
9.99420733e-01
9.99409554e-01
9.99398965e-01
9.99388773e-01
9.99380070e-01
9.99373325e-01
9.99366346e-01
9.99359403e-01
9.99359926e-01
9.99363647e-01
9.99355919e-01
9.99351456e-01
1.00184868e+00
1.00184685e+00
1.00184320e+00
1.00184108e+00
1.00183456e+00
1.00182648e+00
1.00181701e+00
1.00180519e+00
1.00179158e+00
1.00177683e+00
1.00176083e+00
1.00174369e+00
1.00172570e+00
1.00170707e+00
1.00168790e+00
1.00166837e+00
1.00164865e+00
1.00162886e+00
1.00160911e+00
1.00158952e+00
1.00157015e+00
1.00155107e+00
1.00153233e+00
1.00151393e+00
1.00149590e+00
1.00147819e+00
1.00146079e+00
1.00144362e+00
1.00142663e+00
1.00140971e+00
1.00139276e+00
1.00137568e+00
1.00135832e+00
1.00134057e+00
1.00132227e+00
1.00130328e+00
1.00128346e+00
1.00126266e+00
1.00124075e+00
1.00121757e+00
1.00119302e+00
1.00116697e+00
1.00113933e+00
1.00111000e+00
1.00107893e+00
1.00104607e+00
1.00101140e+00
1.00097491e+00
1.00093664e+00
1.00089664e+00
1.00085497e+00
1.00081175e+00
1.00076709e+00
1.00072115e+00
1.00067410e+00
1.00062612e+00
1.00057743e+00
1.00052823e+00
1.00047876e+00
1.00042926e+00
1.00037996e+00
1.00033111e+00
1.00028293e+00
1.00023566e+00
1.00018952e+00
1.00014470e+00
1.00010140e+00
1.00005978e+00
1.00001999e+00
9.99982147e-01
9.99946362e-01
9.99912708e-01
9.99881239e-01
9.99851982e-01
9.99824943e-01
9.99800104e-01
9.99777428e-01
9.99756856e-01
9.99738311e-01
9.99721703e-01
9.99706925e-01
9.99693860e-01
9.99682380e-01
9.99672350e-01
9.99663627e-01
9.99656068e-01
9.99649525e-01
9.99643850e-01
9.99638895e-01
9.99634517e-01
9.99630574e-01
9.99626930e-01
9.99623454e-01
9.99620023e-01
9.99616520e-01
9.99612838e-01
9.99608877e-01
9.99604549e-01
9.99599774e-01
9.99594487e-01
9.99588631e-01
9.99582164e-01
9.99575055e-01
9.99567288e-01
9.99558861e-01
9.99549785e-01
9.99540086e-01
9.99529806e-01
9.99519000e-01
9.99507734e-01
9.99496093e-01
9.99484177e-01
9.99472089e-01
9.99459938e-01
9.99447871e-01
9.99436036e-01
9.99424516e-01
9.99413474e-01
9.99403190e-01
9.99393710e-01
9.99384906e-01
9.99377407e-01
9.99371718e-01
9.99366845e-01
9.99362911e-01
9.99362861e-01
9.99360567e-01
9.99359166e-01
1.00184256e+00
1.00184259e+00
1.00184254e+00
1.00183603e+00
1.00182863e+00
1.00182246e+00
1.00181269e+00
1.00180022e+00
1.00178709e+00
1.00177281e+00
1.00175688e+00
1.00173992e+00
1.00172227e+00
1.00170391e+00
1.00168498e+00
1.00166571e+00
1.00164624e+00
1.00162668e+00
1.00160715e+00
1.00158775e+00
1.00156857e+00
1.00154965e+00
1.00153105e+00
1.00151278e+00
1.00149484e+00
1.00147722e+00
1.00145988e+00
1.00144276e+00
1.00142580e+00
1.00140889e+00
1.00139195e+00
1.00137485e+00
1.00135748e+00
1.00133970e+00
1.00132137e+00
1.00130235e+00
1.00128249e+00
1.00126166e+00
1.00123971e+00
1.00121651e+00
1.00119194e+00
1.00116588e+00
1.00113823e+00
1.00110892e+00
1.00107787e+00
1.00104504e+00
1.00101042e+00
1.00097399e+00
1.00093579e+00
1.00089587e+00
1.00085431e+00
1.00081119e+00
1.00076665e+00
1.00072084e+00
1.00067392e+00
1.00062608e+00
1.00057752e+00
1.00052846e+00
1.00047913e+00
1.00042976e+00
1.00038059e+00
1.00033185e+00
1.00028379e+00
1.00023661e+00
1.00019055e+00
1.00014581e+00
1.00010256e+00
1.00006097e+00
1.00002120e+00
9.99983369e-01
9.99947573e-01
9.99913893e-01
9.99882382e-01
9.99853068e-01
9.99825960e-01
9.99801040e-01
9.99778272e-01
9.99757600e-01
9.99738948e-01
9.99722228e-01
9.99707335e-01
9.99694153e-01
9.99682558e-01
9.99672415e-01
9.99663585e-01
9.99655926e-01
9.99649292e-01
9.99643536e-01
9.99638514e-01
9.99634084e-01
9.99630104e-01
9.99626442e-01
9.99622968e-01
9.99619559e-01
9.99616101e-01
9.99612487e-01
9.99608618e-01
9.99604406e-01
9.99599775e-01
9.99594656e-01
9.99588995e-01
9.99582748e-01
9.99575885e-01
9.99568390e-01
9.99560259e-01
9.99551502e-01
9.99542143e-01
9.99532222e-01
9.99521794e-01
9.99510923e-01
9.99499684e-01
9.99488178e-01
9.99476519e-01
9.99464791e-01
9.99453110e-01
9.99441694e-01
9.99430646e-01
9.99419908e-01
9.99409802e-01
9.99400903e-01
9.99392663e-01
9.99384563e-01
9.99378627e-01
9.99375771e-01
9.99371007e-01
9.99366456e-01
9.99367893e-01
9.99368543e-01
1.00183876e+00
1.00183690e+00
1.00183429e+00
1.00182962e+00
1.00182406e+00
1.00181575e+00
1.00180533e+00
1.00179416e+00
1.00178136e+00
1.00176679e+00
1.00175118e+00
1.00173473e+00
1.00171734e+00
1.00169922e+00
1.00168064e+00
1.00166171e+00
1.00164253e+00
1.00162325e+00
1.00160400e+00
1.00158486e+00
1.00156591e+00
1.00154721e+00
1.00152881e+00
1.00151071e+00
1.00149293e+00
1.00147543e+00
1.00145820e+00
1.00144117e+00
1.00142427e+00
1.00140741e+00
1.00139051e+00
1.00137343e+00
1.00135607e+00
1.00133829e+00
1.00131995e+00
1.00130092e+00
1.00128106e+00
1.00126021e+00
1.00123825e+00
1.00121505e+00
1.00119048e+00
1.00116443e+00
1.00113680e+00
1.00110752e+00
1.00107651e+00
1.00104374e+00
1.00100918e+00
1.00097284e+00
1.00093474e+00
1.00089492e+00
1.00085348e+00
1.00081049e+00
1.00076609e+00
1.00072043e+00
1.00067366e+00
1.00062598e+00
1.00057758e+00
1.00052868e+00
1.00047951e+00
1.00043029e+00
1.00038126e+00
1.00033266e+00
1.00028471e+00
1.00023765e+00
1.00019168e+00
1.00014701e+00
1.00010382e+00
1.00006228e+00
1.00002253e+00
9.99984704e-01
9.99948896e-01
9.99915185e-01
9.99883627e-01
9.99854251e-01
9.99827065e-01
9.99802056e-01
9.99779187e-01
9.99758405e-01
9.99739638e-01
9.99722798e-01
9.99707782e-01
9.99694479e-01
9.99682765e-01
9.99672508e-01
9.99663573e-01
9.99655819e-01
9.99649103e-01
9.99643280e-01
9.99638209e-01
9.99633748e-01
9.99629760e-01
9.99626113e-01
9.99622678e-01
9.99619336e-01
9.99615972e-01
9.99612481e-01
9.99608766e-01
9.99604739e-01
9.99600323e-01
9.99595451e-01
9.99590067e-01
9.99584129e-01
9.99577605e-01
9.99570477e-01
9.99562740e-01
9.99554403e-01
9.99545489e-01
9.99536033e-01
9.99526085e-01
9.99515712e-01
9.99504989e-01
9.99493994e-01
9.99482836e-01
9.99471646e-01
9.99460508e-01
9.99449508e-01
9.99438885e-01
9.99428812e-01
9.99419150e-01
9.99410072e-01
9.99402283e-01
9.99395589e-01
9.99389062e-01
9.99384064e-01
9.99381263e-01
9.99378679e-01
9.99377488e-01
9.99376214e-01
1.00183129e+00
1.00182925e+00
1.00182547e+00
1.00182186e+00
1.00181595e+00
1.00180696e+00
1.00179736e+00
1.00178649e+00
1.00177348e+00
1.00175923e+00
1.00174416e+00
1.00172799e+00
1.00171087e+00
1.00169316e+00
1.00167497e+00
1.00165638e+00
1.00163755e+00
1.00161863e+00
1.00159971e+00
1.00158088e+00
1.00156222e+00
1.00154379e+00
1.00152563e+00
1.00150775e+00
1.00149016e+00
1.00147284e+00
1.00145575e+00
1.00143885e+00
1.00142205e+00
1.00140528e+00
1.00138844e+00
1.00137142e+00
1.00135410e+00
1.00133635e+00
1.00131803e+00
1.00129902e+00
1.00127916e+00
1.00125833e+00
1.00123638e+00
1.00121319e+00
1.00118864e+00
1.00116262e+00
1.00113504e+00
1.00110580e+00
1.00107486e+00
1.00104217e+00
1.00100770e+00
1.00097146e+00
1.00093347e+00
1.00089379e+00
1.00085248e+00
1.00080965e+00
1.00076542e+00
1.00071992e+00
1.00067333e+00
1.00062582e+00
1.00057760e+00
1.00052888e+00
1.00047988e+00
1.00043083e+00
1.00038196e+00
1.00033351e+00
1.00028570e+00
1.00023875e+00
1.00019289e+00
1.00014830e+00
1.00010518e+00
1.00006369e+00
1.00002397e+00
9.99986143e-01
9.99950321e-01
9.99916577e-01
9.99884968e-01
9.99855524e-01
9.99828256e-01
9.99803150e-01
9.99780175e-01
9.99759277e-01
9.99740387e-01
9.99723421e-01
9.99708279e-01
9.99694851e-01
9.99683016e-01
9.99672647e-01
9.99663611e-01
9.99655768e-01
9.99648979e-01
9.99643104e-01
9.99638000e-01
9.99633532e-01
9.99629562e-01
9.99625962e-01
9.99622604e-01
9.99619371e-01
9.99616149e-01
9.99612834e-01
9.99609330e-01
9.99605551e-01
9.99601418e-01
9.99596865e-01
9.99591837e-01
9.99586288e-01
9.99580188e-01
9.99573516e-01
9.99566266e-01
9.99558443e-01
9.99550068e-01
9.99541176e-01
9.99531809e-01
9.99522027e-01
9.99511910e-01
9.99501536e-01
9.99490982e-01
9.99480375e-01
9.99469859e-01
9.99459479e-01
9.99449317e-01
9.99439696e-01
9.99430735e-01
9.99422124e-01
9.99414227e-01
9.99407939e-01
9.99402354e-01
9.99396737e-01
9.99393609e-01
9.99392172e-01
9.99389804e-01
9.99388344e-01
1.00182026e+00
1.00181896e+00
1.00181630e+00
1.00181176e+00
1.00180512e+00
1.00179736e+00
1.00178805e+00
1.00177660e+00
1.00176402e+00
1.00175048e+00
1.00173560e+00
1.00171966e+00
1.00170305e+00
1.00168580e+00
1.00166798e+00
1.00164979e+00
1.00163139e+00
1.00161287e+00
1.00159432e+00
1.00157585e+00
1.00155754e+00
1.00153942e+00
1.00152155e+00
1.00150394e+00
1.00148659e+00
1.00146948e+00
1.00145258e+00
1.00143584e+00
1.00141919e+00
1.00140253e+00
1.00138579e+00
1.00136885e+00
1.00135160e+00
1.00133390e+00
1.00131563e+00
1.00129666e+00
1.00127684e+00
1.00125603e+00
1.00123412e+00
1.00121097e+00
1.00118647e+00
1.00116050e+00
1.00113297e+00
1.00110380e+00
1.00107294e+00
1.00104034e+00
1.00100599e+00
1.00096987e+00
1.00093202e+00
1.00089248e+00
1.00085134e+00
1.00080868e+00
1.00076462e+00
1.00071932e+00
1.00067292e+00
1.00062561e+00
1.00057759e+00
1.00052906e+00
1.00048025e+00
1.00043139e+00
1.00038269e+00
1.00033440e+00
1.00028673e+00
1.00023992e+00
1.00019417e+00
1.00014967e+00
1.00010662e+00
1.00006518e+00
1.00002548e+00
9.99987669e-01
9.99951832e-01
9.99918054e-01
9.99886390e-01
9.99856875e-01
9.99829519e-01
9.99804312e-01
9.99781223e-01
9.99760203e-01
9.99741186e-01
9.99724089e-01
9.99708817e-01
9.99695261e-01
9.99683306e-01
9.99672827e-01
9.99663693e-01
9.99655769e-01
9.99648919e-01
9.99643004e-01
9.99637887e-01
9.99633433e-01
9.99629508e-01
9.99625985e-01
9.99622740e-01
9.99619656e-01
9.99616621e-01
9.99613533e-01
9.99610296e-01
9.99606823e-01
9.99603038e-01
9.99598874e-01
9.99594274e-01
9.99589193e-01
9.99583597e-01
9.99577465e-01
9.99570788e-01
9.99563569e-01
9.99555824e-01
9.99547584e-01
9.99538894e-01
9.99529801e-01
9.99520371e-01
9.99510698e-01
9.99500867e-01
9.99490939e-01
9.99481044e-01
9.99471368e-01
9.99461933e-01
9.99452741e-01
9.99444158e-01
9.99436420e-01
9.99429093e-01
9.99422343e-01
9.99417141e-01
9.99412879e-01
9.99409061e-01
9.99406722e-01
9.99405539e-01
9.99404848e-01
1.00180840e+00
1.00180708e+00
1.00180457e+00
1.00179977e+00
1.00179350e+00
1.00178603e+00
1.00177647e+00
1.00176544e+00
1.00175345e+00
1.00174008e+00
1.00172548e+00
1.00171011e+00
1.00169397e+00
1.00167711e+00
1.00165975e+00
1.00164206e+00
1.00162412e+00
1.00160603e+00
1.00158791e+00
1.00156986e+00
1.00155193e+00
1.00153418e+00
1.00151664e+00
1.00149934e+00
1.00148227e+00
1.00146542e+00
1.00144874e+00
1.00143220e+00
1.00141572e+00
1.00139922e+00
1.00138261e+00
1.00136578e+00
1.00134862e+00
1.00133100e+00
1.00131280e+00
1.00129388e+00
1.00127412e+00
1.00125337e+00
1.00123151e+00
1.00120842e+00
1.00118397e+00
1.00115807e+00
1.00113062e+00
1.00110154e+00
1.00107078e+00
1.00103830e+00
1.00100406e+00
1.00096809e+00
1.00093039e+00
1.00089102e+00
1.00085006e+00
1.00080758e+00
1.00076373e+00
1.00071863e+00
1.00067244e+00
1.00062535e+00
1.00057754e+00
1.00052922e+00
1.00048062e+00
1.00043195e+00
1.00038343e+00
1.00033531e+00
1.00028781e+00
1.00024113e+00
1.00019550e+00
1.00015111e+00
1.00010813e+00
1.00006674e+00
1.00002708e+00
9.99989268e-01
9.99953416e-01
9.99919601e-01
9.99887880e-01
9.99858289e-01
9.99830840e-01
9.99805527e-01
9.99782320e-01
9.99761174e-01
9.99742024e-01
9.99724792e-01
9.99709387e-01
9.99695703e-01
9.99683627e-01
9.99673039e-01
9.99663812e-01
9.99655814e-01
9.99648912e-01
9.99642972e-01
9.99637858e-01
9.99633438e-01
9.99629583e-01
9.99626167e-01
9.99623067e-01
9.99620169e-01
9.99617364e-01
9.99614549e-01
9.99611629e-01
9.99608520e-01
9.99605143e-01
9.99601431e-01
9.99597327e-01
9.99592785e-01
9.99587769e-01
9.99582255e-01
9.99576231e-01
9.99569699e-01
9.99562670e-01
9.99555168e-01
9.99547234e-01
9.99538919e-01
9.99530277e-01
9.99521376e-01
9.99512321e-01
9.99503199e-01
9.99494055e-01
9.99485031e-01
9.99476325e-01
9.99467924e-01
9.99459823e-01
9.99452427e-01
9.99445867e-01
9.99439675e-01
9.99434329e-01
9.99430453e-01
9.99427105e-01
9.99424541e-01
9.99423543e-01
9.99422875e-01
1.00179526e+00
1.00179362e+00
1.00179073e+00
1.00178645e+00
1.00178057e+00
1.00177276e+00
1.00176349e+00
1.00175315e+00
1.00174133e+00
1.00172819e+00
1.00171421e+00
1.00169934e+00
1.00168360e+00
1.00166724e+00
1.00165044e+00
1.00163325e+00
1.00161579e+00
1.00159820e+00
1.00158057e+00
1.00156297e+00
1.00154547e+00
1.00152813e+00
1.00151097e+00
1.00149402e+00
1.00147727e+00
1.00146071e+00
1.00144429e+00
1.00142798e+00
1.00141171e+00
1.00139539e+00
1.00137893e+00
1.00136224e+00
1.00134520e+00
1.00132768e+00
1.00130958e+00
1.00129074e+00
1.00127105e+00
1.00125038e+00
1.00122859e+00
1.00120556e+00
1.00118120e+00
1.00115538e+00
1.00112802e+00
1.00109905e+00
1.00106840e+00
1.00103604e+00
1.00100195e+00
1.00096613e+00
1.00092860e+00
1.00088942e+00
1.00084864e+00
1.00080638e+00
1.00076274e+00
1.00071785e+00
1.00067189e+00
1.00062503e+00
1.00057744e+00
1.00052935e+00
1.00048097e+00
1.00043250e+00
1.00038419e+00
1.00033625e+00
1.00028891e+00
1.00024238e+00
1.00019688e+00
1.00015258e+00
1.00010969e+00
1.00006835e+00
1.00002872e+00
9.99990924e-01
9.99955056e-01
9.99921202e-01
9.99889422e-01
9.99859752e-01
9.99832207e-01
9.99806783e-01
9.99783454e-01
9.99762177e-01
9.99742891e-01
9.99725522e-01
9.99709980e-01
9.99696167e-01
9.99683972e-01
9.99673278e-01
9.99663962e-01
9.99655898e-01
9.99648954e-01
9.99643000e-01
9.99637906e-01
9.99633541e-01
9.99629778e-01
9.99626495e-01
9.99623573e-01
9.99620897e-01
9.99618360e-01
9.99615861e-01
9.99613307e-01
9.99610612e-01
9.99607698e-01
9.99604499e-01
9.99600955e-01
9.99597018e-01
9.99592651e-01
9.99587827e-01
9.99582532e-01
9.99576761e-01
9.99570526e-01
9.99563845e-01
9.99556748e-01
9.99549282e-01
9.99541510e-01
9.99533482e-01
9.99525265e-01
9.99516978e-01
9.99508713e-01
9.99500487e-01
9.99492437e-01
9.99484799e-01
9.99477536e-01
9.99470571e-01
9.99464344e-01
9.99459000e-01
9.99454081e-01
9.99449959e-01
9.99447097e-01
9.99445123e-01
9.99443796e-01
9.99442841e-01
1.00178021e+00
1.00177868e+00
1.00177584e+00
1.00177166e+00
1.00176578e+00
1.00175824e+00
1.00174948e+00
1.00173932e+00
1.00172778e+00
1.00171525e+00
1.00170177e+00
1.00168730e+00
1.00167210e+00
1.00165635e+00
1.00164009e+00
1.00162342e+00
1.00160653e+00
1.00158948e+00
1.00157236e+00
1.00155526e+00
1.00153824e+00
1.00152134e+00
1.00150460e+00
1.00148804e+00
1.00147165e+00
1.00145541e+00
1.00143929e+00
1.00142324e+00
1.00140720e+00
1.00139109e+00
1.00137482e+00
1.00135829e+00
1.00134139e+00
1.00132400e+00
1.00130601e+00
1.00128727e+00
1.00126767e+00
1.00124709e+00
1.00122539e+00
1.00120245e+00
1.00117817e+00
1.00115245e+00
1.00112520e+00
1.00109634e+00
1.00106583e+00
1.00103361e+00
1.00099967e+00
1.00096402e+00
1.00092667e+00
1.00088768e+00
1.00084711e+00
1.00080507e+00
1.00076165e+00
1.00071700e+00
1.00067128e+00
1.00062465e+00
1.00057731e+00
1.00052945e+00
1.00048129e+00
1.00043305e+00
1.00038494e+00
1.00033719e+00
1.00029003e+00
1.00024365e+00
1.00019828e+00
1.00015410e+00
1.00011129e+00
1.00007001e+00
1.00003041e+00
9.99992621e-01
9.99956736e-01
9.99922843e-01
9.99891001e-01
9.99861250e-01
9.99833606e-01
9.99808068e-01
9.99784614e-01
9.99763203e-01
9.99743778e-01
9.99726270e-01
9.99710591e-01
9.99696648e-01
9.99684335e-01
9.99673538e-01
9.99664139e-01
9.99656015e-01
9.99649039e-01
9.99643085e-01
9.99638024e-01
9.99633732e-01
9.99630083e-01
9.99626958e-01
9.99624240e-01
9.99621818e-01
9.99619585e-01
9.99617442e-01
9.99615295e-01
9.99613061e-01
9.99610660e-01
9.99608026e-01
9.99605097e-01
9.99601825e-01
9.99598170e-01
9.99594101e-01
9.99589602e-01
9.99584664e-01
9.99579291e-01
9.99573501e-01
9.99567320e-01
9.99560778e-01
9.99553932e-01
9.99546850e-01
9.99539579e-01
9.99532182e-01
9.99524788e-01
9.99517486e-01
9.99510279e-01
9.99503302e-01
9.99496780e-01
9.99490649e-01
9.99484889e-01
9.99479894e-01
9.99475631e-01
9.99471891e-01
9.99469121e-01
9.99467335e-01
9.99466112e-01
9.99465321e-01
1.00176372e+00
1.00176231e+00
1.00175967e+00
1.00175545e+00
1.00174969e+00
1.00174261e+00
1.00173411e+00
1.00172418e+00
1.00171320e+00
1.00170120e+00
1.00168812e+00
1.00167421e+00
1.00165965e+00
1.00164446e+00
1.00162876e+00
1.00161271e+00
1.00159641e+00
1.00157993e+00
1.00156337e+00
1.00154681e+00
1.00153031e+00
1.00151389e+00
1.00149761e+00
1.00148147e+00
1.00146547e+00
1.00144959e+00
1.00143380e+00
1.00141804e+00
1.00140227e+00
1.00138639e+00
1.00137033e+00
1.00135398e+00
1.00133725e+00
1.00132000e+00
1.00130213e+00
1.00128352e+00
1.00126403e+00
1.00124355e+00
1.00122194e+00
1.00119911e+00
1.00117494e+00
1.00114933e+00
1.00112219e+00
1.00109346e+00
1.00106308e+00
1.00103102e+00
1.00099724e+00
1.00096177e+00
1.00092461e+00
1.00088583e+00
1.00084548e+00
1.00080366e+00
1.00076048e+00
1.00071607e+00
1.00067060e+00
1.00062422e+00
1.00057713e+00
1.00052951e+00
1.00048159e+00
1.00043358e+00
1.00038568e+00
1.00033813e+00
1.00029115e+00
1.00024493e+00
1.00019969e+00
1.00015562e+00
1.00011290e+00
1.00007169e+00
1.00003213e+00
9.99994343e-01
9.99958443e-01
9.99924510e-01
9.99892605e-01
9.99862771e-01
9.99835027e-01
9.99809374e-01
9.99785792e-01
9.99764245e-01
9.99744681e-01
9.99727032e-01
9.99711217e-01
9.99697146e-01
9.99684716e-01
9.99673820e-01
9.99664344e-01
9.99656167e-01
9.99649168e-01
9.99643224e-01
9.99638212e-01
9.99634009e-01
9.99630494e-01
9.99627549e-01
9.99625062e-01
9.99622922e-01
9.99621024e-01
9.99619272e-01
9.99617572e-01
9.99615839e-01
9.99613997e-01
9.99611975e-01
9.99609713e-01
9.99607159e-01
9.99604271e-01
9.99601015e-01
9.99597372e-01
9.99593329e-01
9.99588883e-01
9.99584046e-01
9.99578841e-01
9.99573298e-01
9.99567450e-01
9.99561355e-01
9.99555089e-01
9.99548694e-01
9.99542224e-01
9.99535816e-01
9.99529558e-01
9.99523428e-01
9.99517563e-01
9.99512186e-01
9.99507202e-01
9.99502609e-01
9.99498754e-01
9.99495618e-01
9.99493074e-01
9.99491322e-01
9.99490373e-01
9.99489761e-01
1.00174622e+00
1.00174477e+00
1.00174215e+00
1.00173808e+00
1.00173261e+00
1.00172576e+00
1.00171752e+00
1.00170810e+00
1.00169762e+00
1.00168602e+00
1.00167351e+00
1.00166025e+00
1.00164626e+00
1.00163166e+00
1.00161662e+00
1.00160121e+00
1.00158552e+00
1.00156965e+00
1.00155370e+00
1.00153772e+00
1.00152175e+00
1.00150586e+00
1.00149007e+00
1.00147439e+00
1.00145881e+00
1.00144332e+00
1.00142788e+00
1.00141244e+00
1.00139696e+00
1.00138134e+00
1.00136551e+00
1.00134937e+00
1.00133281e+00
1.00131573e+00
1.00129801e+00
1.00127953e+00
1.00126016e+00
1.00123979e+00
1.00121831e+00
1.00119558e+00
1.00117152e+00
1.00114603e+00
1.00111903e+00
1.00109043e+00
1.00106020e+00
1.00102829e+00
1.00099469e+00
1.00095940e+00
1.00092245e+00
1.00088387e+00
1.00084375e+00
1.00080216e+00
1.00075923e+00
1.00071508e+00
1.00066986e+00
1.00062373e+00
1.00057690e+00
1.00052954e+00
1.00048186e+00
1.00043407e+00
1.00038640e+00
1.00033906e+00
1.00029225e+00
1.00024620e+00
1.00020111e+00
1.00015715e+00
1.00011452e+00
1.00007337e+00
1.00003385e+00
9.99996076e-01
9.99960162e-01
9.99926189e-01
9.99894222e-01
9.99864305e-01
9.99836460e-01
9.99810690e-01
9.99786981e-01
9.99765298e-01
9.99745594e-01
9.99727805e-01
9.99711855e-01
9.99697657e-01
9.99685114e-01
9.99674123e-01
9.99664574e-01
9.99656352e-01
9.99649339e-01
9.99643417e-01
9.99638465e-01
9.99634366e-01
9.99631002e-01
9.99628257e-01
9.99626022e-01
9.99624188e-01
9.99622654e-01
9.99621322e-01
9.99620100e-01
9.99618905e-01
9.99617658e-01
9.99616290e-01
9.99614737e-01
9.99612947e-01
9.99610874e-01
9.99608482e-01
9.99605745e-01
9.99602648e-01
9.99599186e-01
9.99595360e-01
9.99591184e-01
9.99586690e-01
9.99581908e-01
9.99576870e-01
9.99571636e-01
9.99566284e-01
9.99560854e-01
9.99555391e-01
9.99550029e-01
9.99544848e-01
9.99539824e-01
9.99535095e-01
9.99530824e-01
9.99526934e-01
9.99523504e-01
9.99520739e-01
9.99518594e-01
9.99517089e-01
9.99516231e-01
9.99515657e-01
1.00172763e+00
1.00172617e+00
1.00172357e+00
1.00171971e+00
1.00171447e+00
1.00170786e+00
1.00170003e+00
1.00169110e+00
1.00168103e+00
1.00166997e+00
1.00165810e+00
1.00164542e+00
1.00163204e+00
1.00161812e+00
1.00160375e+00
1.00158899e+00
1.00157396e+00
1.00155875e+00
1.00154343e+00
1.00152804e+00
1.00151267e+00
1.00149733e+00
1.00148206e+00
1.00146686e+00
1.00145173e+00
1.00143665e+00
1.00142160e+00
1.00140651e+00
1.00139133e+00
1.00137600e+00
1.00136041e+00
1.00134450e+00
1.00132814e+00
1.00131124e+00
1.00129368e+00
1.00127534e+00
1.00125611e+00
1.00123587e+00
1.00121451e+00
1.00119191e+00
1.00116797e+00
1.00114261e+00
1.00111573e+00
1.00108728e+00
1.00105720e+00
1.00102546e+00
1.00099204e+00
1.00095694e+00
1.00092019e+00
1.00088183e+00
1.00084194e+00
1.00080059e+00
1.00075791e+00
1.00071401e+00
1.00066905e+00
1.00062319e+00
1.00057661e+00
1.00052951e+00
1.00048208e+00
1.00043454e+00
1.00038709e+00
1.00033995e+00
1.00029334e+00
1.00024746e+00
1.00020251e+00
1.00015867e+00
1.00011613e+00
1.00007505e+00
1.00003557e+00
9.99997808e-01
9.99961880e-01
9.99927869e-01
9.99895841e-01
9.99865842e-01
9.99837897e-01
9.99812012e-01
9.99788175e-01
9.99766358e-01
9.99746515e-01
9.99728588e-01
9.99712505e-01
9.99698184e-01
9.99685532e-01
9.99674451e-01
9.99664835e-01
9.99656575e-01
9.99649556e-01
9.99643665e-01
9.99638787e-01
9.99634805e-01
9.99631606e-01
9.99629079e-01
9.99627115e-01
9.99625609e-01
9.99624461e-01
9.99623575e-01
9.99622860e-01
9.99622233e-01
9.99621614e-01
9.99620933e-01
9.99620127e-01
9.99619138e-01
9.99617920e-01
9.99616434e-01
9.99614649e-01
9.99612543e-01
9.99610108e-01
9.99607342e-01
9.99604250e-01
9.99600847e-01
9.99597168e-01
9.99593248e-01
9.99589112e-01
9.99584821e-01
9.99580455e-01
9.99576043e-01
9.99571628e-01
9.99567341e-01
9.99563241e-01
9.99559306e-01
9.99555674e-01
9.99552467e-01
9.99549626e-01
9.99547233e-01
9.99545447e-01
9.99544248e-01
9.99543498e-01
9.99542983e-01
1.00170808e+00
1.00170666e+00
1.00170417e+00
1.00170043e+00
1.00169541e+00
1.00168914e+00
1.00168174e+00
1.00167321e+00
1.00166365e+00
1.00165320e+00
1.00164191e+00
1.00162985e+00
1.00161716e+00
1.00160394e+00
1.00159024e+00
1.00157617e+00
1.00156184e+00
1.00154731e+00
1.00153264e+00
1.00151790e+00
1.00150313e+00
1.00148838e+00
1.00147365e+00
1.00145896e+00
1.00144431e+00
1.00142967e+00
1.00141502e+00
1.00140030e+00
1.00138546e+00
1.00137042e+00
1.00135511e+00
1.00133943e+00
1.00132329e+00
1.00130658e+00
1.00128919e+00
1.00127101e+00
1.00125193e+00
1.00123182e+00
1.00121059e+00
1.00118812e+00
1.00116431e+00
1.00113908e+00
1.00111234e+00
1.00108404e+00
1.00105412e+00
1.00102254e+00
1.00098930e+00
1.00095440e+00
1.00091786e+00
1.00087972e+00
1.00084006e+00
1.00079896e+00
1.00075652e+00
1.00071288e+00
1.00066819e+00
1.00062259e+00
1.00057628e+00
1.00052943e+00
1.00048226e+00
1.00043496e+00
1.00038774e+00
1.00034081e+00
1.00029439e+00
1.00024868e+00
1.00020388e+00
1.00016017e+00
1.00011773e+00
1.00007671e+00
1.00003727e+00
9.99999527e-01
9.99963588e-01
9.99929541e-01
9.99897454e-01
9.99867375e-01
9.99839332e-01
9.99813334e-01
9.99789372e-01
9.99767423e-01
9.99747444e-01
9.99729382e-01
9.99713169e-01
9.99698728e-01
9.99685972e-01
9.99674806e-01
9.99665129e-01
9.99656837e-01
9.99649821e-01
9.99643970e-01
9.99639173e-01
9.99635320e-01
9.99632299e-01
9.99630003e-01
9.99628325e-01
9.99627164e-01
9.99626420e-01
9.99626000e-01
9.99625813e-01
9.99625776e-01
9.99625811e-01
9.99625844e-01
9.99625812e-01
9.99625655e-01
9.99625324e-01
9.99624775e-01
9.99623975e-01
9.99622899e-01
9.99621528e-01
9.99619855e-01
9.99617885e-01
9.99615622e-01
9.99613083e-01
9.99610304e-01
9.99607319e-01
9.99604150e-01
9.99600856e-01
9.99597512e-01
9.99594140e-01
9.99590783e-01
9.99587556e-01
9.99584499e-01
9.99581613e-01
9.99579014e-01
9.99576772e-01
9.99574888e-01
9.99573441e-01
9.99572476e-01
9.99571907e-01
9.99571534e-01
1.00168777e+00
1.00168640e+00
1.00168399e+00
1.00168040e+00
1.00167563e+00
1.00166973e+00
1.00166270e+00
1.00165464e+00
1.00164564e+00
1.00163578e+00
1.00162509e+00
1.00161371e+00
1.00160172e+00
1.00158918e+00
1.00157620e+00
1.00156287e+00
1.00154925e+00
1.00153541e+00
1.00152143e+00
1.00150736e+00
1.00149323e+00
1.00147908e+00
1.00146492e+00
1.00145077e+00
1.00143662e+00
1.00142244e+00
1.00140821e+00
1.00139388e+00
1.00137939e+00
1.00136467e+00
1.00134964e+00
1.00133422e+00
1.00131830e+00
1.00130180e+00
1.00128459e+00
1.00126658e+00
1.00124765e+00
1.00122769e+00
1.00120659e+00
1.00118425e+00
1.00116057e+00
1.00113548e+00
1.00110888e+00
1.00108073e+00
1.00105097e+00
1.00101956e+00
1.00098650e+00
1.00095179e+00
1.00091546e+00
1.00087755e+00
1.00083812e+00
1.00079726e+00
1.00075508e+00
1.00071170e+00
1.00066727e+00
1.00062194e+00
1.00057589e+00
1.00052930e+00
1.00048238e+00
1.00043532e+00
1.00038833e+00
1.00034162e+00
1.00029540e+00
1.00024986e+00
1.00020521e+00