# vtk DataFile Version 2.0
LBM Flow Field - Timestep 1080
ASCII
DATASET STRUCTURED_POINTS
DIMENSIONS 128 128 1
ORIGIN 0.0 0.0 0.0
SPACING 1.0 1.0 1.0
POINT_DATA 16384
SCALARS density double 1
LOOKUP_TABLE default
9.99499291e-01
9.99491052e-01
9.99479512e-01
9.99467308e-01
9.99451487e-01
9.99432259e-01
9.99410023e-01
9.99384898e-01
9.99356924e-01
9.99326349e-01
9.99293420e-01
9.99258432e-01
9.99221730e-01
9.99183728e-01
9.99144899e-01
9.99105793e-01
9.99067019e-01
9.99029252e-01
9.98993222e-01
9.98959703e-01
9.98929498e-01
9.98903421e-01
9.98882276e-01
9.98866829e-01
9.98857782e-01
9.98855741e-01
9.98861191e-01
9.98874464e-01
9.98895717e-01
9.98924909e-01
9.98961796e-01
9.99005919e-01
9.99056618e-01
9.99113041e-01
9.99174182e-01
9.99238907e-01
9.99306007e-01
9.99374244e-01
9.99442405e-01
9.99509353e-01
9.99574072e-01
9.99635710e-01
9.99693604e-01
9.99747303e-01
9.99796564e-01
9.99841353e-01
9.99881822e-01
9.99918280e-01
9.99951162e-01
9.99980986e-01
1.00000832e+00
1.00003372e+00
1.00005775e+00
1.00008088e+00
1.00010352e+00
1.00012600e+00
1.00014852e+00
1.00017122e+00
1.00019412e+00
1.00021718e+00
1.00024031e+00
1.00026336e+00
1.00028617e+00
1.00030859e+00
1.00033048e+00
1.00035173e+00
1.00037228e+00
1.00039212e+00
1.00041130e+00
1.00042991e+00
1.00044809e+00
1.00046603e+00
1.00048393e+00
1.00050202e+00
1.00052053e+00
1.00053967e+00
1.00055965e+00
1.00058063e+00
1.00060274e+00
1.00062606e+00
1.00065062e+00
1.00067639e+00
1.00070331e+00
1.00073125e+00
1.00076001e+00
1.00078939e+00
1.00081910e+00
1.00084885e+00
1.00087829e+00
1.00090707e+00
1.00093482e+00
1.00096117e+00
1.00098574e+00
1.00100818e+00
1.00102819e+00
1.00104548e+00
1.00105982e+00
1.00107104e+00
1.00107903e+00
1.00108377e+00
1.00108527e+00
1.00108365e+00
1.00107907e+00
1.00107176e+00
1.00106200e+00
1.00105010e+00
1.00103641e+00
1.00102129e+00
1.00100512e+00
1.00098826e+00
1.00097104e+00
1.00095378e+00
1.00093678e+00
1.00092026e+00
1.00090444e+00
1.00088947e+00
1.00087547e+00
1.00086251e+00
1.00085064e+00
1.00083991e+00
1.00083026e+00
1.00082169e+00
1.00081423e+00
1.00080788e+00
1.00080238e+00
1.00079793e+00
1.00079461e+00
1.00079217e+00
9.99491749e-01
9.99485320e-01
9.99474665e-01
9.99462276e-01
9.99446289e-01
9.99427268e-01
9.99405107e-01
9.99380077e-01
9.99352238e-01
9.99321851e-01
9.99289131e-01
9.99254402e-01
9.99218012e-01
9.99180386e-01
9.99142002e-01
9.99103412e-01
9.99065227e-01
9.99028121e-01
9.98992818e-01
9.98960085e-01
9.98930713e-01
9.98905501e-01
9.98885233e-01
9.98870654e-01
9.98862441e-01
9.98861176e-01
9.98867314e-01
9.98881162e-01
9.98902853e-01
9.98932326e-01
9.98969320e-01
9.99013368e-01
9.99063808e-01
9.99119799e-01
9.99180346e-01
9.99244342e-01
9.99310609e-01
9.99377945e-01
9.99445176e-01
9.99511206e-01
9.99575058e-01
9.99635915e-01
9.99693141e-01
9.99746305e-01
9.99795176e-01
9.99839724e-01
9.99880093e-01
9.99916580e-01
9.99949600e-01
9.99979648e-01
1.00000726e+00
1.00003299e+00
1.00005734e+00
1.00008079e+00
1.00010372e+00
1.00012644e+00
1.00014915e+00
1.00017198e+00
1.00019496e+00
1.00021804e+00
1.00024115e+00
1.00026413e+00
1.00028685e+00
1.00030915e+00
1.00033091e+00
1.00035203e+00
1.00037245e+00
1.00039216e+00
1.00041120e+00
1.00042969e+00
1.00044774e+00
1.00046556e+00
1.00048332e+00
1.00050127e+00
1.00051963e+00
1.00053860e+00
1.00055839e+00
1.00057916e+00
1.00060104e+00
1.00062411e+00
1.00064841e+00
1.00067393e+00
1.00070058e+00
1.00072826e+00
1.00075678e+00
1.00078593e+00
1.00081546e+00
1.00084505e+00
1.00087440e+00
1.00090313e+00
1.00093090e+00
1.00095732e+00
1.00098205e+00
1.00100472e+00
1.00102503e+00
1.00104268e+00
1.00105745e+00
1.00106916e+00
1.00107769e+00
1.00108299e+00
1.00108508e+00
1.00108406e+00
1.00108006e+00
1.00107331e+00
1.00106408e+00
1.00105266e+00
1.00103939e+00
1.00102464e+00
1.00100876e+00
1.00099212e+00
1.00097506e+00
1.00095789e+00
1.00094090e+00
1.00092436e+00
1.00090845e+00
1.00089336e+00
1.00087921e+00
1.00086610e+00
1.00085406e+00
1.00084315e+00
1.00083335e+00
1.00082467e+00
1.00081707e+00
1.00081058e+00
1.00080500e+00
1.00080062e+00
1.00079720e+00
1.00079461e+00
9.99481867e-01
9.99476249e-01
9.99467834e-01
9.99454792e-01
9.99438628e-01
9.99419767e-01
9.99397742e-01
9.99372763e-01
9.99345059e-01
9.99314838e-01
9.99282335e-01
9.99247872e-01
9.99211811e-01
9.99174581e-01
9.99136671e-01
9.99098630e-01
9.99061073e-01
9.99024670e-01
9.98990142e-01
9.98958245e-01
9.98929759e-01
9.98905469e-01
9.98886141e-01
9.98872497e-01
9.98865193e-01
9.98864785e-01
9.98871703e-01
9.98886230e-01
9.98908473e-01
9.98938353e-01
9.98975593e-01
9.99019716e-01
9.99070057e-01
9.99125779e-01
9.99185899e-01
9.99249331e-01
9.99314921e-01
9.99381501e-01
9.99447932e-01
9.99513154e-01
9.99576226e-01
9.99636364e-01
9.99692962e-01
9.99745608e-01
9.99794088e-01
9.99838375e-01
9.99878614e-01
9.99915093e-01
9.99948212e-01
9.99978447e-01
1.00000631e+00
1.00003233e+00
1.00005700e+00
1.00008077e+00
1.00010399e+00
1.00012697e+00
1.00014989e+00
1.00017288e+00
1.00019596e+00
1.00021910e+00
1.00024220e+00
1.00026513e+00
1.00028776e+00
1.00030995e+00
1.00033156e+00
1.00035252e+00
1.00037276e+00
1.00039228e+00
1.00041114e+00
1.00042942e+00
1.00044726e+00
1.00046485e+00
1.00048238e+00
1.00050008e+00
1.00051816e+00
1.00053684e+00
1.00055632e+00
1.00057677e+00
1.00059831e+00
1.00062104e+00
1.00064499e+00
1.00067018e+00
1.00069652e+00
1.00072392e+00
1.00075221e+00
1.00078119e+00
1.00081062e+00
1.00084020e+00
1.00086961e+00
1.00089853e+00
1.00092658e+00
1.00095340e+00
1.00097864e+00
1.00100192e+00
1.00102294e+00
1.00104139e+00
1.00105703e+00
1.00106966e+00
1.00107915e+00
1.00108541e+00
1.00108846e+00
1.00108836e+00
1.00108524e+00
1.00107929e+00
1.00107077e+00
1.00105997e+00
1.00104722e+00
1.00103286e+00
1.00101727e+00
1.00100079e+00
1.00098379e+00
1.00096659e+00
1.00094948e+00
1.00093274e+00
1.00091658e+00
1.00090118e+00
1.00088669e+00
1.00087323e+00
1.00086084e+00
1.00084955e+00
1.00083943e+00
1.00083047e+00
1.00082257e+00
1.00081573e+00
1.00081008e+00
1.00080551e+00
1.00080177e+00
1.00079882e+00
9.99472379e-01
9.99466328e-01
9.99457051e-01
9.99444181e-01
9.99428503e-01
9.99409575e-01
9.99387553e-01
9.99362711e-01
9.99335188e-01
9.99305170e-01
9.99272941e-01
9.99238820e-01
9.99203181e-01
9.99166451e-01
9.99129125e-01
9.99091756e-01
9.99054954e-01
9.99019386e-01
9.98985763e-01
9.98954831e-01
9.98927354e-01
9.98904100e-01
9.98885811e-01
9.98873190e-01
9.98866863e-01
9.98867361e-01
9.98875090e-01
9.98890306e-01
9.98913096e-01
9.98943363e-01
9.98980819e-01
9.99024980e-01
9.99075184e-01
9.99130602e-01
9.99190272e-01
9.99253130e-01
9.99318054e-01
9.99383909e-01
9.99449593e-01
9.99514085e-01
9.99576477e-01
9.99636015e-01
9.99692119e-01
9.99744393e-01
9.99792631e-01
9.99836808e-01
9.99877063e-01
9.99913668e-01
9.99947005e-01
9.99977529e-01
1.00000573e+00
1.00003210e+00
1.00005712e+00
1.00008121e+00
1.00010472e+00
1.00012793e+00
1.00015103e+00
1.00017412e+00
1.00019724e+00
1.00022035e+00
1.00024338e+00
1.00026619e+00
1.00028866e+00
1.00031066e+00
1.00033207e+00
1.00035281e+00
1.00037283e+00
1.00039213e+00
1.00041076e+00
1.00042882e+00
1.00044643e+00
1.00046378e+00
1.00048105e+00
1.00049847e+00
1.00051626e+00
1.00053462e+00
1.00055375e+00
1.00057383e+00
1.00059498e+00
1.00061732e+00
1.00064089e+00
1.00066569e+00
1.00069169e+00
1.00071879e+00
1.00074685e+00
1.00077569e+00
1.00080507e+00
1.00083472e+00
1.00086434e+00
1.00089360e+00
1.00092214e+00
1.00094960e+00
1.00097561e+00
1.00099982e+00
1.00102188e+00
1.00104148e+00
1.00105836e+00
1.00107228e+00
1.00108308e+00
1.00109067e+00
1.00109501e+00
1.00109615e+00
1.00109418e+00
1.00108928e+00
1.00108168e+00
1.00107166e+00
1.00105954e+00
1.00104567e+00
1.00103040e+00
1.00101410e+00
1.00099713e+00
1.00097983e+00
1.00096251e+00
1.00094546e+00
1.00092890e+00
1.00091306e+00
1.00089808e+00
1.00088408e+00
1.00087117e+00
1.00085938e+00
1.00084874e+00
1.00083927e+00
1.00083096e+00
1.00082378e+00
1.00081773e+00
1.00081273e+00
1.00080872e+00
1.00080544e+00
9.99459649e-01
9.99453129e-01
9.99443564e-01
9.99431129e-01
9.99415404e-01
9.99396356e-01
9.99374476e-01
9.99349805e-01
9.99322452e-01
9.99292685e-01
9.99260792e-01
9.99227087e-01
9.99191952e-01
9.99155823e-01
9.99119196e-01
9.99082622e-01
9.99046712e-01
9.99012121e-01
9.98979553e-01
9.98949737e-01
9.98923421e-01
9.98901350e-01
9.98884243e-01
9.98872775e-01
9.98867544e-01
9.98869052e-01
9.98877676e-01
9.98893647e-01
9.98917029e-01
9.98947708e-01
9.98985384e-01
9.99029570e-01
9.99079609e-01
9.99134686e-01
9.99193859e-01
9.99256094e-01
9.99320305e-01
9.99385396e-01
9.99450307e-01
9.99514056e-01
9.99575776e-01
9.99634743e-01
9.99690401e-01
9.99742372e-01
9.99790457e-01
9.99834628e-01
9.99875011e-01
9.99911863e-01
9.99945542e-01
9.99976472e-01
1.00000512e+00
1.00003194e+00
1.00005740e+00
1.00008188e+00
1.00010572e+00
1.00012919e+00
1.00015246e+00
1.00017565e+00
1.00019878e+00
1.00022183e+00
1.00024473e+00
1.00026736e+00
1.00028962e+00
1.00031137e+00
1.00033253e+00
1.00035300e+00
1.00037275e+00
1.00039179e+00
1.00041016e+00
1.00042796e+00
1.00044531e+00
1.00046239e+00
1.00047939e+00
1.00049651e+00
1.00051396e+00
1.00053197e+00
1.00055072e+00
1.00057039e+00
1.00059112e+00
1.00061302e+00
1.00063616e+00
1.00066056e+00
1.00068619e+00
1.00071298e+00
1.00074082e+00
1.00076954e+00
1.00079894e+00
1.00082875e+00
1.00085869e+00
1.00088844e+00
1.00091766e+00
1.00094598e+00
1.00097303e+00
1.00099844e+00
1.00102185e+00
1.00104293e+00
1.00106138e+00
1.00107694e+00
1.00108942e+00
1.00109868e+00
1.00110465e+00
1.00110733e+00
1.00110681e+00
1.00110321e+00
1.00109676e+00
1.00108771e+00
1.00107636e+00
1.00106307e+00
1.00104818e+00
1.00103208e+00
1.00101513e+00
1.00099769e+00
1.00098008e+00
1.00096262e+00
1.00094555e+00
1.00092911e+00
1.00091349e+00
1.00089881e+00
1.00088520e+00
1.00087273e+00
1.00086144e+00
1.00085131e+00
1.00084242e+00
1.00083475e+00
1.00082816e+00
1.00082268e+00
1.00081837e+00
1.00081476e+00
9.99443640e-01
9.99437108e-01
9.99427610e-01
9.99414980e-01
9.99399074e-01
9.99380210e-01
9.99358474e-01
9.99333902e-01
9.99306763e-01
9.99277313e-01
9.99245812e-01
9.99212592e-01
9.99178047e-01
9.99142617e-01
9.99106798e-01
9.99071141e-01
9.99036248e-01
9.99002771e-01
9.98971397e-01
9.98942840e-01
9.98917826e-01
9.98897077e-01
9.98881285e-01
9.98871094e-01
9.98867073e-01
9.98869692e-01
9.98879298e-01
9.98896096e-01
9.98920126e-01
9.98951257e-01
9.98989179e-01
9.99033405e-01
9.99083282e-01
9.99138013e-01
9.99196680e-01
9.99258282e-01
9.99321772e-01
9.99386095e-01
9.99450237e-01
9.99513258e-01
9.99574329e-01
9.99632760e-01
9.99688020e-01
9.99739745e-01
9.99787743e-01
9.99831981e-01
9.99872572e-01
9.99909753e-01
9.99943853e-01
9.99975269e-01
1.00000443e+00
1.00003177e+00
1.00005772e+00
1.00008263e+00
1.00010684e+00
1.00013058e+00
1.00015404e+00
1.00017732e+00
1.00020045e+00
1.00022342e+00
1.00024616e+00
1.00026858e+00
1.00029059e+00
1.00031206e+00
1.00033291e+00
1.00035308e+00
1.00037253e+00
1.00039128e+00
1.00040936e+00
1.00042687e+00
1.00044393e+00
1.00046072e+00
1.00047740e+00
1.00049419e+00
1.00051129e+00
1.00052891e+00
1.00054724e+00
1.00056647e+00
1.00058674e+00
1.00060817e+00
1.00063086e+00
1.00065482e+00
1.00068008e+00
1.00070658e+00
1.00073422e+00
1.00076287e+00
1.00079234e+00
1.00082241e+00
1.00085280e+00
1.00088320e+00
1.00091328e+00
1.00094268e+00
1.00097101e+00
1.00099790e+00
1.00102296e+00
1.00104583e+00
1.00106618e+00
1.00108372e+00
1.00109821e+00
1.00110946e+00
1.00111737e+00
1.00112190e+00
1.00112310e+00
1.00112105e+00
1.00111596e+00
1.00110806e+00
1.00109763e+00
1.00108503e+00
1.00107060e+00
1.00105473e+00
1.00103780e+00
1.00102019e+00
1.00100223e+00
1.00098427e+00
1.00096659e+00
1.00094944e+00
1.00093303e+00
1.00091754e+00
1.00090309e+00
1.00088977e+00
1.00087767e+00
1.00086680e+00
1.00085717e+00
1.00084878e+00
1.00084163e+00
1.00083569e+00
1.00083089e+00
1.00082685e+00
9.99424621e-01
9.99417949e-01
9.99408401e-01
9.99395629e-01
9.99379790e-01
9.99361021e-01
9.99339320e-01
9.99314924e-01
9.99288073e-01
9.99258970e-01
9.99227910e-01
9.99195250e-01
9.99161379e-01
9.99126740e-01
9.99091831e-01
9.99057202e-01
9.99023449e-01
9.98991211e-01
9.98961163e-01
9.98933999e-01
9.98910424e-01
9.98891131e-01
9.98876783e-01
9.98867993e-01
9.98865297e-01
9.98869133e-01
9.98879816e-01
9.98897522e-01
9.98922270e-01
9.98953910e-01
9.98992122e-01
9.99036420e-01
9.99086159e-01
9.99140560e-01
9.99198733e-01
9.99259712e-01
9.99322491e-01
9.99386060e-01
9.99449452e-01
9.99511770e-01
9.99572226e-01
9.99630164e-01
9.99685077e-01
9.99736617e-01
9.99784595e-01
9.99828972e-01
9.99869847e-01
9.99907431e-01
9.99942026e-01
9.99973995e-01
1.00000374e+00
1.00003165e+00
1.00005812e+00
1.00008351e+00
1.00010809e+00
1.00013212e+00
1.00015576e+00
1.00017911e+00
1.00020222e+00
1.00022508e+00
1.00024763e+00
1.00026980e+00
1.00029151e+00
1.00031266e+00
1.00033318e+00
1.00035301e+00
1.00037212e+00
1.00039053e+00
1.00040830e+00
1.00042549e+00
1.00044224e+00
1.00045871e+00
1.00047506e+00
1.00049149e+00
1.00050821e+00
1.00052542e+00
1.00054332e+00
1.00056208e+00
1.00058187e+00
1.00060282e+00
1.00062504e+00
1.00064858e+00
1.00067347e+00
1.00069969e+00
1.00072717e+00
1.00075581e+00
1.00078545e+00
1.00081587e+00
1.00084684e+00
1.00087805e+00
1.00090918e+00
1.00093986e+00
1.00096971e+00
1.00099832e+00
1.00102530e+00
1.00105025e+00
1.00107281e+00
1.00109263e+00
1.00110943e+00
1.00112298e+00
1.00113313e+00
1.00113980e+00
1.00114297e+00
1.00114272e+00
1.00113920e+00
1.00113263e+00
1.00112328e+00
1.00111149e+00
1.00109761e+00
1.00108202e+00
1.00106514e+00
1.00104734e+00
1.00102900e+00
1.00101048e+00
1.00099211e+00
1.00097414e+00
1.00095684e+00
1.00094040e+00
1.00092498e+00
1.00091070e+00
1.00089764e+00
1.00088588e+00
1.00087541e+00
1.00086623e+00
1.00085841e+00
1.00085189e+00
1.00084656e+00
1.00084210e+00
9.99402484e-01
9.99395622e-01
9.99385914e-01
9.99373126e-01
9.99357326e-01
9.99338556e-01
9.99316985e-01
9.99292836e-01
9.99266278e-01
9.99237564e-01
9.99207020e-01
9.99174992e-01
9.99141875e-01
9.99108118e-01
9.99074220e-01
9.99040727e-01
9.99008228e-01
9.98977350e-01
9.98948751e-01
9.98923107e-01
9.98901096e-01
9.98883384e-01
9.98870603e-01
9.98863331e-01
9.98862071e-01
9.98867226e-01
9.98879079e-01
9.98897778e-01
9.98923317e-01
9.98955530e-01
9.98994088e-01
9.99038504e-01
9.99088146e-01
9.99142253e-01
9.99199966e-01
9.99260355e-01
9.99322456e-01
9.99385309e-01
9.99447992e-01
9.99509655e-01
9.99569550e-01
9.99627054e-01
9.99681685e-01
9.99733109e-01
9.99781138e-01
9.99825727e-01
9.99866957e-01
9.99905013e-01
9.99940167e-01
9.99972746e-01
1.00000311e+00
1.00003163e+00
1.00005867e+00
1.00008453e+00
1.00010951e+00
1.00013382e+00
1.00015762e+00
1.00018102e+00
1.00020407e+00
1.00022678e+00
1.00024910e+00
1.00027098e+00
1.00029235e+00
1.00031313e+00
1.00033327e+00
1.00035272e+00
1.00037146e+00
1.00038951e+00
1.00040692e+00
1.00042378e+00
1.00044020e+00
1.00045632e+00
1.00047232e+00
1.00048838e+00
1.00050471e+00
1.00052149e+00
1.00053894e+00
1.00055723e+00
1.00057654e+00
1.00059701e+00
1.00061877e+00
1.00064191e+00
1.00066646e+00
1.00069245e+00
1.00071984e+00
1.00074855e+00
1.00077844e+00
1.00080934e+00
1.00084102e+00
1.00087320e+00
1.00090555e+00
1.00093771e+00
1.00096928e+00
1.00099986e+00
1.00102900e+00
1.00105629e+00
1.00108131e+00
1.00110369e+00
1.00112308e+00
1.00113921e+00
1.00115187e+00
1.00116093e+00
1.00116633e+00
1.00116810e+00
1.00116637e+00
1.00116132e+00
1.00115320e+00
1.00114235e+00
1.00112911e+00
1.00111389e+00
1.00109709e+00
1.00107912e+00
1.00106040e+00
1.00104129e+00
1.00102215e+00
1.00100331e+00
1.00098503e+00
1.00096754e+00
1.00095104e+00
1.00093568e+00
1.00092157e+00
1.00090877e+00
1.00089737e+00
1.00088736e+00
1.00087874e+00
1.00087154e+00
1.00086570e+00
1.00086079e+00
9.99376969e-01
9.99369927e-01
9.99360113e-01
9.99347301e-01
9.99331492e-01
9.99312800e-01
9.99291423e-01
9.99267514e-01
9.99241288e-01
9.99213040e-01
9.99183076e-01
9.99151747e-01
9.99119464e-01
9.99086679e-01
9.99053888e-01
9.99021632e-01
9.98990494e-01
9.98961088e-01
9.98934055e-01
9.98910049e-01
9.98889721e-01
9.98873709e-01
9.98862612e-01
9.98856974e-01
9.98857260e-01
9.98863839e-01
9.98876963e-01
9.98896747e-01
9.98923162e-01
9.98956026e-01
9.98995002e-01
9.99039604e-01
9.99089209e-01
9.99143080e-01
9.99200386e-01
9.99260237e-01
9.99321715e-01
9.99383905e-01
9.99445935e-01
9.99507001e-01
9.99566397e-01
9.99623532e-01
9.99677947e-01
9.99729322e-01
9.99777471e-01
9.99822338e-01
9.99863986e-01
9.99902574e-01
9.99938340e-01
9.99971576e-01
1.00000261e+00
1.00003176e+00
1.00005937e+00
1.00008572e+00
1.00011108e+00
1.00013566e+00
1.00015960e+00
1.00018303e+00
1.00020599e+00
1.00022850e+00
1.00025054e+00
1.00027208e+00
1.00029307e+00
1.00031344e+00
1.00033315e+00
1.00035218e+00
1.00037051e+00
1.00038816e+00
1.00040520e+00
1.00042168e+00
1.00043774e+00
1.00045351e+00
1.00046914e+00
1.00048482e+00
1.00050074e+00
1.00051710e+00
1.00053410e+00
1.00055193e+00
1.00057077e+00
1.00059079e+00
1.00061213e+00
1.00063490e+00
1.00065918e+00
1.00068501e+00
1.00071238e+00
1.00074125e+00
1.00077151e+00
1.00080301e+00
1.00083554e+00
1.00086884e+00
1.00090257e+00
1.00093640e+00
1.00096989e+00
1.00100264e+00
1.00103416e+00
1.00106402e+00
1.00109174e+00
1.00111691e+00
1.00113914e+00
1.00115809e+00
1.00117350e+00
1.00118518e+00
1.00119304e+00
1.00119706e+00
1.00119731e+00
1.00119396e+00
1.00118725e+00
1.00117748e+00
1.00116500e+00
1.00115023e+00
1.00113359e+00
1.00111549e+00
1.00109639e+00
1.00107669e+00
1.00105677e+00
1.00103700e+00
1.00101768e+00
1.00099907e+00
1.00098141e+00
1.00096488e+00
1.00094963e+00
1.00093574e+00
1.00092329e+00
1.00091234e+00
1.00090290e+00
1.00089497e+00
1.00088854e+00
1.00088313e+00
9.99347991e-01
9.99340795e-01
9.99330879e-01
9.99318028e-01
9.99302251e-01
9.99283695e-01
9.99262513e-01
9.99238887e-01
9.99213072e-01
9.99185346e-01
9.99156020e-01
9.99125468e-01
9.99094102e-01
9.99062374e-01
9.99030781e-01
9.98999861e-01
9.98970186e-01
9.98942358e-01
9.98916999e-01
9.98894740e-01
9.98876208e-01
9.98862008e-01
9.98852706e-01
9.98848811e-01
9.98850752e-01
9.98858861e-01
9.98873355e-01
9.98894321e-01
9.98921707e-01
9.98955312e-01
9.98994790e-01
9.99039658e-01
9.99089305e-01
9.99143016e-01
9.99199991e-01
9.99259379e-01
9.99320306e-01
9.99381908e-01
9.99443360e-01
9.99503905e-01
9.99562876e-01
9.99619716e-01
9.99673989e-01
9.99725386e-01
9.99773722e-01
9.99818930e-01
9.99861054e-01
9.99900223e-01
9.99936642e-01
9.99970566e-01
1.00000228e+00
1.00003208e+00
1.00006027e+00
1.00008711e+00
1.00011283e+00
1.00013764e+00
1.00016170e+00
1.00018510e+00
1.00020793e+00
1.00023020e+00
1.00025192e+00
1.00027307e+00
1.00029361e+00
1.00031352e+00
1.00033277e+00
1.00035133e+00
1.00036921e+00
1.00038643e+00
1.00040305e+00
1.00041915e+00
1.00043482e+00
1.00045021e+00
1.00046547e+00
1.00048076e+00
1.00049628e+00
1.00051222e+00
1.00052879e+00
1.00054618e+00
1.00056459e+00
1.00058420e+00
1.00060517e+00
1.00062765e+00
1.00065173e+00
1.00067748e+00
1.00070495e+00
1.00073409e+00
1.00076485e+00
1.00079708e+00
1.00083060e+00
1.00086516e+00
1.00090045e+00
1.00093610e+00
1.00097170e+00
1.00100678e+00
1.00104088e+00
1.00107349e+00
1.00110411e+00
1.00113228e+00
1.00115755e+00
1.00117953e+00
1.00119790e+00
1.00121242e+00
1.00122294e+00
1.00122940e+00
1.00123184e+00
1.00123037e+00
1.00122523e+00
1.00121669e+00
1.00120512e+00
1.00119091e+00
1.00117451e+00
1.00115636e+00
1.00113693e+00
1.00111666e+00
1.00109597e+00
1.00107525e+00
1.00105485e+00
1.00103509e+00
1.00101622e+00
1.00099846e+00
1.00098199e+00
1.00096695e+00
1.00095341e+00
1.00094144e+00
1.00093112e+00
1.00092245e+00
1.00091536e+00
1.00090943e+00
9.99315452e-01
9.99308107e-01
9.99298103e-01
9.99285249e-01
9.99269554e-01
9.99251154e-01
9.99230210e-01
9.99206940e-01
9.99181591e-01
9.99154442e-01
9.99125830e-01
9.99096134e-01
9.99065764e-01
9.99035178e-01
9.99004873e-01
9.98975381e-01
9.98947264e-01
9.98921112e-01
9.98897527e-01
9.98877119e-01
9.98860487e-01
9.98848205e-01
9.98840805e-01
9.98838759e-01
9.98842461e-01
9.98852206e-01
9.98868176e-01
9.98890429e-01
9.98918887e-01
9.98953333e-01
9.98993414e-01
9.99038647e-01
9.99088433e-01
9.99142079e-01
9.99198817e-01
9.99257835e-01
9.99318305e-01
9.99379410e-01
9.99440373e-01
9.99500483e-01
9.99559114e-01
9.99615740e-01
9.99669947e-01
9.99721436e-01
9.99770023e-01
9.99815629e-01
9.99858275e-01
9.99898064e-01
9.99935165e-01
9.99969796e-01
1.00000221e+00
1.00003265e+00
1.00006141e+00
1.00008870e+00
1.00011476e+00
1.00013978e+00
1.00016390e+00
1.00018724e+00
1.00020987e+00
1.00023185e+00
1.00025318e+00
1.00027389e+00
1.00029394e+00
1.00031334e+00
1.00033206e+00
1.00035011e+00
1.00036750e+00
1.00038425e+00
1.00040043e+00
1.00041610e+00
1.00043138e+00
1.00044637e+00
1.00046124e+00
1.00047615e+00
1.00049127e+00
1.00050682e+00
1.00052298e+00
1.00053998e+00
1.00055801e+00
1.00057728e+00
1.00059796e+00
1.00062023e+00
1.00064421e+00
1.00067000e+00
1.00069767e+00
1.00072722e+00
1.00075860e+00
1.00079171e+00
1.00082637e+00
1.00086235e+00
1.00089933e+00
1.00093696e+00
1.00097480e+00
1.00101239e+00
1.00104921e+00
1.00108473e+00
1.00111841e+00
1.00114974e+00
1.00117822e+00
1.00120340e+00
1.00122492e+00
1.00124246e+00
1.00125583e+00
1.00126491e+00
1.00126971e+00
1.00127031e+00
1.00126690e+00
1.00125976e+00
1.00124923e+00
1.00123572e+00
1.00121968e+00
1.00120157e+00
1.00118189e+00
1.00116110e+00
1.00113968e+00
1.00111804e+00
1.00109657e+00
1.00107564e+00
1.00105554e+00
1.00103652e+00
1.00101880e+00
1.00100254e+00
1.00098787e+00
1.00097488e+00
1.00096363e+00
1.00095418e+00
1.00094643e+00
1.00093998e+00
9.99279271e-01
9.99271809e-01
9.99261749e-01
9.99248933e-01
9.99233354e-01
9.99215158e-01
9.99194520e-01
9.99171665e-01
9.99146839e-01
9.99120344e-01
9.99092524e-01
9.99063758e-01
9.99034465e-01
9.99005107e-01
9.98976176e-01
9.98948200e-01
9.98921732e-01
9.98897348e-01
9.98875632e-01
9.98857171e-01
9.98842536e-01
9.98832270e-01
9.98826873e-01
9.98826780e-01
9.98832347e-01
9.98843832e-01
9.98861385e-01
9.98885033e-01
9.98914673e-01
9.98950070e-01
9.98990865e-01
9.99036574e-01
9.99086611e-01
9.99140304e-01
9.99196917e-01
9.99255677e-01
9.99315799e-01
9.99376513e-01
9.99437092e-01
9.99496867e-01
9.99555252e-01
9.99611752e-01
9.99665973e-01
9.99717626e-01
9.99766524e-01
9.99812579e-01
9.99855789e-01
9.99896226e-01
9.99934026e-01
9.99969369e-01
1.00000247e+00
1.00003355e+00
1.00006284e+00
1.00009056e+00
1.00011691e+00
1.00014208e+00
1.00016621e+00
1.00018942e+00
1.00021180e+00
1.00023342e+00
1.00025431e+00
1.00027450e+00
1.00029401e+00
1.00031283e+00
1.00033098e+00
1.00034847e+00
1.00036532e+00
1.00038156e+00
1.00039726e+00
1.00041248e+00
1.00042733e+00
1.00044192e+00
1.00045640e+00
1.00047092e+00
1.00048567e+00
1.00050084e+00
1.00051665e+00
1.00053330e+00
1.00055102e+00
1.00057003e+00
1.00059052e+00
1.00061269e+00
1.00063669e+00
1.00066266e+00
1.00069067e+00
1.00072076e+00
1.00075292e+00
1.00078704e+00
1.00082299e+00
1.00086052e+00
1.00089933e+00
1.00093907e+00
1.00097929e+00
1.00101950e+00
1.00105916e+00
1.00109771e+00
1.00113458e+00
1.00116920e+00
1.00120102e+00
1.00122954e+00
1.00125433e+00
1.00127505e+00
1.00129142e+00
1.00130330e+00
1.00131063e+00
1.00131346e+00
1.00131196e+00
1.00130638e+00
1.00129706e+00
1.00128440e+00
1.00126885e+00
1.00125091e+00
1.00123108e+00
1.00120987e+00
1.00118778e+00
1.00116527e+00
1.00114278e+00
1.00112070e+00
1.00109937e+00
1.00107910e+00
1.00106012e+00
1.00104264e+00
1.00102682e+00
1.00101279e+00
1.00100060e+00
1.00099036e+00
1.00098196e+00
1.00097501e+00
9.99239416e-01
9.99231885e-01
9.99221813e-01
9.99209080e-01
9.99193670e-01
9.99175741e-01
9.99155474e-01
9.99133097e-01
9.99108871e-01
9.99083110e-01
9.99056158e-01
9.99028403e-01
9.99000272e-01
9.98972224e-01
9.98944751e-01
9.98918376e-01
9.98893644e-01
9.98871114e-01
9.98851355e-01
9.98834929e-01
9.98822382e-01
9.98814227e-01
9.98810928e-01
9.98812885e-01
9.98820418e-01
9.98833750e-01
9.98852994e-01
9.98878147e-01
9.98909084e-01
9.98945551e-01
9.98987179e-01
9.99033488e-01
9.99083901e-01
9.99137768e-01
9.99194383e-01
9.99253009e-01
9.99312906e-01
9.99373350e-01
9.99433659e-01
9.99493209e-01
9.99551449e-01
9.99607914e-01
9.99662230e-01
9.99714116e-01
9.99763385e-01
9.99809933e-01
9.99853737e-01
9.99894840e-01
9.99933344e-01
9.99969391e-01
1.00000316e+00
1.00003483e+00
1.00006462e+00
1.00009272e+00
1.00011931e+00
1.00014457e+00
1.00016864e+00
1.00019165e+00
1.00021371e+00
1.00023490e+00
1.00025527e+00
1.00027488e+00
1.00029377e+00
1.00031195e+00
1.00032946e+00
1.00034633e+00
1.00036258e+00
1.00037827e+00
1.00039345e+00
1.00040819e+00
1.00042259e+00
1.00043676e+00
1.00045084e+00
1.00046499e+00
1.00047938e+00
1.00049423e+00
1.00050972e+00
1.00052611e+00
1.00054361e+00
1.00056245e+00
1.00058287e+00
1.00060506e+00
1.00062922e+00
1.00065550e+00
1.00068401e+00
1.00071480e+00
1.00074788e+00
1.00078317e+00
1.00082053e+00
1.00085975e+00
1.00090053e+00
1.00094248e+00
1.00098518e+00
1.00102810e+00
1.00107070e+00
1.00111237e+00
1.00115251e+00
1.00119049e+00
1.00122574e+00
1.00125770e+00
1.00128589e+00
1.00130989e+00
1.00132940e+00
1.00134421e+00
1.00135423e+00
1.00135946e+00
1.00136003e+00
1.00135619e+00
1.00134824e+00
1.00133659e+00
1.00132170e+00
1.00130407e+00
1.00128424e+00
1.00126273e+00
1.00124008e+00
1.00121679e+00
1.00119334e+00
1.00117017e+00
1.00114766e+00
1.00112616e+00
1.00110595e+00
1.00108728e+00
1.00107032e+00
1.00105524e+00
1.00104214e+00
1.00103112e+00
1.00102208e+00
1.00101468e+00
9.99195925e-01
9.99188384e-01
9.99178350e-01
9.99165758e-01
9.99150582e-01
9.99132989e-01
9.99113163e-01
9.99091344e-01
9.99067801e-01
9.99042852e-01
9.99016851e-01
9.98990194e-01
9.98963307e-01
9.98936653e-01
9.98910722e-01
9.98886031e-01
9.98863115e-01
9.98842522e-01
9.98824801e-01
9.98810494e-01
9.98800120e-01
9.98794162e-01
9.98793051e-01
9.98797153e-01
9.98806749e-01
9.98822029e-01
9.98843071e-01
9.98869844e-01
9.98902194e-01
9.98939853e-01
9.98982443e-01
9.99029482e-01
9.99080405e-01
9.99134581e-01
9.99191334e-01
9.99249963e-01
9.99309769e-01
9.99370072e-01
9.99430235e-01
9.99489673e-01
9.99547874e-01
9.99604399e-01
9.99658892e-01
9.99711080e-01
9.99760771e-01
9.99807851e-01
9.99852272e-01
9.99894049e-01
9.99933249e-01
9.99969980e-01
1.00000438e+00
1.00003661e+00
1.00006684e+00
1.00009525e+00
1.00012201e+00
1.00014728e+00
1.00017121e+00
1.00019394e+00
1.00021559e+00
1.00023626e+00
1.00025603e+00
1.00027498e+00
1.00029317e+00
1.00031064e+00
1.00032744e+00
1.00034362e+00
1.00035922e+00
1.00037430e+00
1.00038891e+00
1.00040313e+00
1.00041705e+00
1.00043079e+00
1.00044448e+00
1.00045826e+00
1.00047234e+00
1.00048689e+00
1.00050215e+00
1.00051834e+00
1.00053571e+00
1.00055451e+00
1.00057498e+00
1.00059735e+00
1.00062182e+00
1.00064857e+00
1.00067773e+00
1.00070938e+00
1.00074353e+00
1.00078013e+00
1.00081905e+00
1.00086007e+00
1.00090291e+00
1.00094718e+00
1.00099242e+00
1.00103813e+00
1.00108371e+00
1.00112855e+00
1.00117200e+00
1.00121340e+00
1.00125213e+00
1.00128759e+00
1.00131924e+00
1.00134662e+00
1.00136937e+00
1.00138724e+00
1.00140007e+00
1.00140785e+00
1.00141066e+00
1.00140872e+00
1.00140233e+00
1.00139187e+00
1.00137781e+00
1.00136067e+00
1.00134099e+00
1.00131933e+00
1.00129626e+00
1.00127231e+00
1.00124802e+00
1.00122385e+00
1.00120025e+00
1.00117759e+00
1.00115620e+00
1.00113637e+00
1.00111833e+00
1.00110224e+00
1.00108826e+00
1.00107650e+00
1.00106686e+00
1.00105906e+00
9.99148909e-01
9.99141427e-01
9.99131494e-01
9.99119108e-01
9.99104239e-01
9.99087060e-01
9.99067757e-01
9.99046580e-01
9.99023805e-01
9.98999757e-01
9.98974796e-01
9.98949322e-01
9.98923765e-01
9.98898589e-01
9.98874281e-01
9.98851354e-01
9.98830333e-01
9.98811754e-01
9.98796148e-01
9.98784037e-01
9.98775914e-01
9.98772233e-01
9.98773394e-01
9.98779728e-01
9.98791482e-01
9.98808808e-01
9.98831753e-01
9.98860255e-01
9.98894137e-01
9.98933112e-01
9.98976792e-01
9.99024696e-01
9.99076268e-01
9.99130896e-01
9.99187929e-01
9.99246702e-01
9.99306556e-01
9.99366853e-01
9.99426997e-01
9.99486443e-01
9.99544711e-01
9.99601389e-01
9.99656138e-01
9.99708692e-01
9.99758853e-01
9.99806494e-01
9.99851545e-01
9.99893993e-01
9.99933871e-01
9.99971252e-01
1.00000624e+00
1.00003896e+00
1.00006957e+00
1.00009821e+00
1.00012505e+00
1.00015024e+00
1.00017394e+00
1.00019630e+00
1.00021744e+00
1.00023750e+00
1.00025658e+00
1.00027477e+00
1.00029217e+00
1.00030884e+00
1.00032485e+00
1.00034027e+00
1.00035515e+00
1.00036955e+00
1.00038354e+00
1.00039720e+00
1.00041062e+00
1.00042390e+00
1.00043719e+00
1.00045064e+00
1.00046442e+00
1.00047874e+00
1.00049382e+00
1.00050992e+00
1.00052727e+00
1.00054615e+00
1.00056681e+00
1.00058950e+00
1.00061444e+00
1.00064183e+00
1.00067181e+00
1.00070447e+00
1.00073985e+00
1.00077790e+00
1.00081850e+00
1.00086144e+00
1.00090642e+00
1.00095306e+00
1.00100091e+00
1.00104943e+00
1.00109802e+00
1.00114604e+00
1.00119280e+00
1.00123763e+00
1.00127986e+00
1.00131883e+00
1.00135398e+00
1.00138480e+00
1.00141086e+00
1.00143187e+00
1.00144764e+00
1.00145810e+00
1.00146331e+00
1.00146344e+00
1.00145878e+00
1.00144970e+00
1.00143667e+00
1.00142020e+00
1.00140086e+00
1.00137923e+00
1.00135591e+00
1.00133147e+00
1.00130647e+00
1.00128144e+00
1.00125685e+00
1.00123313e+00
1.00121066e+00
1.00118976e+00
1.00117069e+00
1.00115368e+00
1.00113887e+00
1.00112643e+00
1.00111625e+00
1.00110814e+00
9.99098569e-01
9.99091222e-01
9.99081461e-01
9.99069355e-01
9.99054874e-01
9.99038192e-01
9.99019502e-01
9.98999058e-01
9.98977143e-01
9.98954088e-01
9.98930258e-01
9.98906057e-01
9.98881918e-01
9.98858303e-01
9.98835700e-01
9.98814613e-01
9.98795562e-01
9.98779069e-01
9.98765651e-01
9.98755806e-01
9.98750006e-01
9.98748677e-01
9.98752187e-01
9.98760835e-01
9.98774832e-01
9.98794296e-01
9.98819244e-01
9.98849582e-01
9.98885108e-01
9.98925521e-01
9.98970419e-01
9.99019321e-01
9.99071681e-01
9.99126901e-01
9.99184357e-01
9.99243418e-01
9.99303459e-01
9.99363884e-01
9.99424136e-01
9.99483707e-01
9.99542147e-01
9.99599069e-01
9.99654150e-01
9.99707126e-01
9.99757798e-01
9.99806022e-01
9.99851707e-01
9.99894812e-01
9.99935337e-01
9.99973322e-01
1.00000884e+00
1.00004198e+00
1.00007288e+00
1.00010166e+00
1.00012848e+00
1.00015350e+00
1.00017686e+00
1.00019873e+00
1.00021927e+00
1.00023860e+00
1.00025688e+00
1.00027421e+00
1.00029072e+00
1.00030649e+00
1.00032162e+00