# vtk DataFile Version 2.0
LBM Flow Field - Timestep 1750
ASCII
DATASET STRUCTURED_POINTS
DIMENSIONS 128 128 1
ORIGIN 0.0 0.0 0.0
SPACING 1.0 1.0 1.0
POINT_DATA 16384
SCALARS density double 1
LOOKUP_TABLE default
1.00632430e+00
1.00631797e+00
1.00630858e+00
1.00629663e+00
1.00627954e+00
1.00625810e+00
1.00623212e+00
1.00620135e+00
1.00616582e+00
1.00612526e+00
1.00607919e+00
1.00602741e+00
1.00596976e+00
1.00590597e+00
1.00583582e+00
1.00575925e+00
1.00567622e+00
1.00558672e+00
1.00549086e+00
1.00538880e+00
1.00528079e+00
1.00516711e+00
1.00504813e+00
1.00492428e+00
1.00479601e+00
1.00466383e+00
1.00452826e+00
1.00438984e+00
1.00424913e+00
1.00410665e+00
1.00396295e+00
1.00381852e+00
1.00367386e+00
1.00352940e+00
1.00338558e+00
1.00324275e+00
1.00310125e+00
1.00296138e+00
1.00282339e+00
1.00268751e+00
1.00255391e+00
1.00242275e+00
1.00229415e+00
1.00216821e+00
1.00204500e+00
1.00192457e+00
1.00180696e+00
1.00169218e+00
1.00158023e+00
1.00147110e+00
1.00136477e+00
1.00126119e+00
1.00116031e+00
1.00106206e+00
1.00096637e+00
1.00087313e+00
1.00078224e+00
1.00069357e+00
1.00060699e+00
1.00052235e+00
1.00043947e+00
1.00035819e+00
1.00027831e+00
1.00019963e+00
1.00012194e+00
1.00004502e+00
9.99968660e-01
9.99892618e-01
9.99816670e-01
9.99740583e-01
9.99664125e-01
9.99587067e-01
9.99509181e-01
9.99430242e-01
9.99350032e-01
9.99268334e-01
9.99184939e-01
9.99099643e-01
9.99012252e-01
9.98922578e-01
9.98830446e-01
9.98735694e-01
9.98638173e-01
9.98537758e-01
9.98434342e-01
9.98327848e-01
9.98218228e-01
9.98105471e-01
9.97989604e-01
9.97870695e-01
9.97748860e-01
9.97624260e-01
9.97497102e-01
9.97367641e-01
9.97236177e-01
9.97103049e-01
9.96968634e-01
9.96833338e-01
9.96697594e-01
9.96561847e-01
9.96426557e-01
9.96292181e-01
9.96159174e-01
9.96027979e-01
9.95899021e-01
9.95772704e-01
9.95649405e-01
9.95529476e-01
9.95413243e-01
9.95300996e-01
9.95192994e-01
9.95089491e-01
9.94990709e-01
9.94896808e-01
9.94807970e-01
9.94724419e-01
9.94646254e-01
9.94573516e-01
9.94506457e-01
9.94445343e-01
9.94389971e-01
9.94340505e-01
9.94297461e-01
9.94260875e-01
9.94230814e-01
9.94208839e-01
9.94190618e-01
9.94178262e-01
1.00631695e+00
1.00631127e+00
1.00630128e+00
1.00628861e+00
1.00627126e+00
1.00624984e+00
1.00622376e+00
1.00619299e+00
1.00615731e+00
1.00611657e+00
1.00607036e+00
1.00601846e+00
1.00596066e+00
1.00589674e+00
1.00582653e+00
1.00574993e+00
1.00566690e+00
1.00557747e+00
1.00548173e+00
1.00537984e+00
1.00527204e+00
1.00515863e+00
1.00503996e+00
1.00491646e+00
1.00478858e+00
1.00465680e+00
1.00452166e+00
1.00438367e+00
1.00424339e+00
1.00410135e+00
1.00395807e+00
1.00381406e+00
1.00366979e+00
1.00352571e+00
1.00338224e+00
1.00323973e+00
1.00309854e+00
1.00295895e+00
1.00282122e+00
1.00268557e+00
1.00255218e+00
1.00242122e+00
1.00229280e+00
1.00216703e+00
1.00204398e+00
1.00192369e+00
1.00180622e+00
1.00169157e+00
1.00157975e+00
1.00147075e+00
1.00136453e+00
1.00126106e+00
1.00116029e+00
1.00106215e+00
1.00096655e+00
1.00087341e+00
1.00078261e+00
1.00069403e+00
1.00060753e+00
1.00052296e+00
1.00044016e+00
1.00035894e+00
1.00027912e+00
1.00020050e+00
1.00012286e+00
1.00004600e+00
9.99969682e-01
9.99893686e-01
9.99817781e-01
9.99741734e-01
9.99665316e-01
9.99588295e-01
9.99510445e-01
9.99431540e-01
9.99351361e-01
9.99269693e-01
9.99186325e-01
9.99101055e-01
9.99013688e-01
9.98924037e-01
9.98831929e-01
9.98737202e-01
9.98639710e-01
9.98539328e-01
9.98435953e-01
9.98329508e-01
9.98219948e-01
9.98107263e-01
9.97991482e-01
9.97872674e-01
9.97750956e-01
9.97626487e-01
9.97499475e-01
9.97370175e-01
9.97238884e-01
9.97105941e-01
9.96971719e-01
9.96836624e-01
9.96701086e-01
9.96565549e-01
9.96430470e-01
9.96296308e-01
9.96163516e-01
9.96032537e-01
9.95903797e-01
9.95777701e-01
9.95654628e-01
9.95534933e-01
9.95418939e-01
9.95306940e-01
9.95199206e-01
9.95095979e-01
9.94997472e-01
9.94903880e-01
9.94815380e-01
9.94732146e-01
9.94654293e-01
9.94581966e-01
9.94515313e-01
9.94454520e-01
9.94399514e-01
9.94350587e-01
9.94307882e-01
9.94271783e-01
9.94241788e-01
9.94219260e-01
9.94200985e-01
9.94190672e-01
1.00630710e+00
1.00630096e+00
1.00629150e+00
1.00627801e+00
1.00626070e+00
1.00623898e+00
1.00621268e+00
1.00618191e+00
1.00614612e+00
1.00610506e+00
1.00605866e+00
1.00600663e+00
1.00594863e+00
1.00588452e+00
1.00581419e+00
1.00573751e+00
1.00565442e+00
1.00556498e+00
1.00546929e+00
1.00536749e+00
1.00525983e+00
1.00514661e+00
1.00502818e+00
1.00490495e+00
1.00477737e+00
1.00464593e+00
1.00451114e+00
1.00437354e+00
1.00423364e+00
1.00409199e+00
1.00394911e+00
1.00380548e+00
1.00366160e+00
1.00351789e+00
1.00337478e+00
1.00323262e+00
1.00309177e+00
1.00295250e+00
1.00281509e+00
1.00267974e+00
1.00254666e+00
1.00241598e+00
1.00228785e+00
1.00216236e+00
1.00203959e+00
1.00191959e+00
1.00180239e+00
1.00168803e+00
1.00157649e+00
1.00146778e+00
1.00136185e+00
1.00125867e+00
1.00115820e+00
1.00106035e+00
1.00096505e+00
1.00087220e+00
1.00078170e+00
1.00069341e+00
1.00060720e+00
1.00052292e+00
1.00044041e+00
1.00035947e+00
1.00027993e+00
1.00020158e+00
1.00012422e+00
1.00004762e+00
9.99971558e-01
9.99895815e-01
9.99820157e-01
9.99744351e-01
9.99668165e-01
9.99591369e-01
9.99513734e-01
9.99435035e-01
9.99355052e-01
9.99273569e-01
9.99190376e-01
9.99105270e-01
9.99018056e-01
9.98928548e-01
9.98836573e-01
9.98741969e-01
9.98644593e-01
9.98544321e-01
9.98441050e-01
9.98334706e-01
9.98225246e-01
9.98112660e-01
9.97996979e-01
9.97878274e-01
9.97756661e-01
9.97632302e-01
9.97505404e-01
9.97376222e-01
9.97245053e-01
9.97112235e-01
9.96978142e-01
9.96843181e-01
9.96707779e-01
9.96572382e-01
9.96437449e-01
9.96303437e-01
9.96170801e-01
9.96039987e-01
9.95911420e-01
9.95785509e-01
9.95662636e-01
9.95543155e-01
9.95427389e-01
9.95315639e-01
9.95208179e-01
9.95105236e-01
9.95007024e-01
9.94913770e-01
9.94825635e-01
9.94742720e-01
9.94665221e-01
9.94593368e-01
9.94527128e-01
9.94466544e-01
9.94412028e-01
9.94363737e-01
9.94321299e-01
9.94285313e-01
9.94255789e-01
9.94232440e-01
9.94216411e-01
9.94206294e-01
1.00629641e+00
1.00628995e+00
1.00627940e+00
1.00626519e+00
1.00624769e+00
1.00622582e+00
1.00619931e+00
1.00616812e+00
1.00613204e+00
1.00609078e+00
1.00604409e+00
1.00599172e+00
1.00593346e+00
1.00586913e+00
1.00579857e+00
1.00572170e+00
1.00563849e+00
1.00554897e+00
1.00545324e+00
1.00535147e+00
1.00524389e+00
1.00513080e+00
1.00501255e+00
1.00488954e+00
1.00476223e+00
1.00463109e+00
1.00449663e+00
1.00435937e+00
1.00421985e+00
1.00407858e+00
1.00393608e+00
1.00379285e+00
1.00364936e+00
1.00350605e+00
1.00336333e+00
1.00322157e+00
1.00308110e+00
1.00294222e+00
1.00280518e+00
1.00267022e+00
1.00253753e+00
1.00240725e+00
1.00227951e+00
1.00215442e+00
1.00203206e+00
1.00191248e+00
1.00179572e+00
1.00168179e+00
1.00157071e+00
1.00146245e+00
1.00135699e+00
1.00125429e+00
1.00115429e+00
1.00105693e+00
1.00096212e+00
1.00086977e+00
1.00077976e+00
1.00069197e+00
1.00060626e+00
1.00052247e+00
1.00044044e+00
1.00035999e+00
1.00028093e+00
1.00020305e+00
1.00012615e+00
1.00005001e+00
9.99974395e-01
9.99899087e-01
9.99823853e-01
9.99748457e-01
9.99672668e-01
9.99596254e-01
9.99518985e-01
9.99440635e-01
9.99360982e-01
9.99279810e-01
9.99196907e-01
9.99112071e-01
9.99025105e-01
9.98935826e-01
9.98844059e-01
9.98749645e-01
9.98652441e-01
9.98552324e-01
9.98449194e-01
9.98342980e-01
9.98233639e-01
9.98121166e-01
9.98005592e-01
9.97886991e-01
9.97765481e-01
9.97641226e-01
9.97514434e-01
9.97385362e-01
9.97254307e-01
9.97121609e-01
9.96987641e-01
9.96852811e-01
9.96717546e-01
9.96582293e-01
9.96447510e-01
9.96313656e-01
9.96181187e-01
9.96050548e-01
9.95922167e-01
9.95796453e-01
9.95673787e-01
9.95554527e-01
9.95439000e-01
9.95327502e-01
9.95220301e-01
9.95117645e-01
9.95019745e-01
9.94926790e-01
9.94838963e-01
9.94756425e-01
9.94679302e-01
9.94607724e-01
9.94541840e-01
9.94481760e-01
9.94427591e-01
9.94379412e-01
9.94337325e-01
9.94301751e-01
9.94272761e-01
9.94248984e-01
9.94231476e-01
9.94221119e-01
1.00628252e+00
1.00627544e+00
1.00626485e+00
1.00625052e+00
1.00623227e+00
1.00620998e+00
1.00618324e+00
1.00615161e+00
1.00611511e+00
1.00607352e+00
1.00602641e+00
1.00597362e+00
1.00591500e+00
1.00585034e+00
1.00577946e+00
1.00570232e+00
1.00561891e+00
1.00552924e+00
1.00543341e+00
1.00533161e+00
1.00522407e+00
1.00511107e+00
1.00499297e+00
1.00487017e+00
1.00474311e+00
1.00461227e+00
1.00447814e+00
1.00434124e+00
1.00420210e+00
1.00406124e+00
1.00391916e+00
1.00377636e+00
1.00363330e+00
1.00349043e+00
1.00334815e+00
1.00320684e+00
1.00306682e+00
1.00292840e+00
1.00279183e+00
1.00265734e+00
1.00252512e+00
1.00239534e+00
1.00226811e+00
1.00214354e+00
1.00202171e+00
1.00190269e+00
1.00178649e+00
1.00167315e+00
1.00156267e+00
1.00145503e+00
1.00135020e+00
1.00124815e+00
1.00114881e+00
1.00105211e+00
1.00095797e+00
1.00086630e+00
1.00077697e+00
1.00068986e+00
1.00060482e+00
1.00052171e+00
1.00044035e+00
1.00036057e+00
1.00028216e+00
1.00020493e+00
1.00012866e+00
1.00005314e+00
9.99978143e-01
9.99903431e-01
9.99828774e-01
9.99753939e-01
9.99678690e-01
9.99602795e-01
9.99526022e-01
9.99448143e-01
9.99368935e-01
9.99288180e-01
9.99205667e-01
9.99121192e-01
9.99034558e-01
9.98945581e-01
9.98854089e-01
9.98759922e-01
9.98662939e-01
9.98563020e-01
9.98460067e-01
9.98354012e-01
9.98244815e-01
9.98132474e-01
9.98017023e-01
9.97898540e-01
9.97777145e-01
9.97653004e-01
9.97526329e-01
9.97397377e-01
9.97266447e-01
9.97133881e-01
9.97000052e-01
9.96865367e-01
9.96730256e-01
9.96595166e-01
9.96460553e-01
9.96326878e-01
9.96194597e-01
9.96064154e-01
9.95935981e-01
9.95810485e-01
9.95688049e-01
9.95569029e-01
9.95453758e-01
9.95342529e-01
9.95235607e-01
9.95133244e-01
9.95035663e-01
9.94943028e-01
9.94855514e-01
9.94773333e-01
9.94696589e-01
9.94625320e-01
9.94559759e-01
9.94500116e-01
9.94446255e-01
9.94398284e-01
9.94356672e-01
9.94321208e-01
9.94291789e-01
9.94268576e-01
9.94251454e-01
9.94240377e-01
1.00626601e+00
1.00625866e+00
1.00624760e+00
1.00623299e+00
1.00621431e+00
1.00619146e+00
1.00616421e+00
1.00613224e+00
1.00609527e+00
1.00605308e+00
1.00600550e+00
1.00595229e+00
1.00589320e+00
1.00582807e+00
1.00575683e+00
1.00567937e+00
1.00559567e+00
1.00550578e+00
1.00540982e+00
1.00530795e+00
1.00520041e+00
1.00508748e+00
1.00496951e+00
1.00484690e+00
1.00472009e+00
1.00458955e+00
1.00445576e+00
1.00431925e+00
1.00418052e+00
1.00404009e+00
1.00389847e+00
1.00375614e+00
1.00361356e+00
1.00347119e+00
1.00332942e+00
1.00318862e+00
1.00304912e+00
1.00291124e+00
1.00277522e+00
1.00264130e+00
1.00250966e+00
1.00238047e+00
1.00225386e+00
1.00212993e+00
1.00200876e+00
1.00189042e+00
1.00177493e+00
1.00166232e+00
1.00155259e+00
1.00144571e+00
1.00134167e+00
1.00124042e+00
1.00114189e+00
1.00104602e+00
1.00095272e+00
1.00086189e+00
1.00077340e+00
1.00068714e+00
1.00060295e+00
1.00052068e+00
1.00044015e+00
1.00036119e+00
1.00028360e+00
1.00020718e+00
1.00013170e+00
1.00005696e+00
9.99982713e-01
9.99908739e-01
9.99834800e-01
9.99760659e-01
9.99686080e-01
9.99610828e-01
9.99534668e-01
9.99457373e-01
9.99378716e-01
9.99298479e-01
9.99216449e-01
9.99132421e-01
9.99046199e-01
9.98957598e-01
9.98866447e-01
9.98772587e-01
9.98675881e-01
9.98576208e-01
9.98473476e-01
9.98367617e-01
9.98258598e-01
9.98146418e-01
9.98031116e-01
9.97912774e-01
9.97791515e-01
9.97667508e-01
9.97540968e-01
9.97412154e-01
9.97281368e-01
9.97148951e-01
9.97015281e-01
9.96880763e-01
9.96745829e-01
9.96610924e-01
9.96476507e-01
9.96343038e-01
9.96210973e-01
9.96080757e-01
9.95952820e-01
9.95827572e-01
9.95705398e-01
9.95586652e-01
9.95471661e-01
9.95360729e-01
9.95254125e-01
9.95152080e-01
9.95054815e-01
9.94962539e-01
9.94875404e-01
9.94793539e-01
9.94717123e-01
9.94646305e-01
9.94581127e-01
9.94521685e-01
9.94468150e-01
9.94420648e-01
9.94379245e-01
9.94343827e-01
9.94314447e-01
9.94291378e-01
9.94274097e-01
9.94262988e-01
1.00624638e+00
1.00623877e+00
1.00622738e+00
1.00621246e+00
1.00619351e+00
1.00617013e+00
1.00614228e+00
1.00610980e+00
1.00607228e+00
1.00602952e+00
1.00598139e+00
1.00592762e+00
1.00586798e+00
1.00580237e+00
1.00573068e+00
1.00565282e+00
1.00556879e+00
1.00547865e+00
1.00538251e+00
1.00528054e+00
1.00517296e+00
1.00506008e+00
1.00494224e+00
1.00481982e+00
1.00469327e+00
1.00456304e+00
1.00442961e+00
1.00429350e+00
1.00415521e+00
1.00401526e+00
1.00387413e+00
1.00373233e+00
1.00359030e+00
1.00344848e+00
1.00330728e+00
1.00316706e+00
1.00302817e+00
1.00289091e+00
1.00275553e+00
1.00262226e+00
1.00249130e+00
1.00236282e+00
1.00223694e+00
1.00211376e+00
1.00199338e+00
1.00187585e+00
1.00176120e+00
1.00164945e+00
1.00154060e+00
1.00143464e+00
1.00133153e+00
1.00123123e+00
1.00113367e+00
1.00103877e+00
1.00094646e+00
1.00085662e+00
1.00076913e+00
1.00068386e+00
1.00060067e+00
1.00051939e+00
1.00043985e+00
1.00036186e+00
1.00028523e+00
1.00020975e+00
1.00013521e+00
1.00006137e+00
9.99988021e-01
9.99914916e-01
9.99841820e-01
9.99768495e-01
9.99694704e-01
9.99620207e-01
9.99544770e-01
9.99468162e-01
9.99390156e-01
9.99310530e-01
9.99229072e-01
9.99145574e-01
9.99059842e-01
9.98971690e-01
9.98880946e-01
9.98787456e-01
9.98691082e-01
9.98591708e-01
9.98489243e-01
9.98383625e-01
9.98274823e-01
9.98162840e-01
9.98047722e-01
9.97929552e-01
9.97808458e-01
9.97684613e-01
9.97558236e-01
9.97429588e-01
9.97298974e-01
9.97166736e-01
9.97033254e-01
9.96898933e-01
9.96764207e-01
9.96629521e-01
9.96495334e-01
9.96362105e-01
9.96230292e-01
9.96100340e-01
9.95972678e-01
9.95847716e-01
9.95725838e-01
9.95607402e-01
9.95492732e-01
9.95382129e-01
9.95275868e-01
9.95174182e-01
9.95077276e-01
9.94985359e-01
9.94898611e-01
9.94817138e-01
9.94741079e-01
9.94670628e-01
9.94605843e-01
9.94546736e-01
9.94493543e-01
9.94446375e-01
9.94405071e-01
9.94369810e-01
9.94340832e-01
9.94317899e-01
9.94300566e-01
9.94289386e-01
1.00622365e+00
1.00621599e+00
1.00620445e+00
1.00618902e+00
1.00616955e+00
1.00614581e+00
1.00611743e+00
1.00608424e+00
1.00604611e+00
1.00600279e+00
1.00595401e+00
1.00589957e+00
1.00583937e+00
1.00577323e+00
1.00570102e+00
1.00562271e+00
1.00553833e+00
1.00544789e+00
1.00535153e+00
1.00524943e+00
1.00514182e+00
1.00502898e+00
1.00491126e+00
1.00478904e+00
1.00466275e+00
1.00453285e+00
1.00439981e+00
1.00426414e+00
1.00412633e+00
1.00398689e+00
1.00384632e+00
1.00370508e+00
1.00356365e+00
1.00342246e+00
1.00328190e+00
1.00314235e+00
1.00300414e+00
1.00286758e+00
1.00273293e+00
1.00260042e+00
1.00247024e+00
1.00234256e+00
1.00221752e+00
1.00209522e+00
1.00197574e+00
1.00185913e+00
1.00174545e+00
1.00163469e+00
1.00152687e+00
1.00142195e+00
1.00131991e+00
1.00122069e+00
1.00112424e+00
1.00103047e+00
1.00093928e+00
1.00085057e+00
1.00076422e+00
1.00068009e+00
1.00059803e+00
1.00051787e+00
1.00043945e+00
1.00036257e+00
1.00028703e+00
1.00021263e+00
1.00013913e+00
1.00006633e+00
9.99993990e-01
9.99921868e-01
9.99849728e-01
9.99777329e-01
9.99704430e-01
9.99630791e-01
9.99556175e-01
9.99480348e-01
9.99403083e-01
9.99324155e-01
9.99243350e-01
9.99160462e-01
9.99075293e-01
9.98987659e-01
9.98897389e-01
9.98804330e-01
9.98708347e-01
9.98609326e-01
9.98507179e-01
9.98401849e-01
9.98293309e-01
9.98181567e-01
9.98066672e-01
9.97948713e-01
9.97827823e-01
9.97704179e-01
9.97578002e-01
9.97449558e-01
9.97319153e-01
9.97187133e-01
9.97053878e-01
9.96919797e-01
9.96785320e-01
9.96650896e-01
9.96516983e-01
9.96384041e-01
9.96252526e-01
9.96122882e-01
9.95995542e-01
9.95870912e-01
9.95749375e-01
9.95631290e-01
9.95516986e-01
9.95406757e-01
9.95300867e-01
9.95199571e-01
9.95103078e-01
9.95011552e-01
9.94925176e-01
9.94844133e-01
9.94768514e-01
9.94698394e-01
9.94633949e-01
9.94575305e-01
9.94522447e-01
9.94475436e-01
9.94434436e-01
9.94399554e-01
9.94370646e-01
9.94347629e-01
9.94330547e-01
9.94319556e-01
1.00619797e+00
1.00619008e+00
1.00617836e+00
1.00616258e+00
1.00614263e+00
1.00611836e+00
1.00608940e+00
1.00605559e+00
1.00601679e+00
1.00597278e+00
1.00592331e+00
1.00586823e+00
1.00580739e+00
1.00574063e+00
1.00566787e+00
1.00558910e+00
1.00550431e+00
1.00541355e+00
1.00531696e+00
1.00521472e+00
1.00510706e+00
1.00499426e+00
1.00487667e+00
1.00475467e+00
1.00462867e+00
1.00449912e+00
1.00436651e+00
1.00423131e+00
1.00409403e+00
1.00395516e+00
1.00381519e+00
1.00367460e+00
1.00353383e+00
1.00339333e+00
1.00325349e+00
1.00311468e+00
1.00297725e+00
1.00284148e+00
1.00270765e+00
1.00257598e+00
1.00244669e+00
1.00231992e+00
1.00219583e+00
1.00207451e+00
1.00195604e+00
1.00184049e+00
1.00172789e+00
1.00161825e+00
1.00151156e+00
1.00140782e+00
1.00130698e+00
1.00120898e+00
1.00111375e+00
1.00102123e+00
1.00093130e+00
1.00084385e+00
1.00075876e+00
1.00067589e+00
1.00059508e+00
1.00051617e+00
1.00043898e+00
1.00036332e+00
1.00028898e+00
1.00021576e+00
1.00014343e+00
1.00007177e+00
1.00000054e+00
9.99929496e-01
9.99858408e-01
9.99787028e-01
9.99715112e-01
9.99642419e-01
9.99568709e-01
9.99493747e-01
9.99417302e-01
9.99339150e-01
9.99259073e-01
9.99176864e-01
9.99092327e-01
9.99005278e-01
9.98915545e-01
9.98822978e-01
9.98727443e-01
9.98628831e-01
9.98527057e-01
9.98422067e-01
9.98313839e-01
9.98202388e-01
9.98087765e-01
9.97970066e-01
9.97849427e-01
9.97726031e-01
9.97600102e-01
9.97471910e-01
9.97341765e-01
9.97210014e-01
9.97077038e-01
9.96943247e-01
9.96809073e-01
9.96674966e-01
9.96541382e-01
9.96408781e-01
9.96277618e-01
9.96148340e-01
9.96021373e-01
9.95897129e-01
9.95775988e-01
9.95658306e-01
9.95544412e-01
9.95434605e-01
9.95329145e-01
9.95228271e-01
9.95132207e-01
9.95041135e-01
9.94955195e-01
9.94874557e-01
9.94799367e-01
9.94729691e-01
9.94665629e-01
9.94607337e-01
9.94554833e-01
9.94508136e-01
9.94467433e-01
9.94432788e-01
9.94404021e-01
9.94381174e-01
9.94364319e-01
9.94353274e-01
1.00616928e+00
1.00616117e+00
1.00614906e+00
1.00613300e+00
1.00611265e+00
1.00608773e+00
1.00605815e+00
1.00602375e+00
1.00598424e+00
1.00593947e+00
1.00588930e+00
1.00583354e+00
1.00577200e+00
1.00570460e+00
1.00563130e+00
1.00555202e+00
1.00546680e+00
1.00537571e+00
1.00527889e+00
1.00517651e+00
1.00506880e+00
1.00495606e+00
1.00483862e+00
1.00471685e+00
1.00459117e+00
1.00446202e+00
1.00432987e+00
1.00419520e+00
1.00405851e+00
1.00392026e+00
1.00378097e+00
1.00364108e+00
1.00350106e+00
1.00336132e+00
1.00322228e+00
1.00308430e+00
1.00294772e+00
1.00281284e+00
1.00267992e+00
1.00254921e+00
1.00242089e+00
1.00229515e+00
1.00217210e+00
1.00205187e+00
1.00193453e+00
1.00182014e+00
1.00170873e+00
1.00160032e+00
1.00149490e+00
1.00139244e+00
1.00129291e+00
1.00119624e+00
1.00110237e+00
1.00101120e+00
1.00092263e+00
1.00083655e+00
1.00075283e+00
1.00067133e+00
1.00059188e+00
1.00051432e+00
1.00043846e+00
1.00036411e+00
1.00029107e+00
1.00021912e+00
1.00014805e+00
1.00007760e+00
1.00000757e+00
9.99937691e-01
9.99867733e-01
9.99797449e-01
9.99726592e-01
9.99654918e-01
9.99582186e-01
9.99508158e-01
9.99432601e-01
9.99355290e-01
9.99276007e-01
9.99194542e-01
9.99110700e-01
9.99024295e-01
9.98935160e-01
9.98843144e-01
9.98748116e-01
9.98649969e-01
9.98548625e-01
9.98444031e-01
9.98336172e-01
9.98225066e-01
9.98110772e-01
9.97993389e-01
9.97873059e-01
9.97749968e-01
9.97624347e-01
9.97496467e-01
9.97366642e-01
9.97235220e-01
9.97102587e-01
9.96969151e-01
9.96835346e-01
9.96701621e-01
9.96568432e-01
9.96436239e-01
9.96305497e-01
9.96176649e-01
9.96050124e-01
9.95926328e-01
9.95805646e-01
9.95688431e-01
9.95575006e-01
9.95465670e-01
9.95360695e-01
9.95260307e-01
9.95164710e-01
9.95074112e-01
9.94988672e-01
9.94908494e-01
9.94833724e-01
9.94764516e-01
9.94700913e-01
9.94642954e-01
9.94590797e-01
9.94544534e-01
9.94504104e-01
9.94469576e-01
9.94441106e-01
9.94418548e-01
9.94401637e-01
9.94390576e-01
1.00613724e+00
1.00612898e+00
1.00611663e+00
1.00610020e+00
1.00607936e+00
1.00605390e+00
1.00602371e+00
1.00598860e+00
1.00594837e+00
1.00590288e+00
1.00585197e+00
1.00579546e+00
1.00573323e+00
1.00566521e+00
1.00559131e+00
1.00551151e+00
1.00542587e+00
1.00533446e+00
1.00523740e+00
1.00513489e+00
1.00502716e+00
1.00491450e+00
1.00479724e+00
1.00467575e+00
1.00455043e+00
1.00442173e+00
1.00429010e+00
1.00415602e+00
1.00401997e+00
1.00388242e+00
1.00374387e+00
1.00360477e+00
1.00346556e+00
1.00332669e+00
1.00318853e+00
1.00305147e+00
1.00291583e+00
1.00278193e+00
1.00265003e+00
1.00252036e+00
1.00239313e+00
1.00226850e+00
1.00214661e+00
1.00202757e+00
1.00191146e+00
1.00179833e+00
1.00168823e+00
1.00158115e+00
1.00147709e+00
1.00137603e+00
1.00127791e+00
1.00118267e+00
1.00109024e+00
1.00100053e+00
1.00091342e+00
1.00082881e+00
1.00074655e+00
1.00066650e+00
1.00058849e+00
1.00051235e+00
1.00043791e+00
1.00036495e+00
1.00029328e+00
1.00022268e+00
1.00015292e+00
1.00008377e+00
1.00001499e+00
9.99946336e-01
9.99877570e-01
9.99808440e-01
9.99738700e-01
9.99668103e-01
9.99596405e-01
9.99523367e-01
9.99448755e-01
9.99372341e-01
9.99293906e-01
9.99213241e-01
9.99130149e-01
9.99044445e-01
9.98955964e-01
9.98864555e-01
9.98770091e-01
9.98672469e-01
9.98571612e-01
9.98467475e-01
9.98360045e-01
9.98249347e-01
9.98135445e-01
9.98018443e-01
9.97898488e-01
9.97775771e-01
9.97650526e-01
9.97523029e-01
9.97393597e-01
9.97262580e-01
9.97130364e-01
9.96997360e-01
9.96864001e-01
9.96730736e-01
9.96598022e-01
9.96466316e-01
9.96336072e-01
9.96207733e-01
9.96081726e-01
9.95958456e-01
9.95838304e-01
9.95721625e-01
9.95608743e-01
9.95499947e-01
9.95395507e-01
9.95295664e-01
9.95200613e-01
9.95110533e-01
9.95025603e-01
9.94945958e-01
9.94871690e-01
9.94802925e-01
9.94739776e-01
9.94682279e-01
9.94630502e-01
9.94584563e-01
9.94544471e-01
9.94510237e-01
9.94481977e-01
9.94459594e-01
9.94442846e-01
9.94431879e-01
1.00610187e+00
1.00609348e+00
1.00608093e+00
1.00606407e+00
1.00604274e+00
1.00601677e+00
1.00598595e+00
1.00595010e+00
1.00590917e+00
1.00586296e+00
1.00581128e+00
1.00575403e+00
1.00569112e+00
1.00562244e+00
1.00554795e+00
1.00546766e+00
1.00538161e+00
1.00528988e+00
1.00519262e+00
1.00509001e+00
1.00498229e+00
1.00486975e+00
1.00475271e+00
1.00463154e+00
1.00450664e+00
1.00437845e+00
1.00424741e+00
1.00411398e+00
1.00397865e+00
1.00384188e+00
1.00370415e+00
1.00356591e+00
1.00342762e+00
1.00328968e+00
1.00315251e+00
1.00301645e+00
1.00288186e+00
1.00274903e+00
1.00261824e+00
1.00248971e+00
1.00236366e+00
1.00224025e+00
1.00211961e+00
1.00200186e+00
1.00188708e+00
1.00177532e+00
1.00166661e+00
1.00156096e+00
1.00145836e+00
1.00135878e+00
1.00126216e+00
1.00116844e+00
1.00107754e+00
1.00098937e+00
1.00090380e+00
1.00082073e+00
1.00074000e+00
1.00066147e+00
1.00058497e+00
1.00051032e+00
1.00043735e+00
1.00036584e+00
1.00029559e+00
1.00022638e+00
1.00015799e+00
1.00009017e+00
1.00002270e+00
9.99955314e-01
9.99887782e-01
9.99819850e-01
9.99751268e-01
9.99681788e-01
9.99611167e-01
9.99539161e-01
9.99465536e-01
9.99390063e-01
9.99312522e-01
9.99232703e-01
9.99150409e-01
9.99065457e-01
9.98977681e-01
9.98886934e-01
9.98793090e-01
9.98696050e-01
9.98595741e-01
9.98492123e-01
9.98385188e-01
9.98274966e-01
9.98161526e-01
9.98044977e-01
9.97925471e-01
9.97803206e-01
9.97678417e-01
9.97551386e-01
9.97422430e-01
9.97291903e-01
9.97160192e-01
9.97027709e-01
9.96894887e-01
9.96762174e-01
9.96630025e-01
9.96498898e-01
9.96369243e-01
9.96241503e-01
9.96116103e-01
9.95993447e-01
9.95873912e-01
9.95757849e-01
9.95645587e-01
9.95537414e-01
9.95433586e-01
9.95334344e-01
9.95239901e-01
9.95150421e-01
9.95066054e-01
9.94986964e-01
9.94913263e-01
9.94845011e-01
9.94782321e-01
9.94725314e-01
9.94673990e-01
9.94628377e-01
9.94588625e-01
9.94554768e-01
9.94526712e-01
9.94504455e-01
9.94487948e-01
9.94477103e-01
1.00606314e+00
1.00605456e+00
1.00604176e+00
1.00602456e+00
1.00600278e+00
1.00597623e+00
1.00594476e+00
1.00590827e+00
1.00586661e+00
1.00581964e+00
1.00576722e+00
1.00570927e+00
1.00564567e+00
1.00557635e+00
1.00550131e+00
1.00542054e+00
1.00533410e+00
1.00524209e+00
1.00514465e+00
1.00504199e+00
1.00493432e+00
1.00482195e+00
1.00470519e+00
1.00458441e+00
1.00446000e+00
1.00433239e+00
1.00420201e+00
1.00406931e+00
1.00393478e+00
1.00379888e+00
1.00366206e+00
1.00352478e+00
1.00338749e+00
1.00325059e+00
1.00311449e+00
1.00297954e+00
1.00284609e+00
1.00271443e+00
1.00258484e+00
1.00245756e+00
1.00233278e+00
1.00221068e+00
1.00209139e+00
1.00197502e+00
1.00186166e+00
1.00175135e+00
1.00164413e+00
1.00153999e+00
1.00143893e+00
1.00134091e+00
1.00124587e+00
1.00115374e+00
1.00106444e+00
1.00097787e+00
1.00089390e+00
1.00081242e+00
1.00073328e+00
1.00065632e+00
1.00058137e+00
1.00050826e+00
1.00043680e+00
1.00036677e+00
1.00029798e+00
1.00023020e+00
1.00016320e+00
1.00009674e+00
1.00003060e+00
9.99964510e-01
9.99898236e-01
9.99831525e-01
9.99764126e-01
9.99695791e-01
9.99626272e-01
9.99555327e-01
9.99482720e-01
9.99408220e-01
9.99331608e-01
9.99252673e-01
9.99171218e-01
9.99087061e-01
9.99000038e-01
9.98910002e-01
9.98816833e-01
9.98720433e-01
9.98620734e-01
9.98517700e-01
9.98411328e-01
9.98301654e-01
9.98188751e-01
9.98072735e-01
9.97953763e-01
9.97832034e-01
9.97707791e-01
9.97581317e-01
9.97452932e-01
9.97322993e-01
9.97191887e-01
9.97060026e-01
9.96927842e-01
9.96795784e-01
9.96664304e-01
9.96533858e-01
9.96404897e-01
9.96277859e-01
9.96153166e-01
9.96031220e-01
9.95912400e-01
9.95797052e-01
9.95685496e-01
9.95578027e-01
9.95474904e-01
9.95376349e-01
9.95282571e-01
9.95193758e-01
9.95110048e-01
9.95031566e-01
9.94958450e-01
9.94890793e-01
9.94828649e-01
9.94772109e-01
9.94721256e-01
9.94676102e-01
9.94636701e-01
9.94603136e-01
9.94575376e-01
9.94553373e-01
9.94537027e-01
9.94526224e-01
1.00602091e+00
1.00601216e+00
1.00599909e+00
1.00598157e+00
1.00595934e+00
1.00593223e+00
1.00590016e+00
1.00586302e+00
1.00582065e+00
1.00577295e+00
1.00571983e+00
1.00566118e+00
1.00559691e+00
1.00552700e+00
1.00545143e+00
1.00537022e+00
1.00528344e+00
1.00519120e+00
1.00509364e+00
1.00499097e+00
1.00488343e+00
1.00477129e+00
1.00465489e+00
1.00453457e+00
1.00441072e+00
1.00428377e+00
1.00415413e+00
1.00402226e+00
1.00388862e+00
1.00375367e+00
1.00361786e+00
1.00348164e+00
1.00334544e+00
1.00320969e+00
1.00307475e+00
1.00294101e+00
1.00280880e+00
1.00267841e+00
1.00255013e+00
1.00242418e+00
1.00230077e+00
1.00218006e+00
1.00206221e+00
1.00194732e+00
1.00183545e+00
1.00172668e+00
1.00162101e+00
1.00151846e+00
1.00141901e+00
1.00132261e+00
1.00122921e+00
1.00113873e+00
1.00105109e+00
1.00096617e+00
1.00088385e+00
1.00080401e+00
1.00072648e+00
1.00065113e+00
1.00057776e+00
1.00050621e+00
1.00043627e+00
1.00036775e+00
1.00030043e+00
1.00023408e+00
1.00016849e+00
1.00010341e+00
1.00003860e+00
9.99973811e-01
9.99908803e-01
9.99843320e-01
9.99777113e-01
9.99709932e-01
9.99641528e-01
9.99571659e-01
9.99500088e-01
9.99426583e-01
9.99350925e-01
9.99272903e-01
9.99192320e-01
9.99108995e-01
9.99022766e-01
9.98933489e-01
9.98841046e-01
9.98745342e-01
9.98646315e-01
9.98543931e-01
9.98438194e-01
9.98329144e-01
9.98216860e-01
9.98101461e-01
9.97983111e-01
9.97862014e-01
9.97738414e-01
9.97612598e-01
9.97484890e-01
9.97355646e-01
9.97225254e-01
9.97094126e-01
9.96962695e-01
9.96831406e-01
9.96700710e-01
9.96571062e-01
9.96442908e-01
9.96316686e-01
9.96192814e-01
9.96071690e-01
9.95953691e-01
9.95839163e-01
9.95728421e-01
9.95621752e-01
9.95519419e-01
9.95421649e-01
9.95328632e-01
9.95240550e-01
9.95157565e-01
9.95079786e-01
9.95007318e-01
9.94940285e-01
9.94878756e-01
9.94822762e-01
9.94772393e-01
9.94727726e-01
9.94688746e-01
9.94655494e-01
9.94628045e-01
9.94606324e-01
9.94590133e-01
9.94579413e-01
1.00597503e+00
1.00596617e+00
1.00595290e+00
1.00593503e+00
1.00591236e+00
1.00588474e+00
1.00585210e+00
1.00581430e+00
1.00577126e+00
1.00572289e+00
1.00566909e+00
1.00560978e+00
1.00554490e+00
1.00547445e+00
1.00539840e+00
1.00531680e+00
1.00522974e+00
1.00513733e+00
1.00503972e+00
1.00493712e+00
1.00482977e+00
1.00471795e+00
1.00460198e+00
1.00448221e+00
1.00435902e+00
1.00423281e+00
1.00410401e+00
1.00397307e+00
1.00384042e+00
1.00370652e+00
1.00357182e+00
1.00343676e+00
1.00330177e+00
1.00316725e+00
1.00303359e+00
1.00290116e+00
1.00277028e+00
1.00264126e+00
1.00251437e+00
1.00238985e+00
1.00226789e+00
1.00214868e+00
1.00203234e+00
1.00191899e+00
1.00180871e+00
1.00170153e+00
1.00159750e+00
1.00149660e+00
1.00139881e+00
1.00130409e+00
1.00121238e+00
1.00112359e+00
1.00103763e+00
1.00095440e+00
1.00087376e+00
1.00079557e+00
1.00071969e+00
1.00064596e+00
1.00057418e+00
1.00050419e+00
1.00043579e+00
1.00036877e+00
1.00030291e+00
1.00023800e+00
1.00017380e+00
1.00011009e+00
1.00004660e+00
9.99983109e-01
9.99919358e-01
9.99855097e-01
9.99790076e-01
9.99724045e-01
9.99656755e-01
9.99587965e-01
9.99517435e-01
9.99444935e-01
9.99370246e-01
9.99293156e-01
9.99213471e-01
9.99131010e-01
9.99045612e-01
9.98957136e-01
9.98865467e-01
9.98770514e-01
9.98672218e-01
9.98570552e-01
9.98465522e-01
9.98357175e-01
9.98245593e-01
9.98130903e-01
9.98013271e-01
9.97892904e-01
9.97770053e-01
9.97645005e-01
9.97518085e-01
9.97389652e-01
9.97260094e-01
9.97129822e-01
9.96999267e-01
9.96868871e-01
9.96739087e-01
9.96610362e-01
9.96483142e-01
9.96357860e-01
9.96234932e-01
9.96114754e-01
9.95997695e-01
9.95884100e-01
9.95774285e-01
9.95668531e-01
9.95567091e-01
9.95470197e-01
9.95378045e-01
9.95290794e-01
9.95208600e-01
9.95131600e-01
9.95059882e-01
9.94993532e-01
9.94932649e-01
9.94877290e-01
9.94827482e-01
9.94783294e-01
9.94744775e-01
9.94711937e-01
9.94684799e-01
9.94663330e-01
9.94647378e-01
9.94636792e-01
1.00592550e+00
1.00591653e+00
1.00590307e+00
1.00588489e+00
1.00586181e+00
1.00583372e+00
1.00580052e+00
1.00576212e+00
1.00571847e+00
1.00566947e+00
1.00561503e+00
1.00555512e+00
1.00548971e+00
1.00541876e+00
1.00534230e+00
1.00526039e+00
1.00517313e+00
1.00508062e+00
1.00498304e+00
1.00488060e+00
1.00477353e+00
1.00466211e+00
1.00454667e+00
1.00442754e+00
1.00430510e+00
1.00417975e+00
1.00405190e+00
1.00392198e+00
1.00379043e+00
1.00365769e+00
1.00352421e+00
1.00339042e+00
1.00325673e+00
1.00312355e+00
1.00299127e+00
1.00286024e+00
1.00273080e+00
1.00260324e+00
1.00247784e+00
1.00235483e+00
1.00223442e+00
1.00211678e+00
1.00200203e+00
1.00189030e+00
1.00178166e+00
1.00167615e+00
1.00157380e+00
1.00147459e+00
1.00137852e+00
1.00128551e+00
1.00119552e+00
1.00110846e+00
1.00102422e+00
1.00094269e+00
1.00086374e+00
1.00078722e+00
1.00071299e+00
1.00064086e+00
1.00057068e+00
1.00050225e+00
1.00043536e+00
1.00036982e+00
1.00030542e+00
1.00024192e+00
1.00017909e+00