# vtk DataFile Version 2.0
LBM Flow Field - Timestep 2600
ASCII
DATASET STRUCTURED_POINTS
DIMENSIONS 128 128 1
ORIGIN 0.0 0.0 0.0
SPACING 1.0 1.0 1.0
POINT_DATA 16384
SCALARS density double 1
LOOKUP_TABLE default
1.00404472e+00
1.00404963e+00
1.00405343e+00
1.00404406e+00
1.00403189e+00
1.00401929e+00
1.00400309e+00
1.00398337e+00
1.00396163e+00
1.00393759e+00
1.00391067e+00
1.00388108e+00
1.00384896e+00
1.00381416e+00
1.00377658e+00
1.00373631e+00
1.00369333e+00
1.00364761e+00
1.00359919e+00
1.00354810e+00
1.00349437e+00
1.00343806e+00
1.00337923e+00
1.00331797e+00
1.00325436e+00
1.00318850e+00
1.00312050e+00
1.00305050e+00
1.00297862e+00
1.00290500e+00
1.00282979e+00
1.00275314e+00
1.00267521e+00
1.00259616e+00
1.00251615e+00
1.00243536e+00
1.00235393e+00
1.00227204e+00
1.00218984e+00
1.00210750e+00
1.00202517e+00
1.00194298e+00
1.00186108e+00
1.00177961e+00
1.00169866e+00
1.00161837e+00
1.00153881e+00
1.00146008e+00
1.00138224e+00
1.00130535e+00
1.00122945e+00
1.00115456e+00
1.00108070e+00
1.00100786e+00
1.00093603e+00
1.00086518e+00
1.00079527e+00
1.00072625e+00
1.00065805e+00
1.00059062e+00
1.00052389e+00
1.00045776e+00
1.00039218e+00
1.00032706e+00
1.00026233e+00
1.00019792e+00
1.00013375e+00
1.00006978e+00
1.00000594e+00
9.99942190e-01
9.99878491e-01
9.99814814e-01
9.99751138e-01
9.99687449e-01
9.99623741e-01
9.99560016e-01
9.99496280e-01
9.99432546e-01
9.99368829e-01
9.99305150e-01
9.99241530e-01
9.99177993e-01
9.99114565e-01
9.99051272e-01
9.98988138e-01
9.98925191e-01
9.98862457e-01
9.98799965e-01
9.98737743e-01
9.98675821e-01
9.98614233e-01
9.98553014e-01
9.98492203e-01
9.98431844e-01
9.98371984e-01
9.98312677e-01
9.98253980e-01
9.98195959e-01
9.98138681e-01
9.98082220e-01
9.98026657e-01
9.97972072e-01
9.97918553e-01
9.97866186e-01
9.97815062e-01
9.97765271e-01
9.97716899e-01
9.97670035e-01
9.97624767e-01
9.97581170e-01
9.97539313e-01
9.97499284e-01
9.97461151e-01
9.97424939e-01
9.97390709e-01
9.97358588e-01
9.97328564e-01
9.97300528e-01
9.97274706e-01
9.97251379e-01
9.97230013e-01
9.97210397e-01
9.97194056e-01
9.97181146e-01
9.97168596e-01
9.97158728e-01
9.97161132e-01
9.97164800e-01
1.00404962e+00
1.00404776e+00
1.00404708e+00
1.00403911e+00
1.00402796e+00
1.00401466e+00
1.00399854e+00
1.00397944e+00
1.00395780e+00
1.00393369e+00
1.00390692e+00
1.00387749e+00
1.00384542e+00
1.00381067e+00
1.00377320e+00
1.00373302e+00
1.00369011e+00
1.00364449e+00
1.00359616e+00
1.00354516e+00
1.00349153e+00
1.00343533e+00
1.00337660e+00
1.00331544e+00
1.00325194e+00
1.00318619e+00
1.00311831e+00
1.00304842e+00
1.00297666e+00
1.00290315e+00
1.00282806e+00
1.00275152e+00
1.00267370e+00
1.00259477e+00
1.00251487e+00
1.00243418e+00
1.00235287e+00
1.00227109e+00
1.00218900e+00
1.00210676e+00
1.00202453e+00
1.00194245e+00
1.00186065e+00
1.00177927e+00
1.00169843e+00
1.00161822e+00
1.00153875e+00
1.00146010e+00
1.00138234e+00
1.00130553e+00
1.00122970e+00
1.00115488e+00
1.00108108e+00
1.00100830e+00
1.00093652e+00
1.00086572e+00
1.00079585e+00
1.00072686e+00
1.00065871e+00
1.00059131e+00
1.00052460e+00
1.00045851e+00
1.00039295e+00
1.00032785e+00
1.00026314e+00
1.00019875e+00
1.00013460e+00
1.00007064e+00
1.00000681e+00
9.99943072e-01
9.99879380e-01
9.99815707e-01
9.99752031e-01
9.99688339e-01
9.99624623e-01
9.99560886e-01
9.99497134e-01
9.99433379e-01
9.99369637e-01
9.99305929e-01
9.99242278e-01
9.99178707e-01
9.99115242e-01
9.99051910e-01
9.98988739e-01
9.98925757e-01
9.98862990e-01
9.98800469e-01
9.98738224e-01
9.98676286e-01
9.98614690e-01
9.98553473e-01
9.98492673e-01
9.98432337e-01
9.98372511e-01
9.98313250e-01
9.98254613e-01
9.98196662e-01
9.98139466e-01
9.98083099e-01
9.98027639e-01
9.97973167e-01
9.97919769e-01
9.97867532e-01
9.97816542e-01
9.97766890e-01
9.97718663e-01
9.97671946e-01
9.97626823e-01
9.97583373e-01
9.97541673e-01
9.97501792e-01
9.97463794e-01
9.97427738e-01
9.97393683e-01
9.97361684e-01
9.97331762e-01
9.97303960e-01
9.97278360e-01
9.97255011e-01
9.97233791e-01
9.97214857e-01
9.97198642e-01
9.97185081e-01
9.97173462e-01
9.97165045e-01
9.97163229e-01
9.97160591e-01
1.00405315e+00
1.00404660e+00
1.00403674e+00
1.00403098e+00
1.00402200e+00
1.00400738e+00
1.00399077e+00
1.00397248e+00
1.00395108e+00
1.00392678e+00
1.00390014e+00
1.00387094e+00
1.00383895e+00
1.00380427e+00
1.00376694e+00
1.00372689e+00
1.00368410e+00
1.00363860e+00
1.00359042e+00
1.00353956e+00
1.00348607e+00
1.00343001e+00
1.00337143e+00
1.00331043e+00
1.00324708e+00
1.00318150e+00
1.00311378e+00
1.00304405e+00
1.00297245e+00
1.00289911e+00
1.00282418e+00
1.00274782e+00
1.00267017e+00
1.00259139e+00
1.00251166e+00
1.00243114e+00
1.00234999e+00
1.00226837e+00
1.00218644e+00
1.00210436e+00
1.00202229e+00
1.00194036e+00
1.00185872e+00
1.00177749e+00
1.00169679e+00
1.00161673e+00
1.00153741e+00
1.00145890e+00
1.00138128e+00
1.00130459e+00
1.00122889e+00
1.00115419e+00
1.00108052e+00
1.00100785e+00
1.00093619e+00
1.00086549e+00
1.00079573e+00
1.00072685e+00
1.00065879e+00
1.00059149e+00
1.00052488e+00
1.00045887e+00
1.00039341e+00
1.00032840e+00
1.00026377e+00
1.00019946e+00
1.00013540e+00
1.00007151e+00
1.00000776e+00
9.99944099e-01
9.99880479e-01
9.99816875e-01
9.99753265e-01
9.99689636e-01
9.99625980e-01
9.99562299e-01
9.99498600e-01
9.99434895e-01
9.99371201e-01
9.99307538e-01
9.99243929e-01
9.99180401e-01
9.99116979e-01
9.99053691e-01
9.98990565e-01
9.98927631e-01
9.98864917e-01
9.98802455e-01
9.98740274e-01
9.98678408e-01
9.98616893e-01
9.98555764e-01
9.98495064e-01
9.98434837e-01
9.98375132e-01
9.98316002e-01
9.98257505e-01
9.98199704e-01
9.98142668e-01
9.98086470e-01
9.98031186e-01
9.97976897e-01
9.97923686e-01
9.97871641e-01
9.97820846e-01
9.97771390e-01
9.97723360e-01
9.97676841e-01
9.97631910e-01
9.97588653e-01
9.97547147e-01
9.97507450e-01
9.97469623e-01
9.97433758e-01
9.97399901e-01
9.97368029e-01
9.97338247e-01
9.97310729e-01
9.97285308e-01
9.97261823e-01
9.97240901e-01
9.97222788e-01
9.97206141e-01
9.97191363e-01
9.97181895e-01
9.97175481e-01
9.97165070e-01
9.97157965e-01
1.00404303e+00
1.00403762e+00
1.00402988e+00
1.00402183e+00
1.00401064e+00
1.00399708e+00
1.00398114e+00
1.00396234e+00
1.00394088e+00
1.00391697e+00
1.00389045e+00
1.00386123e+00
1.00382939e+00
1.00379488e+00
1.00375767e+00
1.00371774e+00
1.00367511e+00
1.00362978e+00
1.00358175e+00
1.00353107e+00
1.00347776e+00
1.00342189e+00
1.00336352e+00
1.00330272e+00
1.00323959e+00
1.00317422e+00
1.00310673e+00
1.00303723e+00
1.00296587e+00
1.00289277e+00
1.00281808e+00
1.00274195e+00
1.00266454e+00
1.00258601e+00
1.00250653e+00
1.00242625e+00
1.00234534e+00
1.00226396e+00
1.00218227e+00
1.00210044e+00
1.00201860e+00
1.00193690e+00
1.00185548e+00
1.00177448e+00
1.00169399e+00
1.00161415e+00
1.00153503e+00
1.00145672e+00
1.00137928e+00
1.00130279e+00
1.00122726e+00
1.00115274e+00
1.00107923e+00
1.00100672e+00
1.00093521e+00
1.00086466e+00
1.00079504e+00
1.00072630e+00
1.00065838e+00
1.00059120e+00
1.00052472e+00
1.00045884e+00
1.00039349e+00
1.00032861e+00
1.00026411e+00
1.00019992e+00
1.00013597e+00
1.00007222e+00
1.00000859e+00
9.99945049e-01
9.99881555e-01
9.99818079e-01
9.99754598e-01
9.99691098e-01
9.99627574e-01
9.99564025e-01
9.99500460e-01
9.99436889e-01
9.99373332e-01
9.99309807e-01
9.99246339e-01
9.99182953e-01
9.99119676e-01
9.99056536e-01
9.98993563e-01
9.98930785e-01
9.98868233e-01
9.98805937e-01
9.98743930e-01
9.98682244e-01
9.98620915e-01
9.98559981e-01
9.98499482e-01
9.98439464e-01
9.98379975e-01
9.98321068e-01
9.98262801e-01
9.98205237e-01
9.98148442e-01
9.98092489e-01
9.98037453e-01
9.97983415e-01
9.97930456e-01
9.97878662e-01
9.97828118e-01
9.97778909e-01
9.97731122e-01
9.97684841e-01
9.97640148e-01
9.97597119e-01
9.97555827e-01
9.97516349e-01
9.97478744e-01
9.97443063e-01
9.97409376e-01
9.97377739e-01
9.97348165e-01
9.97320695e-01
9.97295444e-01
9.97272400e-01
9.97251480e-01
9.97232921e-01
9.97216960e-01
9.97203236e-01
9.97191749e-01
9.97183151e-01
9.97174840e-01
9.97168743e-01
1.00402958e+00
1.00402494e+00
1.00401915e+00
1.00400883e+00
1.00399685e+00
1.00398422e+00
1.00396818e+00
1.00394898e+00
1.00392773e+00
1.00390408e+00
1.00387757e+00
1.00384842e+00
1.00381675e+00
1.00378240e+00
1.00374531e+00
1.00370554e+00
1.00366309e+00
1.00361794e+00
1.00357011e+00
1.00351964e+00
1.00346657e+00
1.00341093e+00
1.00335281e+00
1.00329228e+00
1.00322942e+00
1.00316433e+00
1.00309713e+00
1.00302794e+00
1.00295688e+00
1.00288409e+00
1.00280972e+00
1.00273392e+00
1.00265683e+00
1.00257863e+00
1.00249948e+00
1.00241953e+00
1.00233894e+00
1.00225789e+00
1.00217653e+00
1.00209501e+00
1.00201348e+00
1.00193209e+00
1.00185098e+00
1.00177026e+00
1.00169007e+00
1.00161050e+00
1.00153165e+00
1.00145359e+00
1.00137641e+00
1.00130015e+00
1.00122486e+00
1.00115055e+00
1.00107725e+00
1.00100494e+00
1.00093362e+00
1.00086326e+00
1.00079382e+00
1.00072524e+00
1.00065748e+00
1.00059047e+00
1.00052414e+00
1.00045842e+00
1.00039323e+00
1.00032850e+00
1.00026415e+00
1.00020012e+00
1.00013634e+00
1.00007275e+00
1.00000929e+00
9.99945927e-01
9.99882613e-01
9.99819321e-01
9.99756030e-01
9.99692726e-01
9.99629402e-01
9.99566059e-01
9.99502705e-01
9.99439352e-01
9.99376016e-01
9.99312719e-01
9.99249483e-01
9.99186334e-01
9.99123300e-01
9.99060409e-01
9.98997689e-01
9.98935171e-01
9.98872885e-01
9.98810861e-01
9.98749132e-01
9.98687730e-01
9.98626692e-01
9.98566055e-01
9.98505859e-01
9.98446150e-01
9.98386975e-01
9.98328387e-01
9.98270442e-01
9.98213203e-01
9.98156735e-01
9.98101110e-01
9.98046402e-01
9.97992689e-01
9.97940053e-01
9.97888577e-01
9.97838346e-01
9.97789444e-01
9.97741955e-01
9.97695963e-01
9.97651551e-01
9.97608793e-01
9.97567757e-01
9.97528524e-01
9.97491166e-01
9.97455711e-01
9.97422214e-01
9.97390795e-01
9.97361463e-01
9.97334115e-01
9.97308940e-01
9.97286228e-01
9.97265560e-01
9.97246662e-01
9.97230695e-01
9.97217906e-01
9.97205680e-01
9.97194977e-01
9.97188591e-01
9.97183335e-01
1.00401502e+00
1.00400942e+00
1.00400216e+00
1.00399283e+00
1.00398172e+00
1.00396782e+00
1.00395136e+00
1.00393286e+00
1.00391175e+00
1.00388785e+00
1.00386147e+00
1.00383259e+00
1.00380102e+00
1.00376676e+00
1.00372987e+00
1.00369031e+00
1.00364805e+00
1.00360311e+00
1.00355553e+00
1.00350531e+00
1.00345250e+00
1.00339715e+00
1.00333934e+00
1.00327912e+00
1.00321659e+00
1.00315185e+00
1.00308501e+00
1.00301618e+00
1.00294550e+00
1.00287310e+00
1.00279913e+00
1.00272373e+00
1.00264705e+00
1.00256926e+00
1.00249051e+00
1.00241097e+00
1.00233080e+00
1.00225015e+00
1.00216919e+00
1.00208807e+00
1.00200693e+00
1.00192593e+00
1.00184519e+00
1.00176484e+00
1.00168500e+00
1.00160577e+00
1.00152725e+00
1.00144951e+00
1.00137264e+00
1.00129667e+00
1.00122166e+00
1.00114762e+00
1.00107457e+00
1.00100250e+00
1.00093142e+00
1.00086128e+00
1.00079205e+00
1.00072368e+00
1.00065612e+00
1.00058931e+00
1.00052317e+00
1.00045764e+00
1.00039264e+00
1.00032810e+00
1.00026395e+00
1.00020012e+00
1.00013654e+00
1.00007316e+00
1.00000992e+00
9.99946777e-01
9.99883695e-01
9.99820644e-01
9.99757603e-01
9.99694557e-01
9.99631501e-01
9.99568436e-01
9.99505368e-01
9.99442309e-01
9.99379276e-01
9.99316290e-01
9.99253373e-01
9.99190552e-01
9.99127853e-01
9.99065305e-01
9.99002935e-01
9.98940775e-01
9.98878853e-01
9.98817201e-01
9.98755850e-01
9.98694833e-01
9.98634185e-01
9.98573944e-01
9.98514150e-01
9.98454847e-01
9.98396081e-01
9.98337904e-01
9.98280373e-01
9.98223547e-01
9.98167492e-01
9.98112278e-01
9.98057976e-01
9.98004665e-01
9.97952425e-01
9.97901336e-01
9.97851482e-01
9.97802947e-01
9.97755815e-01
9.97710166e-01
9.97666079e-01
9.97623637e-01
9.97582911e-01
9.97543959e-01
9.97506853e-01
9.97471674e-01
9.97438448e-01
9.97407195e-01
9.97378030e-01
9.97351027e-01
9.97326058e-01
9.97303166e-01
9.97282698e-01
9.97264558e-01
9.97248243e-01
9.97234288e-01
9.97222952e-01
9.97213280e-01
9.97205535e-01
9.97199436e-01
1.00399615e+00
1.00399045e+00
1.00398255e+00
1.00397378e+00
1.00396254e+00
1.00394820e+00
1.00393204e+00
1.00391365e+00
1.00389237e+00
1.00386858e+00
1.00384243e+00
1.00381365e+00
1.00378217e+00
1.00374811e+00
1.00371143e+00
1.00367206e+00
1.00363003e+00
1.00358535e+00
1.00353803e+00
1.00348810e+00
1.00343561e+00
1.00338060e+00
1.00332313e+00
1.00326328e+00
1.00320115e+00
1.00313681e+00
1.00307039e+00
1.00300201e+00
1.00293177e+00
1.00285983e+00
1.00278633e+00
1.00271140e+00
1.00263521e+00
1.00255790e+00
1.00247964e+00
1.00240059e+00
1.00232090e+00
1.00224074e+00
1.00216026e+00
1.00207961e+00
1.00199894e+00
1.00191839e+00
1.00183810e+00
1.00175818e+00
1.00167876e+00
1.00159994e+00
1.00152182e+00
1.00144446e+00
1.00136795e+00
1.00129233e+00
1.00121764e+00
1.00114392e+00
1.00107117e+00
1.00099940e+00
1.00092859e+00
1.00085871e+00
1.00078973e+00
1.00072161e+00
1.00065429e+00
1.00058771e+00
1.00052180e+00
1.00045650e+00
1.00039173e+00
1.00032743e+00
1.00026351e+00
1.00019992e+00
1.00013659e+00
1.00007346e+00
1.00001049e+00
9.99947622e-01
9.99884826e-01
9.99822073e-01
9.99759341e-01
9.99696618e-01
9.99633896e-01
9.99571176e-01
9.99508466e-01
9.99445777e-01
9.99383126e-01
9.99320532e-01
9.99258019e-01
9.99195611e-01
9.99133336e-01
9.99071221e-01
9.99009294e-01
9.98947584e-01
9.98886122e-01
9.98824936e-01
9.98764059e-01
9.98703522e-01
9.98643361e-01
9.98583611e-01
9.98524312e-01
9.98465507e-01
9.98407241e-01
9.98349566e-01
9.98292535e-01
9.98236208e-01
9.98180649e-01
9.98125924e-01
9.98072107e-01
9.98019271e-01
9.97967496e-01
9.97916862e-01
9.97867450e-01
9.97819341e-01
9.97772621e-01
9.97727370e-01
9.97683662e-01
9.97641577e-01
9.97601193e-01
9.97562574e-01
9.97525768e-01
9.97490859e-01
9.97457921e-01
9.97426943e-01
9.97397955e-01
9.97371131e-01
9.97346471e-01
9.97323755e-01
9.97303209e-01
9.97285257e-01
9.97269291e-01
9.97254979e-01
9.97243584e-01
9.97234520e-01
9.97226202e-01
9.97220053e-01
1.00397307e+00
1.00396787e+00
1.00396069e+00
1.00395133e+00
1.00393962e+00
1.00392595e+00
1.00390989e+00
1.00389106e+00
1.00386993e+00
1.00384648e+00
1.00382036e+00
1.00379161e+00
1.00376037e+00
1.00372653e+00
1.00369002e+00
1.00365087e+00
1.00360911e+00
1.00356471e+00
1.00351769e+00
1.00346809e+00
1.00341595e+00
1.00336132e+00
1.00330425e+00
1.00324483e+00
1.00318314e+00
1.00311927e+00
1.00305333e+00
1.00298545e+00
1.00291573e+00
1.00284432e+00
1.00277135e+00
1.00269697e+00
1.00262133e+00
1.00254459e+00
1.00246689e+00
1.00238840e+00
1.00230928e+00
1.00222968e+00
1.00214975e+00
1.00206965e+00
1.00198952e+00
1.00190950e+00
1.00182972e+00
1.00175031e+00
1.00167138e+00
1.00159303e+00
1.00151535e+00
1.00143844e+00
1.00136234e+00
1.00128712e+00
1.00121282e+00
1.00113946e+00
1.00106707e+00
1.00099563e+00
1.00092513e+00
1.00085556e+00
1.00078688e+00
1.00071904e+00
1.00065200e+00
1.00058569e+00
1.00052005e+00
1.00045502e+00
1.00039052e+00
1.00032648e+00
1.00026284e+00
1.00019953e+00
1.00013649e+00
1.00007367e+00
1.00001101e+00
9.99948467e-01
9.99886011e-01
9.99823612e-01
9.99761248e-01
9.99698908e-01
9.99636585e-01
9.99574279e-01
9.99511998e-01
9.99449752e-01
9.99387559e-01
9.99325437e-01
9.99263409e-01
9.99201499e-01
9.99139734e-01
9.99078140e-01
9.99016744e-01
9.98955576e-01
9.98894664e-01
9.98834038e-01
9.98773727e-01
9.98713764e-01
9.98654181e-01
9.98595014e-01
9.98536302e-01
9.98478084e-01
9.98420408e-01
9.98363320e-01
9.98306875e-01
9.98251129e-01
9.98196145e-01
9.98141988e-01
9.98088729e-01
9.98036441e-01
9.97985199e-01
9.97935084e-01
9.97886176e-01
9.97838555e-01
9.97792300e-01
9.97747495e-01
9.97704218e-01
9.97662540e-01
9.97622530e-01
9.97584273e-01
9.97547829e-01
9.97513226e-01
9.97480541e-01
9.97449877e-01
9.97421213e-01
9.97394510e-01
9.97369959e-01
9.97347672e-01
9.97327356e-01
9.97309053e-01
9.97293264e-01
9.97279686e-01
9.97267906e-01
9.97258323e-01
9.97250775e-01
9.97245151e-01
1.00394742e+00
1.00394226e+00
1.00393524e+00
1.00392574e+00
1.00391418e+00
1.00390061e+00
1.00388436e+00
1.00386567e+00
1.00384477e+00
1.00382132e+00
1.00379526e+00
1.00376674e+00
1.00373570e+00
1.00370201e+00
1.00366573e+00
1.00362686e+00
1.00358537e+00
1.00354127e+00
1.00349459e+00
1.00344536e+00
1.00339361e+00
1.00333939e+00
1.00328278e+00
1.00322383e+00
1.00316263e+00
1.00309928e+00
1.00303389e+00
1.00296656e+00
1.00289742e+00
1.00282661e+00
1.00275425e+00
1.00268049e+00
1.00260548e+00
1.00252937e+00
1.00245231e+00
1.00237446e+00
1.00229597e+00
1.00221700e+00
1.00213770e+00
1.00205822e+00
1.00197870e+00
1.00189928e+00
1.00182008e+00
1.00174124e+00
1.00166286e+00
1.00158504e+00
1.00150788e+00
1.00143146e+00
1.00135584e+00
1.00128107e+00
1.00120720e+00
1.00113426e+00
1.00106226e+00
1.00099120e+00
1.00092106e+00
1.00085184e+00
1.00078349e+00
1.00071598e+00
1.00064925e+00
1.00058325e+00
1.00051792e+00
1.00045319e+00
1.00038900e+00
1.00032527e+00
1.00026195e+00
1.00019896e+00
1.00013626e+00
1.00007378e+00
1.00001148e+00
9.99949315e-01
9.99887251e-01
9.99825259e-01
9.99763321e-01
9.99701424e-01
9.99639563e-01
9.99577736e-01
9.99515952e-01
9.99454222e-01
9.99392560e-01
9.99330986e-01
9.99269521e-01
9.99208189e-01
9.99147016e-01
9.99086027e-01
9.99025249e-01
9.98964709e-01
9.98904435e-01
9.98844456e-01
9.98784801e-01
9.98725499e-01
9.98666583e-01
9.98608087e-01
9.98550048e-01
9.98492506e-01
9.98435502e-01
9.98379086e-01
9.98323307e-01
9.98268222e-01
9.98213891e-01
9.98160377e-01
9.98107748e-01
9.98056076e-01
9.98005436e-01
9.97955904e-01
9.97907558e-01
9.97860481e-01
9.97814749e-01
9.97770440e-01
9.97727634e-01
9.97686410e-01
9.97646829e-01
9.97608960e-01
9.97572885e-01
9.97538657e-01
9.97506296e-01
9.97475882e-01
9.97447512e-01
9.97421142e-01
9.97396754e-01
9.97374560e-01
9.97354561e-01
9.97336483e-01
9.97320603e-01
9.97307198e-01
9.97295641e-01
9.97285989e-01
9.97278661e-01
9.97273125e-01
1.00391905e+00
1.00391377e+00
1.00390650e+00
1.00389734e+00
1.00388600e+00
1.00387213e+00
1.00385596e+00
1.00383759e+00
1.00381668e+00
1.00379322e+00
1.00376741e+00
1.00373910e+00
1.00370817e+00
1.00367470e+00
1.00363870e+00
1.00360009e+00
1.00355889e+00
1.00351513e+00
1.00346883e+00
1.00341999e+00
1.00336867e+00
1.00331491e+00
1.00325878e+00
1.00320035e+00
1.00313970e+00
1.00307693e+00
1.00301213e+00
1.00294543e+00
1.00287693e+00
1.00280677e+00
1.00273508e+00
1.00266201e+00
1.00258769e+00
1.00251228e+00
1.00243593e+00
1.00235879e+00
1.00228101e+00
1.00220274e+00
1.00212414e+00
1.00204535e+00
1.00196650e+00
1.00188775e+00
1.00180920e+00
1.00173099e+00
1.00165322e+00
1.00157600e+00
1.00149941e+00
1.00142354e+00
1.00134845e+00
1.00127419e+00
1.00120080e+00
1.00112832e+00
1.00105676e+00
1.00098612e+00
1.00091639e+00
1.00084756e+00
1.00077959e+00
1.00071244e+00
1.00064606e+00
1.00058041e+00
1.00051542e+00
1.00045103e+00
1.00038718e+00
1.00032381e+00
1.00026084e+00
1.00019822e+00
1.00013589e+00
1.00007380e+00
1.00001191e+00
9.99950166e-01
9.99888542e-01
9.99827011e-01
9.99765554e-01
9.99704158e-01
9.99642818e-01
9.99581534e-01
9.99520312e-01
9.99459163e-01
9.99398103e-01
9.99337149e-01
9.99276323e-01
9.99215646e-01
9.99155143e-01
9.99094839e-01
9.99034760e-01
9.98974932e-01
9.98915380e-01
9.98856133e-01
9.98797218e-01
9.98738663e-01
9.98680499e-01
9.98622760e-01
9.98565478e-01
9.98508693e-01
9.98452446e-01
9.98396781e-01
9.98341749e-01
9.98287402e-01
9.98233798e-01
9.98180999e-01
9.98129072e-01
9.98078084e-01
9.98028110e-01
9.97979224e-01
9.97931502e-01
9.97885022e-01
9.97839865e-01
9.97796107e-01
9.97753820e-01
9.97713084e-01
9.97673977e-01
9.97636551e-01
9.97600867e-01
9.97567013e-01
9.97535045e-01
9.97504953e-01
9.97476813e-01
9.97450756e-01
9.97426720e-01
9.97404629e-01
9.97384720e-01
9.97367063e-01
9.97351347e-01
9.97337734e-01
9.97326477e-01
9.97317238e-01
9.97309740e-01
9.97304132e-01
1.00388753e+00
1.00388239e+00
1.00387521e+00
1.00386610e+00
1.00385473e+00
1.00384096e+00
1.00382498e+00
1.00380661e+00
1.00378574e+00
1.00376251e+00
1.00373686e+00
1.00370866e+00
1.00367795e+00
1.00364475e+00
1.00360899e+00
1.00357066e+00
1.00352980e+00
1.00348641e+00
1.00344049e+00
1.00339208e+00
1.00334122e+00
1.00328797e+00
1.00323237e+00
1.00317450e+00
1.00311445e+00
1.00305230e+00
1.00298815e+00
1.00292212e+00
1.00285432e+00
1.00278488e+00
1.00271393e+00
1.00264160e+00
1.00256805e+00
1.00249340e+00
1.00241782e+00
1.00234146e+00
1.00226445e+00
1.00218696e+00
1.00210912e+00
1.00203108e+00
1.00195298e+00
1.00187495e+00
1.00179712e+00
1.00171960e+00
1.00164250e+00
1.00156593e+00
1.00148997e+00
1.00141470e+00
1.00134019e+00
1.00126649e+00
1.00119364e+00
1.00112167e+00
1.00105059e+00
1.00098042e+00
1.00091113e+00
1.00084273e+00
1.00077517e+00
1.00070842e+00
1.00064244e+00
1.00057717e+00
1.00051256e+00
1.00044855e+00
1.00038508e+00
1.00032209e+00
1.00025952e+00
1.00019730e+00
1.00013539e+00
1.00007374e+00
1.00001229e+00
9.99951019e-01
9.99889885e-01
9.99828864e-01
9.99767939e-01
9.99707099e-01
9.99646336e-01
9.99585654e-01
9.99525056e-01
9.99464554e-01
9.99404161e-01
9.99343896e-01
9.99283777e-01
9.99223828e-01
9.99164069e-01
9.99104527e-01
9.99045223e-01
9.98986184e-01
9.98927434e-01
9.98868998e-01
9.98810904e-01
9.98753177e-01
9.98695846e-01
9.98638942e-01
9.98582498e-01
9.98526550e-01
9.98471137e-01
9.98416301e-01
9.98362091e-01
9.98308556e-01
9.98255752e-01
9.98203739e-01
9.98152581e-01
9.98102344e-01
9.98053098e-01
9.98004918e-01
9.97957878e-01
9.97912054e-01
9.97867522e-01
9.97824362e-01
9.97782647e-01
9.97742446e-01
9.97703836e-01
9.97666894e-01
9.97631667e-01
9.97598208e-01
9.97566605e-01
9.97536909e-01
9.97509109e-01
9.97483277e-01
9.97459523e-01
9.97437781e-01
9.97418030e-01
9.97400474e-01
9.97385057e-01
9.97371635e-01
9.97360430e-01
9.97351337e-01
9.97343998e-01
9.97338597e-01
1.00385322e+00
1.00384825e+00
1.00384127e+00
1.00383212e+00
1.00382076e+00
1.00380722e+00
1.00379130e+00
1.00377292e+00
1.00375225e+00
1.00372921e+00
1.00370365e+00
1.00367564e+00
1.00364519e+00
1.00361222e+00
1.00357672e+00
1.00353872e+00
1.00349822e+00
1.00345520e+00
1.00340970e+00
1.00336175e+00
1.00331139e+00
1.00325867e+00
1.00320364e+00
1.00314638e+00
1.00308696e+00
1.00302548e+00
1.00296204e+00
1.00289673e+00
1.00282969e+00
1.00276102e+00
1.00269086e+00
1.00261934e+00
1.00254661e+00
1.00247279e+00
1.00239805e+00
1.00232252e+00
1.00224635e+00
1.00216969e+00
1.00209268e+00
1.00201546e+00
1.00193816e+00
1.00186092e+00
1.00178386e+00
1.00170710e+00
1.00163073e+00
1.00155487e+00
1.00147959e+00
1.00140498e+00
1.00133110e+00
1.00125800e+00
1.00118573e+00
1.00111431e+00
1.00104376e+00
1.00097410e+00
1.00090530e+00
1.00083736e+00
1.00077025e+00
1.00070394e+00
1.00063839e+00
1.00057354e+00
1.00050935e+00
1.00044576e+00
1.00038270e+00
1.00032014e+00
1.00025799e+00
1.00019622e+00
1.00013477e+00
1.00007359e+00
1.00001263e+00
9.99951873e-01
9.99891273e-01
9.99830810e-01
9.99770467e-01
9.99710233e-01
9.99650102e-01
9.99590076e-01
9.99530160e-01
9.99470364e-01
9.99410701e-01
9.99351189e-01
9.99291845e-01
9.99232690e-01
9.99173746e-01
9.99115035e-01
9.99056580e-01
9.98998404e-01
9.98940530e-01
9.98882981e-01
9.98825783e-01
9.98768960e-01
9.98712539e-01
9.98656549e-01
9.98601019e-01
9.98545984e-01
9.98491480e-01
9.98437548e-01
9.98384232e-01
9.98331581e-01
9.98279648e-01
9.98228490e-01
9.98178167e-01
9.98128745e-01
9.98080291e-01
9.98032877e-01
9.97986575e-01
9.97941462e-01
9.97897609e-01
9.97855093e-01
9.97813993e-01
9.97774379e-01
9.97736314e-01
9.97699873e-01
9.97665135e-01
9.97632139e-01
9.97600928e-01
9.97571598e-01
9.97544197e-01
9.97518690e-01
9.97495158e-01
9.97473725e-01
9.97454301e-01
9.97436858e-01
9.97421608e-01
9.97408523e-01
9.97397427e-01
9.97388371e-01
9.97381326e-01
9.97376158e-01
1.00381646e+00
1.00381154e+00
1.00380463e+00
1.00379559e+00
1.00378436e+00
1.00377087e+00
1.00375500e+00
1.00373681e+00
1.00371630e+00
1.00369334e+00
1.00366797e+00
1.00364020e+00
1.00360996e+00
1.00357723e+00
1.00354205e+00
1.00350439e+00
1.00346424e+00
1.00342162e+00
1.00337658e+00
1.00332912e+00
1.00327928e+00
1.00322712e+00
1.00317270e+00
1.00311609e+00
1.00305735e+00
1.00299659e+00
1.00293389e+00
1.00286936e+00
1.00280312e+00
1.00273528e+00
1.00266596e+00
1.00259531e+00
1.00252345e+00
1.00245053e+00
1.00237668e+00
1.00230205e+00
1.00222678e+00
1.00215101e+00
1.00207489e+00
1.00199854e+00
1.00192211e+00
1.00184572e+00
1.00176948e+00
1.00169352e+00
1.00161794e+00
1.00154284e+00
1.00146830e+00
1.00139439e+00
1.00132119e+00
1.00124875e+00
1.00117710e+00
1.00110628e+00
1.00103630e+00
1.00096718e+00
1.00089892e+00
1.00083148e+00
1.00076486e+00
1.00069903e+00
1.00063394e+00
1.00056954e+00
1.00050580e+00
1.00044266e+00
1.00038006e+00
1.00031795e+00
1.00025628e+00
1.00019498e+00
1.00013402e+00
1.00007335e+00
1.00001293e+00
9.99952724e-01
9.99892701e-01
9.99832840e-01
9.99773125e-01
9.99713545e-01
9.99654096e-01
9.99594779e-01
9.99535598e-01
9.99476563e-01
9.99417688e-01
9.99358987e-01
9.99300478e-01
9.99242181e-01
9.99184115e-01
9.99126302e-01
9.99068763e-01
9.99011518e-01
9.98954589e-01
9.98897999e-01
9.98841768e-01
9.98785921e-01
9.98730482e-01
9.98675476e-01
9.98620932e-01
9.98566882e-01
9.98513358e-01
9.98460400e-01
9.98408049e-01
9.98356351e-01
9.98305355e-01
9.98255116e-01
9.98205693e-01
9.98157148e-01
9.98109546e-01
9.98062956e-01
9.98017448e-01
9.97973096e-01
9.97929976e-01
9.97888156e-01
9.97847712e-01
9.97808721e-01
9.97771252e-01
9.97735362e-01
9.97701125e-01
9.97668617e-01
9.97637874e-01
9.97608934e-01
9.97581887e-01
9.97556777e-01
9.97533579e-01
9.97512368e-01
9.97493231e-01
9.97476106e-01
9.97461026e-01
9.97448101e-01
9.97437247e-01
9.97428400e-01
9.97421506e-01
9.97416470e-01
1.00377724e+00
1.00377241e+00
1.00376555e+00
1.00375666e+00
1.00374554e+00
1.00373209e+00
1.00371636e+00
1.00369834e+00
1.00367792e+00
1.00365512e+00
1.00362998e+00
1.00360241e+00
1.00357239e+00
1.00353996e+00
1.00350509e+00
1.00346777e+00
1.00342800e+00
1.00338583e+00
1.00334125e+00
1.00329430e+00
1.00324502e+00
1.00319346e+00
1.00313968e+00
1.00308375e+00
1.00302573e+00
1.00296572e+00
1.00290381e+00
1.00284011e+00
1.00277472e+00
1.00270775e+00
1.00263934e+00
1.00256960e+00
1.00249867e+00
1.00242669e+00
1.00235379e+00
1.00228012e+00
1.00220580e+00
1.00213098e+00
1.00205580e+00
1.00198039e+00
1.00190487e+00
1.00182938e+00
1.00175403e+00
1.00167893e+00
1.00160419e+00
1.00152989e+00
1.00145613e+00
1.00138298e+00
1.00131051e+00
1.00123876e+00
1.00116778e+00
1.00109760e+00
1.00102824e+00
1.00095970e+00
1.00089200e+00
1.00082511e+00
1.00075901e+00
1.00069369e+00
1.00062909e+00
1.00056519e+00
1.00050194e+00
1.00043928e+00
1.00037716e+00
1.00031554e+00
1.00025437e+00
1.00019359e+00
1.00013316e+00
1.00007304e+00
1.00001318e+00
9.99953568e-01
9.99894161e-01
9.99834943e-01
9.99775898e-01
9.99717017e-01
9.99658296e-01
9.99599734e-01
9.99541338e-01
9.99483116e-01
9.99425080e-01
9.99367246e-01
9.99309629e-01
9.99252247e-01
9.99195119e-01
9.99138265e-01
9.99081703e-01
9.99025453e-01
9.98969535e-01
9.98913968e-01
9.98858772e-01
9.98803968e-01
9.98749578e-01
9.98695626e-01
9.98642136e-01
9.98589139e-01
9.98536664e-01
9.98484747e-01
9.98433428e-01
9.98382748e-01
9.98332754e-01
9.98283500e-01
9.98235039e-01
9.98187431e-01
9.98140739e-01
9.98095030e-01
9.98050373e-01
9.98006836e-01
9.97964494e-01
9.97923420e-01
9.97883684e-01
9.97845355e-01
9.97808513e-01
9.97773222e-01
9.97739536e-01
9.97707526e-01
9.97677268e-01
9.97648790e-01
9.97622128e-01
9.97597376e-01
9.97574565e-01
9.97553666e-01
9.97534770e-01
9.97517950e-01
9.97503142e-01
9.97490379e-01
9.97479745e-01
9.97471150e-01
9.97464415e-01
9.97459539e-01
1.00373566e+00
1.00373097e+00
1.00372425e+00
1.00371544e+00
1.00370440e+00
1.00369110e+00
1.00367551e+00
1.00365758e+00
1.00363732e+00
1.00361473e+00
1.00358977e+00
1.00356241e+00
1.00353267e+00
1.00350053e+00
1.00346597e+00
1.00342901e+00
1.00338967e+00
1.00334794e+00
1.00330385e+00
1.00325744e+00
1.00320874e+00
1.00315781e+00
1.00310470e+00
1.00304948e+00
1.00299222e+00
1.00293301e+00
1.00287193e+00
1.00280909e+00
1.00274459e+00
1.00267855e+00
1.00261108e+00
1.00254231e+00
1.00247236e+00
1.00240137e+00
1.00232948e+00
1.00225680e+00
1.00218349e+00
1.00210968e+00
1.00203549e+00
1.00196106e+00
1.00188651e+00
1.00181197e+00
1.00173755e+00
1.00166336e+00
1.00158950e+00
1.00151607e+00
1.00144314e+00
1.00137079e+00
1.00129908e+00
1.00122807e+00
1.00115780e+00
1.00108830e+00
1.00101959e+00
1.00095168e+00
1.00088457e+00
1.00081826e+00
1.00075273e+00
1.00068795e+00
1.00062388e+00
1.00056050e+00
1.00049776e+00
1.00043562e+00
1.00037402e+00
1.00031292e+00
1.00025228e+00
1.00019205e+00
1.00013218e+00
1.00007264e+00
1.00001339e+00
9.99954399e-01
9.99895645e-01
9.99837107e-01
9.99778771e-01
9.99720628e-01
9.99662675e-01
9.99604913e-01
9.99547345e-01
9.99489982e-01
9.99432834e-01
9.99375914e-01
9.99319240e-01
9.99262826e-01
9.99206690e-01
9.99150850e-01
9.99095322e-01
9.99040126e-01
9.98985277e-01
9.98930794e-01
9.98876693e-01
9.98822994e-01
9.98769716e-01
9.98716880e-01
9.98664509e-01
9.98612627e-01
9.98561265e-01
9.98510453e-01
9.98460228e-01
9.98410628e-01
9.98361699e-01
9.98313488e-01
9.98266048e-01
9.98219436e-01
9.98173711e-01
9.98128938e-01
9.98085182e-01
9.98042513e-01
9.98001000e-01
9.97960714e-01
9.97921730e-01
9.97884115e-01
9.97847936e-01
9.97813270e-01
9.97780182e-01
9.97748720e-01
9.97718953e-01
9.97690954e-01
9.97664750e-01
9.97640377e-01
9.97617917e-01
9.97597399e-01
9.97578815e-01
9.97562240e-01
9.97547716e-01
9.97535228e-01
9.97524794e-01
9.97516389e-01
9.97509895e-01
9.97505253e-01
1.00369194e+00
1.00368739e+00
1.00368081e+00
1.00367210e+00
1.00366117e+00
1.00364801e+00
1.00363254e+00
1.00361475e+00
1.00359467e+00
1.00357226e+00
1.00354749e+00
1.00352038e+00
1.00349092e+00
1.00345907e+00
1.00342485e+00
1.00338828e+00
1.00334936e+00
1.00330809e+00
1.00326452e+00
1.00321868e+00
1.00317059e+00
1.00312031e+00
1.00306791e+00
1.00301343e+00
1.00295696e+00
1.00289858e+00
1.00283837e+00
1.00277643e+00
1.00271287e+00
1.00264779e+00
1.00258131e+00
1.00251354e+00
1.00244462e+00
1.00237467e+00
1.00230382e+00
1.00223220e+00
1.00215994e+00
1.00208718e+00
1.00201403e+00
1.00194063e+00
1.00186710e+00
1.00179356e+00
1.00172012e+00
1.00164688e+00
1.00157395e+00
1.00150142e+00
1.00142936e+00
1.00135785e+00
1.00128695e+00
1.00121672e+00
1.00114720e+00
1.00107841e+00
1.00101039e+00
1.00094315e+00
1.00087668e+00
1.00081098e+00
1.00074603e+00
1.00068183e+00
1.00061832e+00
1.00055550e+00
1.00049330e+00
1.00043170e+00
1.00037065e+00
1.00031011e+00
1.00025003e+00