# vtk DataFile Version 2.0
LBM Flow Field - Timestep 2000
ASCII
DATASET STRUCTURED_POINTS
DIMENSIONS 128 128 1
ORIGIN 0.0 0.0 0.0
SPACING 1.0 1.0 1.0
POINT_DATA 16384
SCALARS density double 1
LOOKUP_TABLE default
9.99624299e-01
9.99635835e-01
9.99650556e-01
9.99658872e-01
9.99670728e-01
9.99686880e-01
9.99704915e-01
9.99724833e-01
9.99747401e-01
9.99772249e-01
9.99798903e-01
9.99827261e-01
9.99857168e-01
9.99888318e-01
9.99920444e-01
9.99953329e-01
9.99986730e-01
1.00002040e+00
1.00005411e+00
1.00008764e+00
1.00012079e+00
1.00015337e+00
1.00018520e+00
1.00021612e+00
1.00024600e+00
1.00027471e+00
1.00030214e+00
1.00032820e+00
1.00035280e+00
1.00037589e+00
1.00039742e+00
1.00041733e+00
1.00043561e+00
1.00045222e+00
1.00046717e+00
1.00048044e+00
1.00049204e+00
1.00050197e+00
1.00051026e+00
1.00051691e+00
1.00052195e+00
1.00052540e+00
1.00052730e+00
1.00052767e+00
1.00052656e+00
1.00052399e+00
1.00052001e+00
1.00051466e+00
1.00050798e+00
1.00050003e+00
1.00049087e+00
1.00048056e+00
1.00046915e+00
1.00045674e+00
1.00044340e+00
1.00042923e+00
1.00041433e+00
1.00039880e+00
1.00038276e+00
1.00036635e+00
1.00034968e+00
1.00033289e+00
1.00031613e+00
1.00029953e+00
1.00028323e+00
1.00026738e+00
1.00025209e+00
1.00023749e+00
1.00022369e+00
1.00021079e+00
1.00019887e+00
1.00018800e+00
1.00017823e+00
1.00016959e+00
1.00016212e+00
1.00015580e+00
1.00015064e+00
1.00014662e+00
1.00014371e+00
1.00014188e+00
1.00014110e+00
1.00014134e+00
1.00014258e+00
1.00014480e+00
1.00014801e+00
1.00015223e+00
1.00015748e+00
1.00016381e+00
1.00017131e+00
1.00018006e+00
1.00019017e+00
1.00020177e+00
1.00021499e+00
1.00023000e+00
1.00024696e+00
1.00026601e+00
1.00028731e+00
1.00031103e+00
1.00033728e+00
1.00036619e+00
1.00039784e+00
1.00043229e+00
1.00046956e+00
1.00050963e+00
1.00055244e+00
1.00059789e+00
1.00064581e+00
1.00069600e+00
1.00074819e+00
1.00080209e+00
1.00085733e+00
1.00091353e+00
1.00097024e+00
1.00102698e+00
1.00108325e+00
1.00113856e+00
1.00119235e+00
1.00124404e+00
1.00129314e+00
1.00133923e+00
1.00138161e+00
1.00141968e+00
1.00145376e+00
1.00148375e+00
1.00150712e+00
1.00152392e+00
1.00154514e+00
1.00156104e+00
9.99636598e-01
9.99642098e-01
9.99653498e-01
9.99663159e-01
9.99675739e-01
9.99691201e-01
9.99709185e-01
9.99729387e-01
9.99751908e-01
9.99776577e-01
9.99803160e-01
9.99831428e-01
9.99861165e-01
9.99892129e-01
9.99924071e-01
9.99956746e-01
9.99989913e-01
1.00002334e+00
1.00005679e+00
1.00009006e+00
1.00012293e+00
1.00015524e+00
1.00018679e+00
1.00021744e+00
1.00024704e+00
1.00027549e+00
1.00030266e+00
1.00032846e+00
1.00035283e+00
1.00037569e+00
1.00039699e+00
1.00041670e+00
1.00043478e+00
1.00045122e+00
1.00046600e+00
1.00047911e+00
1.00049057e+00
1.00050037e+00
1.00050854e+00
1.00051509e+00
1.00052003e+00
1.00052341e+00
1.00052524e+00
1.00052556e+00
1.00052440e+00
1.00052180e+00
1.00051780e+00
1.00051245e+00
1.00050578e+00
1.00049786e+00
1.00048874e+00
1.00047848e+00
1.00046715e+00
1.00045483e+00
1.00044160e+00
1.00042755e+00
1.00041279e+00
1.00039743e+00
1.00038157e+00
1.00036534e+00
1.00034888e+00
1.00033231e+00
1.00031578e+00
1.00029942e+00
1.00028337e+00
1.00026776e+00
1.00025272e+00
1.00023836e+00
1.00022479e+00
1.00021211e+00
1.00020039e+00
1.00018971e+00
1.00018011e+00
1.00017163e+00
1.00016428e+00
1.00015807e+00
1.00015298e+00
1.00014901e+00
1.00014613e+00
1.00014431e+00
1.00014351e+00
1.00014371e+00
1.00014490e+00
1.00014706e+00
1.00015020e+00
1.00015432e+00
1.00015948e+00
1.00016572e+00
1.00017311e+00
1.00018176e+00
1.00019177e+00
1.00020326e+00
1.00021639e+00
1.00023130e+00
1.00024814e+00
1.00026708e+00
1.00028828e+00
1.00031187e+00
1.00033799e+00
1.00036674e+00
1.00039822e+00
1.00043248e+00
1.00046954e+00
1.00050937e+00
1.00055191e+00
1.00059706e+00
1.00064465e+00
1.00069447e+00
1.00074627e+00
1.00079975e+00
1.00085454e+00
1.00091026e+00
1.00096648e+00
1.00102272e+00
1.00107849e+00
1.00113328e+00
1.00118655e+00
1.00123778e+00
1.00128644e+00
1.00133202e+00
1.00137401e+00
1.00141201e+00
1.00144577e+00
1.00147479e+00
1.00149862e+00
1.00151684e+00
1.00153462e+00
1.00154373e+00
9.99650502e-01
9.99652302e-01
9.99655812e-01
9.99667443e-01
9.99681326e-01
9.99695830e-01
9.99713431e-01
9.99733965e-01
9.99756480e-01
9.99780936e-01
9.99807423e-01
9.99835611e-01
9.99865183e-01
9.99895957e-01
9.99927708e-01
9.99960164e-01
9.99993082e-01
1.00002624e+00
1.00005941e+00
1.00009238e+00
1.00012495e+00
1.00015693e+00
1.00018816e+00
1.00021848e+00
1.00024775e+00
1.00027586e+00
1.00030271e+00
1.00032820e+00
1.00035225e+00
1.00037481e+00
1.00039582e+00
1.00041525e+00
1.00043307e+00
1.00044926e+00
1.00046381e+00
1.00047670e+00
1.00048796e+00
1.00049757e+00
1.00050557e+00
1.00051196e+00
1.00051677e+00
1.00052003e+00
1.00052176e+00
1.00052199e+00
1.00052076e+00
1.00051812e+00
1.00051409e+00
1.00050873e+00
1.00050208e+00
1.00049419e+00
1.00048513e+00
1.00047495e+00
1.00046373e+00
1.00045154e+00
1.00043846e+00
1.00042460e+00
1.00041005e+00
1.00039491e+00
1.00037930e+00
1.00036336e+00
1.00034719e+00
1.00033094e+00
1.00031474e+00
1.00029872e+00
1.00028302e+00
1.00026777e+00
1.00025308e+00
1.00023908e+00
1.00022586e+00
1.00021352e+00
1.00020213e+00
1.00019176e+00
1.00018245e+00
1.00017422e+00
1.00016711e+00
1.00016110e+00
1.00015619e+00
1.00015236e+00
1.00014958e+00
1.00014784e+00
1.00014709e+00
1.00014731e+00
1.00014848e+00
1.00015060e+00
1.00015368e+00
1.00015772e+00
1.00016278e+00
1.00016890e+00
1.00017617e+00
1.00018467e+00
1.00019453e+00
1.00020587e+00
1.00021884e+00
1.00023358e+00
1.00025024e+00
1.00026900e+00
1.00029000e+00
1.00031338e+00
1.00033928e+00
1.00036780e+00
1.00039903e+00
1.00043301e+00
1.00046977e+00
1.00050928e+00
1.00055147e+00
1.00059624e+00
1.00064343e+00
1.00069282e+00
1.00074416e+00
1.00079715e+00
1.00085144e+00
1.00090663e+00
1.00096230e+00
1.00101798e+00
1.00107320e+00
1.00112742e+00
1.00118013e+00
1.00123085e+00
1.00127901e+00
1.00132402e+00
1.00136562e+00
1.00140348e+00
1.00143659e+00
1.00146446e+00
1.00148927e+00
1.00150935e+00
1.00151838e+00
1.00152344e+00
9.99655099e-01
9.99657529e-01
9.99663210e-01
9.99673371e-01
9.99685410e-01
9.99700469e-01
9.99718379e-01
9.99738487e-01
9.99760800e-01
9.99785279e-01
9.99811632e-01
9.99839602e-01
9.99869002e-01
9.99899588e-01
9.99931099e-01
9.99963296e-01
9.99995945e-01
1.00002881e+00
1.00006167e+00
1.00009430e+00
1.00012653e+00
1.00015816e+00
1.00018902e+00
1.00021897e+00
1.00024788e+00
1.00027562e+00
1.00030209e+00
1.00032722e+00
1.00035091e+00
1.00037312e+00
1.00039380e+00
1.00041290e+00
1.00043041e+00
1.00044630e+00
1.00046056e+00
1.00047319e+00
1.00048420e+00
1.00049358e+00
1.00050137e+00
1.00050757e+00
1.00051220e+00
1.00051531e+00
1.00051691e+00
1.00051703e+00
1.00051572e+00
1.00051302e+00
1.00050896e+00
1.00050359e+00
1.00049696e+00
1.00048912e+00
1.00048014e+00
1.00047007e+00
1.00045899e+00
1.00044697e+00
1.00043411e+00
1.00042048e+00
1.00040620e+00
1.00039136e+00
1.00037609e+00
1.00036050e+00
1.00034472e+00
1.00032887e+00
1.00031310e+00
1.00029752e+00
1.00028228e+00
1.00026748e+00
1.00025326e+00
1.00023972e+00
1.00022695e+00
1.00021505e+00
1.00020408e+00
1.00019411e+00
1.00018517e+00
1.00017729e+00
1.00017049e+00
1.00016476e+00
1.00016009e+00
1.00015646e+00
1.00015385e+00
1.00015223e+00
1.00015157e+00
1.00015185e+00
1.00015305e+00
1.00015516e+00
1.00015820e+00
1.00016218e+00
1.00016715e+00
1.00017317e+00
1.00018031e+00
1.00018868e+00
1.00019839e+00
1.00020956e+00
1.00022234e+00
1.00023689e+00
1.00025336e+00
1.00027190e+00
1.00029266e+00
1.00031580e+00
1.00034143e+00
1.00036966e+00
1.00040058e+00
1.00043423e+00
1.00047063e+00
1.00050975e+00
1.00055153e+00
1.00059585e+00
1.00064255e+00
1.00069143e+00
1.00074223e+00
1.00079465e+00
1.00084834e+00
1.00090293e+00
1.00095797e+00
1.00101301e+00
1.00106758e+00
1.00112118e+00
1.00117327e+00
1.00122334e+00
1.00127091e+00
1.00131547e+00
1.00135646e+00
1.00139358e+00
1.00142661e+00
1.00145462e+00
1.00147724e+00
1.00149579e+00
1.00150730e+00
1.00151270e+00
9.99660139e-01
9.99663390e-01
9.99670184e-01
9.99678363e-01
9.99689990e-01
9.99705620e-01
9.99723212e-01
9.99742900e-01
9.99765162e-01
9.99789564e-01
9.99815681e-01
9.99843427e-01
9.99872626e-01
9.99902968e-01
9.99934199e-01
9.99966102e-01
9.99998438e-01
1.00003096e+00
1.00006346e+00
1.00009573e+00
1.00012757e+00
1.00015880e+00
1.00018925e+00
1.00021879e+00
1.00024728e+00
1.00027460e+00
1.00030066e+00
1.00032537e+00
1.00034866e+00
1.00037047e+00
1.00039076e+00
1.00040949e+00
1.00042664e+00
1.00044219e+00
1.00045613e+00
1.00046845e+00
1.00047917e+00
1.00048829e+00
1.00049583e+00
1.00050180e+00
1.00050624e+00
1.00050917e+00
1.00051062e+00
1.00051062e+00
1.00050922e+00
1.00050645e+00
1.00050235e+00
1.00049698e+00
1.00049039e+00
1.00048262e+00
1.00047374e+00
1.00046381e+00
1.00045291e+00
1.00044112e+00
1.00042851e+00
1.00041519e+00
1.00040124e+00
1.00038678e+00
1.00037192e+00
1.00035678e+00
1.00034147e+00
1.00032613e+00
1.00031088e+00
1.00029585e+00
1.00028116e+00
1.00026693e+00
1.00025328e+00
1.00024030e+00
1.00022809e+00
1.00021673e+00
1.00020629e+00
1.00019681e+00
1.00018834e+00
1.00018089e+00
1.00017448e+00
1.00016910e+00
1.00016474e+00
1.00016138e+00
1.00015900e+00
1.00015756e+00
1.00015703e+00
1.00015740e+00
1.00015866e+00
1.00016079e+00
1.00016382e+00
1.00016776e+00
1.00017266e+00
1.00017859e+00
1.00018562e+00
1.00019385e+00
1.00020340e+00
1.00021441e+00
1.00022701e+00
1.00024135e+00
1.00025760e+00
1.00027590e+00
1.00029642e+00
1.00031928e+00
1.00034461e+00
1.00037252e+00
1.00040309e+00
1.00043636e+00
1.00047234e+00
1.00051101e+00
1.00055230e+00
1.00059610e+00
1.00064224e+00
1.00069053e+00
1.00074070e+00
1.00079246e+00
1.00084546e+00
1.00089933e+00
1.00095365e+00
1.00100795e+00
1.00106177e+00
1.00111461e+00
1.00116598e+00
1.00121532e+00
1.00126216e+00
1.00130611e+00
1.00134656e+00
1.00138285e+00
1.00141512e+00
1.00144336e+00
1.00146542e+00
1.00148159e+00
1.00149382e+00
1.00150017e+00
9.99666529e-01
9.99669066e-01
9.99674877e-01
9.99683608e-01
9.99695762e-01
9.99710405e-01
9.99727533e-01
9.99747442e-01
9.99769557e-01
9.99793579e-01
9.99819490e-01
9.99847068e-01
9.99875987e-01
9.99906019e-01
9.99936952e-01
9.99968528e-01
1.00000050e+00
1.00003265e+00
1.00006475e+00
1.00009660e+00
1.00012800e+00
1.00015878e+00
1.00018878e+00
1.00021785e+00
1.00024587e+00
1.00027273e+00
1.00029832e+00
1.00032257e+00
1.00034540e+00
1.00036677e+00
1.00038663e+00
1.00040494e+00
1.00042169e+00
1.00043685e+00
1.00045042e+00
1.00046240e+00
1.00047279e+00
1.00048161e+00
1.00048887e+00
1.00049460e+00
1.00049882e+00
1.00050155e+00
1.00050284e+00
1.00050271e+00
1.00050121e+00
1.00049837e+00
1.00049425e+00
1.00048889e+00
1.00048234e+00
1.00047467e+00
1.00046592e+00
1.00045618e+00
1.00044551e+00
1.00043398e+00
1.00042169e+00
1.00040873e+00
1.00039520e+00
1.00038119e+00
1.00036683e+00
1.00035221e+00
1.00033748e+00
1.00032274e+00
1.00030812e+00
1.00029374e+00
1.00027971e+00
1.00026616e+00
1.00025318e+00
1.00024088e+00
1.00022933e+00
1.00021862e+00
1.00020879e+00
1.00019991e+00
1.00019199e+00
1.00018507e+00
1.00017913e+00
1.00017419e+00
1.00017021e+00
1.00016718e+00
1.00016508e+00
1.00016387e+00
1.00016354e+00
1.00016405e+00
1.00016540e+00
1.00016759e+00
1.00017063e+00
1.00017455e+00
1.00017940e+00
1.00018524e+00
1.00019216e+00
1.00020027e+00
1.00020967e+00
1.00022050e+00
1.00023291e+00
1.00024704e+00
1.00026305e+00
1.00028110e+00
1.00030134e+00
1.00032389e+00
1.00034889e+00
1.00037644e+00
1.00040661e+00
1.00043944e+00
1.00047496e+00
1.00051312e+00
1.00055385e+00
1.00059706e+00
1.00064256e+00
1.00069017e+00
1.00073963e+00
1.00079063e+00
1.00084285e+00
1.00089591e+00
1.00094939e+00
1.00100285e+00
1.00105581e+00
1.00110779e+00
1.00115831e+00
1.00120687e+00
1.00125292e+00
1.00129597e+00
1.00133574e+00
1.00137169e+00
1.00140306e+00
1.00142997e+00
1.00145223e+00
1.00146868e+00
1.00147982e+00
1.00148538e+00
9.99672264e-01
9.99674667e-01
9.99679950e-01
9.99688931e-01
9.99700729e-01
9.99714895e-01
9.99732087e-01
9.99751822e-01
9.99773555e-01
9.99797358e-01
9.99823088e-01
9.99850372e-01
9.99878966e-01
9.99908689e-01
9.99939282e-01
9.99970478e-01
1.00000205e+00
1.00003378e+00
1.00006544e+00
1.00009682e+00
1.00012775e+00
1.00015804e+00
1.00018753e+00
1.00021609e+00
1.00024360e+00
1.00026993e+00
1.00029501e+00
1.00031875e+00
1.00034108e+00
1.00036195e+00
1.00038133e+00
1.00039918e+00
1.00041548e+00
1.00043021e+00
1.00044338e+00
1.00045498e+00
1.00046501e+00
1.00047350e+00
1.00048047e+00
1.00048592e+00
1.00048990e+00
1.00049243e+00
1.00049354e+00
1.00049328e+00
1.00049168e+00
1.00048879e+00
1.00048465e+00
1.00047932e+00
1.00047285e+00
1.00046529e+00
1.00045672e+00
1.00044720e+00
1.00043680e+00
1.00042561e+00
1.00041370e+00
1.00040117e+00
1.00038812e+00
1.00037465e+00
1.00036086e+00
1.00034688e+00
1.00033281e+00
1.00031877e+00
1.00030488e+00
1.00029125e+00
1.00027800e+00
1.00026522e+00
1.00025303e+00
1.00024150e+00
1.00023072e+00
1.00022076e+00
1.00021165e+00
1.00020346e+00
1.00019619e+00
1.00018987e+00
1.00018449e+00
1.00018005e+00
1.00017653e+00
1.00017390e+00
1.00017214e+00
1.00017122e+00
1.00017112e+00
1.00017181e+00
1.00017329e+00
1.00017557e+00
1.00017865e+00
1.00018257e+00
1.00018739e+00
1.00019316e+00
1.00019999e+00
1.00020797e+00
1.00021722e+00
1.00022787e+00
1.00024008e+00
1.00025399e+00
1.00026975e+00
1.00028753e+00
1.00030746e+00
1.00032968e+00
1.00035432e+00
1.00038146e+00
1.00041119e+00
1.00044354e+00
1.00047853e+00
1.00051612e+00
1.00055624e+00
1.00059877e+00
1.00064357e+00
1.00069042e+00
1.00073907e+00
1.00078923e+00
1.00084058e+00
1.00089273e+00
1.00094527e+00
1.00099778e+00
1.00104980e+00
1.00110084e+00
1.00115039e+00
1.00119802e+00
1.00124323e+00
1.00128544e+00
1.00132425e+00
1.00135947e+00
1.00139044e+00
1.00141646e+00
1.00143793e+00
1.00145434e+00
1.00146482e+00
1.00147013e+00
9.99677196e-01
9.99679693e-01
9.99685249e-01
9.99693755e-01
9.99705087e-01
9.99719441e-01
9.99736449e-01
9.99755667e-01
9.99777206e-01
9.99800875e-01
9.99826267e-01
9.99853192e-01
9.99881489e-01
9.99910870e-01
9.99941061e-01
9.99971843e-01
1.00000299e+00
1.00003425e+00
1.00006543e+00
1.00009631e+00
1.00012671e+00
1.00015647e+00
1.00018541e+00
1.00021342e+00
1.00024036e+00
1.00026614e+00
1.00029065e+00
1.00031383e+00
1.00033562e+00
1.00035596e+00
1.00037482e+00
1.00039217e+00
1.00040798e+00
1.00042225e+00
1.00043498e+00
1.00044617e+00
1.00045582e+00
1.00046396e+00
1.00047060e+00
1.00047577e+00
1.00047949e+00
1.00048181e+00
1.00048274e+00
1.00048235e+00
1.00048066e+00
1.00047772e+00
1.00047359e+00
1.00046831e+00
1.00046194e+00
1.00045454e+00
1.00044619e+00
1.00043693e+00
1.00042687e+00
1.00041606e+00
1.00040460e+00
1.00039257e+00
1.00038008e+00
1.00036723e+00
1.00035411e+00
1.00034084e+00
1.00032753e+00
1.00031429e+00
1.00030123e+00
1.00028845e+00
1.00027607e+00
1.00026418e+00
1.00025288e+00
1.00024223e+00
1.00023232e+00
1.00022319e+00
1.00021491e+00
1.00020749e+00
1.00020096e+00
1.00019532e+00
1.00019058e+00
1.00018672e+00
1.00018371e+00
1.00018155e+00
1.00018018e+00
1.00017960e+00
1.00017977e+00
1.00018069e+00
1.00018233e+00
1.00018472e+00
1.00018787e+00
1.00019182e+00
1.00019662e+00
1.00020235e+00
1.00020909e+00
1.00021695e+00
1.00022606e+00
1.00023654e+00
1.00024854e+00
1.00026222e+00
1.00027772e+00
1.00029521e+00
1.00031482e+00
1.00033668e+00
1.00036092e+00
1.00038763e+00
1.00041688e+00
1.00044871e+00
1.00048312e+00
1.00052008e+00
1.00055952e+00
1.00060132e+00
1.00064534e+00
1.00069135e+00
1.00073912e+00
1.00078836e+00
1.00083874e+00
1.00088989e+00
1.00094142e+00
1.00099289e+00
1.00104385e+00
1.00109385e+00
1.00114239e+00
1.00118897e+00
1.00123316e+00
1.00127454e+00
1.00131251e+00
1.00134667e+00
1.00137691e+00
1.00140260e+00
1.00142327e+00
1.00143897e+00
1.00144948e+00
1.00145470e+00
9.99682137e-01
9.99684490e-01
9.99689910e-01
9.99698109e-01
9.99709347e-01
9.99723530e-01
9.99740135e-01
9.99759149e-01
9.99780511e-01
9.99803821e-01
9.99828860e-01
9.99855491e-01
9.99883433e-01
9.99912399e-01
9.99942170e-01
9.99972515e-01
1.00000318e+00
1.00003395e+00
1.00006460e+00
1.00009494e+00
1.00012478e+00
1.00015396e+00
1.00018232e+00
1.00020973e+00
1.00023607e+00
1.00026124e+00
1.00028516e+00
1.00030775e+00
1.00032895e+00
1.00034872e+00
1.00036702e+00
1.00038383e+00
1.00039913e+00
1.00041291e+00
1.00042517e+00
1.00043593e+00
1.00044518e+00
1.00045295e+00
1.00045925e+00
1.00046413e+00
1.00046760e+00
1.00046970e+00
1.00047046e+00
1.00046994e+00
1.00046818e+00
1.00046521e+00
1.00046111e+00
1.00045591e+00
1.00044968e+00
1.00044248e+00
1.00043439e+00
1.00042546e+00
1.00041577e+00
1.00040542e+00
1.00039447e+00
1.00038302e+00
1.00037117e+00
1.00035901e+00
1.00034665e+00
1.00033419e+00
1.00032173e+00
1.00030938e+00
1.00029724e+00
1.00028543e+00
1.00027402e+00
1.00026311e+00
1.00025279e+00
1.00024312e+00
1.00023416e+00
1.00022597e+00
1.00021859e+00
1.00021203e+00
1.00020632e+00
1.00020145e+00
1.00019741e+00
1.00019419e+00
1.00019177e+00
1.00019011e+00
1.00018920e+00
1.00018900e+00
1.00018949e+00
1.00019067e+00
1.00019252e+00
1.00019505e+00
1.00019830e+00
1.00020230e+00
1.00020711e+00
1.00021280e+00
1.00021947e+00
1.00022722e+00
1.00023619e+00
1.00024650e+00
1.00025831e+00
1.00027175e+00
1.00028699e+00
1.00030418e+00
1.00032345e+00
1.00034494e+00
1.00036876e+00
1.00039501e+00
1.00042374e+00
1.00045500e+00
1.00048880e+00
1.00052508e+00
1.00056379e+00
1.00060481e+00
1.00064797e+00
1.00069308e+00
1.00073990e+00
1.00078813e+00
1.00083747e+00
1.00088754e+00
1.00093795e+00
1.00098830e+00
1.00103812e+00
1.00108697e+00
1.00113440e+00
1.00117992e+00
1.00122302e+00
1.00126333e+00
1.00130043e+00
1.00133375e+00
1.00136302e+00
1.00138805e+00
1.00140822e+00
1.00142330e+00
1.00143343e+00
1.00143843e+00
9.99686718e-01
9.99688768e-01
9.99693871e-01
9.99702025e-01
9.99713136e-01
9.99726898e-01
9.99743260e-01
9.99762130e-01
9.99783129e-01
9.99806060e-01
9.99830814e-01
9.99857092e-01
9.99884603e-01
9.99913143e-01
9.99942479e-01
9.99972340e-01
1.00000249e+00
1.00003272e+00
1.00006282e+00
1.00009258e+00
1.00012183e+00
1.00015039e+00
1.00017813e+00
1.00020490e+00
1.00023061e+00
1.00025514e+00
1.00027842e+00
1.00030038e+00
1.00032097e+00
1.00034014e+00
1.00035785e+00
1.00037410e+00
1.00038886e+00
1.00040213e+00
1.00041391e+00
1.00042422e+00
1.00043305e+00
1.00044045e+00
1.00044642e+00
1.00045099e+00
1.00045421e+00
1.00045610e+00
1.00045671e+00
1.00045609e+00
1.00045427e+00
1.00045130e+00
1.00044726e+00
1.00044218e+00
1.00043613e+00
1.00042918e+00
1.00042139e+00
1.00041284e+00
1.00040361e+00
1.00039376e+00
1.00038340e+00
1.00037261e+00
1.00036147e+00
1.00035010e+00
1.00033857e+00
1.00032700e+00
1.00031549e+00
1.00030413e+00
1.00029301e+00
1.00028224e+00
1.00027190e+00
1.00026207e+00
1.00025282e+00
1.00024422e+00
1.00023631e+00
1.00022914e+00
1.00022274e+00
1.00021712e+00
1.00021230e+00
1.00020826e+00
1.00020499e+00
1.00020248e+00
1.00020069e+00
1.00019960e+00
1.00019919e+00
1.00019942e+00
1.00020028e+00
1.00020175e+00
1.00020383e+00
1.00020655e+00
1.00020992e+00
1.00021400e+00
1.00021883e+00
1.00022451e+00
1.00023113e+00
1.00023880e+00
1.00024764e+00
1.00025779e+00
1.00026941e+00
1.00028262e+00
1.00029760e+00
1.00031449e+00
1.00033341e+00
1.00035452e+00
1.00037791e+00
1.00040367e+00
1.00043186e+00
1.00046253e+00
1.00049566e+00
1.00053123e+00
1.00056916e+00
1.00060933e+00
1.00065159e+00
1.00069574e+00
1.00074153e+00
1.00078869e+00
1.00083691e+00
1.00088582e+00
1.00093504e+00
1.00098418e+00
1.00103280e+00
1.00108043e+00
1.00112664e+00
1.00117098e+00
1.00121299e+00
1.00125217e+00
1.00128820e+00
1.00132068e+00
1.00134911e+00
1.00137323e+00
1.00139283e+00
1.00140750e+00
1.00141715e+00
1.00142174e+00
9.99690522e-01
9.99692389e-01
9.99697284e-01
9.99705233e-01
9.99716054e-01
9.99729573e-01
9.99745734e-01
9.99764254e-01
9.99784893e-01
9.99807538e-01
9.99831927e-01
9.99857770e-01
9.99884861e-01
9.99912965e-01
9.99941807e-01
9.99971147e-01
1.00000076e+00
1.00003043e+00
1.00005994e+00
1.00008909e+00
1.00011770e+00
1.00014562e+00
1.00017270e+00
1.00019881e+00
1.00022385e+00
1.00024772e+00
1.00027033e+00
1.00029164e+00
1.00031158e+00
1.00033013e+00
1.00034724e+00
1.00036290e+00
1.00037711e+00
1.00038985e+00
1.00040114e+00
1.00041099e+00
1.00041941e+00
1.00042643e+00
1.00043206e+00
1.00043635e+00
1.00043933e+00
1.00044104e+00
1.00044151e+00
1.00044080e+00
1.00043896e+00
1.00043603e+00
1.00043208e+00
1.00042717e+00
1.00042135e+00
1.00041470e+00
1.00040728e+00
1.00039917e+00
1.00039045e+00
1.00038119e+00
1.00037149e+00
1.00036142e+00
1.00035109e+00
1.00034057e+00
1.00032997e+00
1.00031939e+00
1.00030890e+00
1.00029862e+00
1.00028861e+00
1.00027898e+00
1.00026979e+00
1.00026112e+00
1.00025304e+00
1.00024558e+00
1.00023881e+00
1.00023274e+00
1.00022740e+00
1.00022279e+00
1.00021892e+00
1.00021578e+00
1.00021334e+00
1.00021159e+00
1.00021050e+00
1.00021003e+00
1.00021015e+00
1.00021086e+00
1.00021211e+00
1.00021392e+00
1.00021628e+00
1.00021921e+00
1.00022274e+00
1.00022692e+00
1.00023181e+00
1.00023750e+00
1.00024409e+00
1.00025169e+00
1.00026043e+00
1.00027044e+00
1.00028187e+00
1.00029487e+00
1.00030959e+00
1.00032618e+00
1.00034477e+00
1.00036548e+00
1.00038843e+00
1.00041369e+00
1.00044133e+00
1.00047137e+00
1.00050382e+00
1.00053864e+00
1.00057575e+00
1.00061503e+00
1.00065633e+00
1.00069946e+00
1.00074417e+00
1.00079019e+00
1.00083722e+00
1.00088490e+00
1.00093287e+00
1.00098072e+00
1.00102804e+00
1.00107440e+00
1.00111933e+00
1.00116241e+00
1.00120321e+00
1.00124129e+00
1.00127620e+00
1.00130763e+00
1.00133522e+00
1.00135855e+00
1.00137741e+00
1.00139154e+00
1.00140075e+00
1.00140502e+00
9.99693435e-01
9.99695103e-01
9.99699836e-01
9.99707505e-01
9.99718053e-01
9.99731373e-01
9.99747220e-01
9.99765369e-01
9.99785711e-01
9.99808004e-01
9.99831958e-01
9.99857379e-01
9.99884037e-01
9.99911649e-01
9.99939968e-01
9.99968772e-01
9.99997824e-01
1.00002689e+00
1.00005578e+00
1.00008429e+00
1.00011224e+00
1.00013949e+00
1.00016589e+00
1.00019131e+00
1.00021565e+00
1.00023883e+00
1.00026077e+00
1.00028140e+00
1.00030068e+00
1.00031858e+00
1.00033508e+00
1.00035015e+00
1.00036379e+00
1.00037601e+00
1.00038681e+00
1.00039620e+00
1.00040421e+00
1.00041086e+00
1.00041618e+00
1.00042020e+00
1.00042296e+00
1.00042451e+00
1.00042488e+00
1.00042412e+00
1.00042229e+00
1.00041945e+00
1.00041564e+00
1.00041094e+00
1.00040541e+00
1.00039911e+00
1.00039212e+00
1.00038452e+00
1.00037638e+00
1.00036778e+00
1.00035881e+00
1.00034956e+00
1.00034010e+00
1.00033053e+00
1.00032094e+00
1.00031142e+00
1.00030206e+00
1.00029293e+00
1.00028413e+00
1.00027572e+00
1.00026777e+00
1.00026035e+00
1.00025350e+00
1.00024728e+00
1.00024171e+00
1.00023681e+00
1.00023259e+00
1.00022907e+00
1.00022622e+00
1.00022403e+00
1.00022248e+00
1.00022154e+00
1.00022119e+00
1.00022138e+00
1.00022209e+00
1.00022331e+00
1.00022501e+00
1.00022719e+00
1.00022985e+00
1.00023303e+00
1.00023674e+00
1.00024106e+00
1.00024604e+00
1.00025177e+00
1.00025836e+00
1.00026592e+00
1.00027457e+00
1.00028447e+00
1.00029574e+00
1.00030855e+00
1.00032303e+00
1.00033933e+00
1.00035758e+00
1.00037791e+00
1.00040041e+00
1.00042517e+00
1.00045224e+00
1.00048165e+00
1.00051340e+00
1.00054744e+00
1.00058369e+00
1.00062205e+00
1.00066235e+00
1.00070441e+00
1.00074799e+00
1.00079282e+00
1.00083860e+00
1.00088499e+00
1.00093164e+00
1.00097814e+00
1.00102409e+00
1.00106909e+00
1.00111269e+00
1.00115446e+00
1.00119397e+00
1.00123084e+00
1.00126465e+00
1.00129499e+00
1.00132161e+00
1.00134415e+00
1.00136228e+00
1.00137579e+00
1.00138459e+00
1.00138851e+00
9.99695334e-01
9.99696748e-01
9.99701236e-01
9.99708670e-01
9.99718980e-01
9.99731997e-01
9.99747502e-01
9.99765347e-01
9.99785335e-01
9.99807201e-01
9.99830741e-01
9.99855734e-01
9.99881900e-01
9.99908992e-01
9.99936781e-01
9.99965020e-01
9.99993470e-01
1.00002192e+00
1.00005016e+00
1.00007801e+00
1.00010528e+00
1.00013183e+00
1.00015753e+00
1.00018224e+00
1.00020588e+00
1.00022835e+00
1.00024958e+00
1.00026953e+00
1.00028815e+00
1.00030540e+00
1.00032127e+00
1.00033575e+00
1.00034884e+00
1.00036053e+00
1.00037085e+00
1.00037980e+00
1.00038742e+00
1.00039372e+00
1.00039875e+00
1.00040253e+00
1.00040510e+00
1.00040652e+00
1.00040682e+00
1.00040606e+00
1.00040430e+00
1.00040158e+00
1.00039798e+00
1.00039355e+00
1.00038836e+00
1.00038249e+00
1.00037600e+00
1.00036898e+00
1.00036150e+00
1.00035363e+00
1.00034548e+00
1.00033711e+00
1.00032861e+00
1.00032007e+00
1.00031158e+00
1.00030321e+00
1.00029504e+00
1.00028716e+00
1.00027964e+00
1.00027253e+00
1.00026590e+00
1.00025980e+00
1.00025428e+00
1.00024935e+00
1.00024505e+00
1.00024139e+00
1.00023837e+00
1.00023598e+00
1.00023421e+00
1.00023303e+00
1.00023242e+00
1.00023234e+00
1.00023277e+00
1.00023367e+00
1.00023501e+00
1.00023678e+00
1.00023896e+00
1.00024155e+00
1.00024455e+00
1.00024801e+00
1.00025195e+00
1.00025643e+00
1.00026154e+00
1.00026735e+00
1.00027396e+00
1.00028151e+00
1.00029012e+00
1.00029992e+00
1.00031107e+00
1.00032370e+00
1.00033796e+00
1.00035400e+00
1.00037193e+00
1.00039188e+00
1.00041395e+00
1.00043821e+00
1.00046471e+00
1.00049348e+00
1.00052451e+00
1.00055775e+00
1.00059313e+00
1.00063053e+00
1.00066981e+00
1.00071076e+00
1.00075316e+00
1.00079675e+00
1.00084124e+00
1.00088628e+00
1.00093154e+00
1.00097664e+00
1.00102118e+00
1.00106475e+00
1.00110695e+00
1.00114736e+00
1.00118555e+00
1.00122113e+00
1.00125375e+00
1.00128303e+00
1.00130863e+00
1.00133028e+00
1.00134767e+00
1.00136058e+00
1.00136889e+00
1.00137243e+00
9.99695915e-01
9.99697066e-01
9.99701301e-01
9.99708504e-01
9.99718542e-01
9.99731227e-01
9.99746415e-01
9.99763920e-01
9.99783498e-01
9.99804950e-01
9.99828067e-01
9.99852578e-01
9.99878231e-01
9.99904799e-01
9.99932029e-01
9.99959671e-01
9.99987504e-01
1.00001531e+00
1.00004289e+00
1.00007006e+00
1.00009663e+00
1.00012248e+00
1.00014746e+00
1.00017145e+00
1.00019437e+00
1.00021612e+00
1.00023666e+00
1.00025592e+00
1.00027386e+00
1.00029047e+00
1.00030573e+00
1.00031962e+00
1.00033216e+00
1.00034335e+00
1.00035320e+00
1.00036174e+00
1.00036899e+00
1.00037498e+00
1.00037974e+00
1.00038332e+00
1.00038575e+00
1.00038709e+00
1.00038738e+00
1.00038667e+00
1.00038502e+00
1.00038250e+00
1.00037916e+00
1.00037507e+00
1.00037030e+00
1.00036492e+00
1.00035900e+00
1.00035263e+00
1.00034588e+00
1.00033883e+00
1.00033157e+00
1.00032417e+00
1.00031671e+00
1.00030929e+00
1.00030196e+00
1.00029483e+00
1.00028795e+00
1.00028139e+00
1.00027522e+00
1.00026949e+00
1.00026426e+00
1.00025955e+00
1.00025541e+00
1.00025186e+00
1.00024889e+00
1.00024653e+00
1.00024475e+00
1.00024355e+00
1.00024291e+00
1.00024279e+00
1.00024316e+00
1.00024398e+00
1.00024524e+00
1.00024688e+00
1.00024890e+00
1.00025125e+00
1.00025395e+00
1.00025699e+00
1.00026038e+00
1.00026415e+00
1.00026835e+00
1.00027305e+00
1.00027831e+00
1.00028423e+00
1.00029092e+00
1.00029850e+00
1.00030710e+00
1.00031685e+00
1.00032790e+00
1.00034039e+00
1.00035447e+00
1.00037026e+00
1.00038790e+00
1.00040750e+00
1.00042915e+00
1.00045292e+00
1.00047886e+00
1.00050699e+00
1.00053729e+00
1.00056973e+00
1.00060422e+00
1.00064066e+00
1.00067887e+00
1.00071869e+00
1.00075988e+00
1.00080220e+00
1.00084534e+00
1.00088900e+00
1.00093284e+00
1.00097648e+00
1.00101955e+00
1.00106166e+00
1.00110239e+00
1.00114137e+00
1.00117820e+00
1.00121248e+00
1.00124385e+00
1.00127199e+00
1.00129657e+00
1.00131729e+00
1.00133391e+00
1.00134619e+00
1.00135400e+00
1.00135714e+00
9.99694918e-01
9.99695820e-01
9.99699811e-01
9.99706741e-01
9.99716477e-01
9.99728854e-01
9.99743704e-01
9.99760815e-01
9.99779989e-01
9.99801025e-01
9.99823671e-01
9.99847679e-01
9.99872819e-01
9.99898838e-01
9.99925480e-01
9.99952514e-01
9.99979718e-01
1.00000687e+00
1.00003377e+00
1.00006024e+00
1.00008611e+00
1.00011124e+00
1.00013549e+00
1.00015876e+00
1.00018096e+00
1.00020201e+00
1.00022184e+00
1.00024042e+00
1.00025771e+00
1.00027369e+00
1.00028834e+00
1.00030167e+00
1.00031369e+00
1.00032440e+00
1.00033381e+00
1.00034197e+00
1.00034889e+00
1.00035460e+00
1.00035915e+00
1.00036258e+00
1.00036492e+00
1.00036623e+00
1.00036657e+00
1.00036597e+00
1.00036451e+00
1.00036224e+00
1.00035923e+00
1.00035556e+00
1.00035127e+00
1.00034647e+00
1.00034120e+00
1.00033556e+00
1.00032963e+00
1.00032348e+00
1.00031718e+00
1.00031083e+00
1.00030450e+00
1.00029827e+00
1.00029220e+00
1.00028637e+00
1.00028085e+00
1.00027569e+00
1.00027095e+00
1.00026667e+00
1.00026290e+00
1.00025965e+00
1.00025696e+00
1.00025483e+00
1.00025326e+00
1.00025224e+00
1.00025177e+00
1.00025180e+00
1.00025233e+00
1.00025331e+00
1.00025470e+00
1.00025648e+00
1.00025860e+00
1.00026103e+00
1.00026374e+00
1.00026673e+00
1.00026999e+00
1.00027351e+00
1.00027732e+00
1.00028145e+00
1.00028596e+00
1.00029091e+00
1.00029637e+00
1.00030245e+00
1.00030926e+00
1.00031691e+00
1.00032554e+00
1.00033528e+00
1.00034628e+00
1.00035867e+00
1.00037260e+00
1.00038820e+00
1.00040558e+00
1.00042485e+00
1.00044610e+00
1.00046941e+00
1.00049480e+00
1.00052230e+00
1.00055189e+00
1.00058353e+00
1.00061713e+00
1.00065258e+00
1.00068972e+00
1.00072839e+00
1.00076835e+00
1.00080936e+00
1.00085114e+00
1.00089338e+00
1.00093575e+00
1.00097789e+00
1.00101945e+00
1.00106005e+00
1.00109930e+00
1.00113681e+00
1.00117222e+00
1.00120515e+00
1.00123525e+00
1.00126221e+00
1.00128572e+00
1.00130551e+00
1.00132132e+00
1.00133294e+00
1.00134024e+00
1.00134298e+00
9.99692105e-01
9.99692740e-01
9.99696476e-01
9.99703124e-01
9.99712556e-01
9.99724608e-01
9.99739087e-01
9.99755802e-01
9.99774567e-01
9.99795149e-01
9.99817307e-01
9.99840812e-01
9.99865417e-01
9.99890861e-01
9.99916908e-01
9.99943327e-01
9.99969884e-01
9.99996369e-01
1.00002259e+00
1.00004836e+00
1.00007352e+00
1.00009793e+00
1.00012146e+00
1.00014402e+00
1.00016550e+00
1.00018585e+00
1.00020500e+00
1.00022291e+00
1.00023956e+00
1.00025493e+00
1.00026902e+00
1.00028182e+00
1.00029334e+00
1.00030361e+00
1.00031264e+00
1.00032045e+00
1.00032709e+00
1.00033259e+00
1.00033698e+00
1.00034031e+00
1.00034262e+00
1.00034398e+00
1.00034442e+00
1.00034401e+00
1.00034280e+00
1.00034087e+00
1.00033828e+00
1.00033509e+00
1.00033138e+00
1.00032722e+00
1.00032269e+00
1.00031787e+00
1.00031283e+00
1.00030765e+00
1.00030241e+00
1.00029719e+00
1.00029207e+00
1.00028710e+00
1.00028236e+00
1.00027792e+00
1.00027383e+00
1.00027014e+00
1.00026689e+00
1.00026413e+00
1.00026188e+00