# vtk DataFile Version 2.0
LBM Flow Field - Timestep 2310
ASCII
DATASET STRUCTURED_POINTS
DIMENSIONS 128 128 1
ORIGIN 0.0 0.0 0.0
SPACING 1.0 1.0 1.0
POINT_DATA 16384
SCALARS density double 1
LOOKUP_TABLE default
1.00080683e+00
1.00081487e+00
1.00082313e+00
1.00082100e+00
1.00081859e+00
1.00081698e+00
1.00081381e+00
1.00080914e+00
1.00080403e+00
1.00079830e+00
1.00079179e+00
1.00078467e+00
1.00077711e+00
1.00076912e+00
1.00076079e+00
1.00075220e+00
1.00074344e+00
1.00073460e+00
1.00072575e+00
1.00071698e+00
1.00070838e+00
1.00070001e+00
1.00069196e+00
1.00068428e+00
1.00067705e+00
1.00067031e+00
1.00066410e+00
1.00065848e+00
1.00065347e+00
1.00064908e+00
1.00064533e+00
1.00064223e+00
1.00063975e+00
1.00063790e+00
1.00063663e+00
1.00063591e+00
1.00063570e+00
1.00063595e+00
1.00063660e+00
1.00063756e+00
1.00063878e+00
1.00064016e+00
1.00064162e+00
1.00064305e+00
1.00064437e+00
1.00064546e+00
1.00064621e+00
1.00064653e+00
1.00064629e+00
1.00064539e+00
1.00064373e+00
1.00064119e+00
1.00063768e+00
1.00063312e+00
1.00062741e+00
1.00062048e+00
1.00061229e+00
1.00060278e+00
1.00059193e+00
1.00057972e+00
1.00056617e+00
1.00055130e+00
1.00053515e+00
1.00051781e+00
1.00049936e+00
1.00047990e+00
1.00045957e+00
1.00043851e+00
1.00041688e+00
1.00039486e+00
1.00037264e+00
1.00035040e+00
1.00032835e+00
1.00030668e+00
1.00028559e+00
1.00026527e+00
1.00024589e+00
1.00022761e+00
1.00021057e+00
1.00019488e+00
1.00018064e+00
1.00016790e+00
1.00015670e+00
1.00014704e+00
1.00013887e+00
1.00013214e+00
1.00012675e+00
1.00012256e+00
1.00011944e+00
1.00011720e+00
1.00011566e+00
1.00011461e+00
1.00011384e+00
1.00011313e+00
1.00011226e+00
1.00011103e+00
1.00010924e+00
1.00010673e+00
1.00010332e+00
1.00009890e+00
1.00009334e+00
1.00008659e+00
1.00007860e+00
1.00006934e+00
1.00005885e+00
1.00004715e+00
1.00003434e+00
1.00002050e+00
1.00000577e+00
9.99990277e-01
9.99974185e-01
9.99957666e-01
9.99940906e-01
9.99924083e-01
9.99907393e-01
9.99891048e-01
9.99875231e-01
9.99860060e-01
9.99845810e-01
9.99832771e-01
9.99820853e-01
9.99809975e-01
9.99801279e-01
9.99794864e-01
9.99788563e-01
9.99783703e-01
9.99789179e-01
9.99795153e-01
1.00081538e+00
1.00081752e+00
1.00082253e+00
1.00082171e+00
1.00082019e+00
1.00081781e+00
1.00081459e+00
1.00081017e+00
1.00080505e+00
1.00079916e+00
1.00079264e+00
1.00078550e+00
1.00077787e+00
1.00076981e+00
1.00076140e+00
1.00075274e+00
1.00074390e+00
1.00073497e+00
1.00072605e+00
1.00071720e+00
1.00070851e+00
1.00070006e+00
1.00069193e+00
1.00068417e+00
1.00067686e+00
1.00067004e+00
1.00066376e+00
1.00065806e+00
1.00065297e+00
1.00064852e+00
1.00064470e+00
1.00064152e+00
1.00063898e+00
1.00063706e+00
1.00063573e+00
1.00063495e+00
1.00063469e+00
1.00063488e+00
1.00063547e+00
1.00063639e+00
1.00063756e+00
1.00063890e+00
1.00064031e+00
1.00064171e+00
1.00064299e+00
1.00064406e+00
1.00064479e+00
1.00064508e+00
1.00064483e+00
1.00064393e+00
1.00064226e+00
1.00063972e+00
1.00063622e+00
1.00063167e+00
1.00062599e+00
1.00061910e+00
1.00061095e+00
1.00060149e+00
1.00059071e+00
1.00057858e+00
1.00056511e+00
1.00055034e+00
1.00053432e+00
1.00051710e+00
1.00049879e+00
1.00047948e+00
1.00045932e+00
1.00043843e+00
1.00041698e+00
1.00039515e+00
1.00037312e+00
1.00035107e+00
1.00032922e+00
1.00030774e+00
1.00028684e+00
1.00026669e+00
1.00024747e+00
1.00022933e+00
1.00021242e+00
1.00019684e+00
1.00018268e+00
1.00017001e+00
1.00015884e+00
1.00014918e+00
1.00014099e+00
1.00013421e+00
1.00012874e+00
1.00012446e+00
1.00012122e+00
1.00011884e+00
1.00011715e+00
1.00011593e+00
1.00011497e+00
1.00011407e+00
1.00011302e+00
1.00011160e+00
1.00010964e+00
1.00010695e+00
1.00010338e+00
1.00009881e+00
1.00009312e+00
1.00008626e+00
1.00007816e+00
1.00006883e+00
1.00005828e+00
1.00004655e+00
1.00003371e+00
1.00001987e+00
1.00000515e+00
9.99989686e-01
9.99973638e-01
9.99957176e-01
9.99940482e-01
9.99923740e-01
9.99907150e-01
9.99890892e-01
9.99875169e-01
9.99860148e-01
9.99846060e-01
9.99833026e-01
9.99821244e-01
9.99810761e-01
9.99802147e-01
9.99795138e-01
9.99789766e-01
9.99786100e-01
9.99788572e-01
9.99789307e-01
1.00082500e+00
1.00082398e+00
1.00082121e+00
1.00082270e+00
1.00082256e+00
1.00081916e+00
1.00081543e+00
1.00081136e+00
1.00080619e+00
1.00080011e+00
1.00079351e+00
1.00078632e+00
1.00077858e+00
1.00077041e+00
1.00076191e+00
1.00075314e+00
1.00074420e+00
1.00073517e+00
1.00072614e+00
1.00071719e+00
1.00070840e+00
1.00069986e+00
1.00069163e+00
1.00068379e+00
1.00067639e+00
1.00066950e+00
1.00066314e+00
1.00065737e+00
1.00065221e+00
1.00064769e+00
1.00064381e+00
1.00064057e+00
1.00063798e+00
1.00063600e+00
1.00063462e+00
1.00063379e+00
1.00063348e+00
1.00063363e+00
1.00063417e+00
1.00063505e+00
1.00063619e+00
1.00063749e+00
1.00063887e+00
1.00064025e+00
1.00064150e+00
1.00064254e+00
1.00064326e+00
1.00064354e+00
1.00064327e+00
1.00064236e+00
1.00064069e+00
1.00063816e+00
1.00063467e+00
1.00063013e+00
1.00062447e+00
1.00061762e+00
1.00060950e+00
1.00060010e+00
1.00058937e+00
1.00057731e+00
1.00056393e+00
1.00054926e+00
1.00053334e+00
1.00051625e+00
1.00049807e+00
1.00047891e+00
1.00045890e+00
1.00043818e+00
1.00041692e+00
1.00039527e+00
1.00037344e+00
1.00035159e+00
1.00032993e+00
1.00030866e+00
1.00028795e+00
1.00026799e+00
1.00024895e+00
1.00023098e+00
1.00021422e+00
1.00019877e+00
1.00018473e+00
1.00017214e+00
1.00016104e+00
1.00015142e+00
1.00014325e+00
1.00013647e+00
1.00013096e+00
1.00012663e+00
1.00012331e+00
1.00012083e+00
1.00011902e+00
1.00011767e+00
1.00011657e+00
1.00011552e+00
1.00011431e+00
1.00011274e+00
1.00011062e+00
1.00010777e+00
1.00010406e+00
1.00009935e+00
1.00009354e+00
1.00008657e+00
1.00007838e+00
1.00006896e+00
1.00005834e+00
1.00004657e+00
1.00003370e+00
1.00001984e+00
1.00000512e+00
9.99989667e-01
9.99973646e-01
9.99957222e-01
9.99940576e-01
9.99923898e-01
9.99907382e-01
9.99891193e-01
9.99875542e-01
9.99860663e-01
9.99846668e-01
9.99833599e-01
9.99821952e-01
9.99811988e-01
9.99803007e-01
9.99795127e-01
9.99791223e-01
9.99789738e-01
9.99785254e-01
9.99783152e-01
1.00082494e+00
1.00082525e+00
1.00082489e+00
1.00082494e+00
1.00082288e+00
1.00082012e+00
1.00081673e+00
1.00081224e+00
1.00080685e+00
1.00080083e+00
1.00079415e+00
1.00078683e+00
1.00077900e+00
1.00077076e+00
1.00076216e+00
1.00075330e+00
1.00074427e+00
1.00073516e+00
1.00072604e+00
1.00071702e+00
1.00070816e+00
1.00069955e+00
1.00069126e+00
1.00068335e+00
1.00067589e+00
1.00066894e+00
1.00066253e+00
1.00065672e+00
1.00065151e+00
1.00064694e+00
1.00064302e+00
1.00063975e+00
1.00063711e+00
1.00063509e+00
1.00063367e+00
1.00063281e+00
1.00063246e+00
1.00063257e+00
1.00063308e+00
1.00063392e+00
1.00063501e+00
1.00063628e+00
1.00063762e+00
1.00063895e+00
1.00064017e+00
1.00064117e+00
1.00064184e+00
1.00064208e+00
1.00064178e+00
1.00064083e+00
1.00063913e+00
1.00063657e+00
1.00063306e+00
1.00062851e+00
1.00062284e+00
1.00061598e+00
1.00060788e+00
1.00059850e+00
1.00058780e+00
1.00057579e+00
1.00056248e+00
1.00054788e+00
1.00053206e+00
1.00051508e+00
1.00049702e+00
1.00047801e+00
1.00045816e+00
1.00043761e+00
1.00041653e+00
1.00039509e+00
1.00037346e+00
1.00035183e+00
1.00033039e+00
1.00030934e+00
1.00028885e+00
1.00026911e+00
1.00025027e+00
1.00023250e+00
1.00021592e+00
1.00020063e+00
1.00018673e+00
1.00017427e+00
1.00016326e+00
1.00015372e+00
1.00014559e+00
1.00013882e+00
1.00013331e+00
1.00012894e+00
1.00012556e+00
1.00012301e+00
1.00012110e+00
1.00011963e+00
1.00011841e+00
1.00011722e+00
1.00011587e+00
1.00011415e+00
1.00011188e+00
1.00010890e+00
1.00010506e+00
1.00010022e+00
1.00009430e+00
1.00008723e+00
1.00007896e+00
1.00006948e+00
1.00005881e+00
1.00004700e+00
1.00003413e+00
1.00002027e+00
1.00000557e+00
9.99990155e-01
9.99974182e-01
9.99957823e-01
9.99941252e-01
9.99924653e-01
9.99908221e-01
9.99892149e-01
9.99876603e-01
9.99861775e-01
9.99847889e-01
9.99835075e-01
9.99823385e-01
9.99813158e-01
9.99804653e-01
9.99797554e-01
9.99791982e-01
9.99789159e-01
9.99786863e-01
9.99786180e-01
1.00082542e+00
1.00082664e+00
1.00082765e+00
1.00082576e+00
1.00082337e+00
1.00082128e+00
1.00081757e+00
1.00081267e+00
1.00080731e+00
1.00080128e+00
1.00079444e+00
1.00078702e+00
1.00077914e+00
1.00077082e+00
1.00076214e+00
1.00075321e+00
1.00074411e+00
1.00073493e+00
1.00072576e+00
1.00071668e+00
1.00070778e+00
1.00069912e+00
1.00069079e+00
1.00068285e+00
1.00067536e+00
1.00066838e+00
1.00066196e+00
1.00065611e+00
1.00065089e+00
1.00064630e+00
1.00064236e+00
1.00063907e+00
1.00063641e+00
1.00063437e+00
1.00063292e+00
1.00063203e+00
1.00063166e+00
1.00063173e+00
1.00063221e+00
1.00063301e+00
1.00063406e+00
1.00063527e+00
1.00063657e+00
1.00063784e+00
1.00063900e+00
1.00063993e+00
1.00064054e+00
1.00064072e+00
1.00064035e+00
1.00063934e+00
1.00063757e+00
1.00063495e+00
1.00063138e+00
1.00062677e+00
1.00062106e+00
1.00061417e+00
1.00060605e+00
1.00059666e+00
1.00058597e+00
1.00057398e+00
1.00056071e+00
1.00054617e+00
1.00053043e+00
1.00051355e+00
1.00049562e+00
1.00047675e+00
1.00045706e+00
1.00043670e+00
1.00041582e+00
1.00039459e+00
1.00037319e+00
1.00035181e+00
1.00033062e+00
1.00030981e+00
1.00028958e+00
1.00027008e+00
1.00025149e+00
1.00023394e+00
1.00021758e+00
1.00020249e+00
1.00018876e+00
1.00017645e+00
1.00016557e+00
1.00015612e+00
1.00014806e+00
1.00014132e+00
1.00013582e+00
1.00013143e+00
1.00012801e+00
1.00012539e+00
1.00012338e+00
1.00012181e+00
1.00012046e+00
1.00011914e+00
1.00011765e+00
1.00011579e+00
1.00011338e+00
1.00011026e+00
1.00010629e+00
1.00010134e+00
1.00009532e+00
1.00008816e+00
1.00007983e+00
1.00007030e+00
1.00005961e+00
1.00004779e+00
1.00003492e+00
1.00002110e+00
1.00000645e+00
9.99991100e-01
9.99975207e-01
9.99958940e-01
9.99942476e-01
9.99925993e-01
9.99909671e-01
9.99893725e-01
9.99878331e-01
9.99863605e-01
9.99849775e-01
9.99837162e-01
9.99825683e-01
9.99815229e-01
9.99806614e-01
9.99800280e-01
9.99794455e-01
9.99789970e-01
9.99789130e-01
9.99789276e-01
1.00082762e+00
1.00082798e+00
1.00082788e+00
1.00082663e+00
1.00082489e+00
1.00082182e+00
1.00081769e+00
1.00081309e+00
1.00080767e+00
1.00080136e+00
1.00079444e+00
1.00078700e+00
1.00077902e+00
1.00077060e+00
1.00076186e+00
1.00075288e+00
1.00074372e+00
1.00073450e+00
1.00072528e+00
1.00071617e+00
1.00070723e+00
1.00069856e+00
1.00069021e+00
1.00068226e+00
1.00067476e+00
1.00066778e+00
1.00066135e+00
1.00065551e+00
1.00065028e+00
1.00064570e+00
1.00064176e+00
1.00063846e+00
1.00063580e+00
1.00063375e+00
1.00063229e+00
1.00063139e+00
1.00063099e+00
1.00063104e+00
1.00063148e+00
1.00063224e+00
1.00063324e+00
1.00063440e+00
1.00063563e+00
1.00063684e+00
1.00063792e+00
1.00063878e+00
1.00063930e+00
1.00063939e+00
1.00063893e+00
1.00063782e+00
1.00063596e+00
1.00063325e+00
1.00062960e+00
1.00062492e+00
1.00061913e+00
1.00061218e+00
1.00060401e+00
1.00059459e+00
1.00058389e+00
1.00057190e+00
1.00055865e+00
1.00054417e+00
1.00052850e+00
1.00051171e+00
1.00049390e+00
1.00047517e+00
1.00045566e+00
1.00043549e+00
1.00041482e+00
1.00039383e+00
1.00037268e+00
1.00035155e+00
1.00033063e+00
1.00031011e+00
1.00029015e+00
1.00027094e+00
1.00025262e+00
1.00023533e+00
1.00021921e+00
1.00020435e+00
1.00019083e+00
1.00017870e+00
1.00016797e+00
1.00015864e+00
1.00015067e+00
1.00014400e+00
1.00013852e+00
1.00013413e+00
1.00013068e+00
1.00012800e+00
1.00012591e+00
1.00012424e+00
1.00012278e+00
1.00012133e+00
1.00011970e+00
1.00011770e+00
1.00011516e+00
1.00011191e+00
1.00010782e+00
1.00010276e+00
1.00009665e+00
1.00008941e+00
1.00008102e+00
1.00007146e+00
1.00006075e+00
1.00004895e+00
1.00003611e+00
1.00002234e+00
1.00000776e+00
9.99992498e-01
9.99976711e-01
9.99960560e-01
9.99944222e-01
9.99927882e-01
9.99911713e-01
9.99895888e-01
9.99880624e-01
9.99866111e-01
9.99852421e-01
9.99839733e-01
9.99828408e-01
9.99818453e-01
9.99809610e-01
9.99802478e-01
9.99797400e-01
9.99793649e-01
9.99791777e-01
9.99791140e-01
1.00082911e+00
1.00082926e+00
1.00082854e+00
1.00082759e+00
1.00082550e+00
1.00082200e+00
1.00081805e+00
1.00081336e+00
1.00080763e+00
1.00080124e+00
1.00079430e+00
1.00078674e+00
1.00077865e+00
1.00077017e+00
1.00076138e+00
1.00075233e+00
1.00074312e+00
1.00073386e+00
1.00072461e+00
1.00071547e+00
1.00070652e+00
1.00069783e+00
1.00068948e+00
1.00068154e+00
1.00067405e+00
1.00066708e+00
1.00066066e+00
1.00065484e+00
1.00064963e+00
1.00064506e+00
1.00064114e+00
1.00063785e+00
1.00063520e+00
1.00063316e+00
1.00063170e+00
1.00063079e+00
1.00063037e+00
1.00063040e+00
1.00063081e+00
1.00063153e+00
1.00063248e+00
1.00063359e+00
1.00063475e+00
1.00063588e+00
1.00063688e+00
1.00063764e+00
1.00063807e+00
1.00063805e+00
1.00063748e+00
1.00063626e+00
1.00063429e+00
1.00063147e+00
1.00062771e+00
1.00062292e+00
1.00061704e+00
1.00061001e+00
1.00060177e+00
1.00059230e+00
1.00058156e+00
1.00056957e+00
1.00055633e+00
1.00054188e+00
1.00052628e+00
1.00050958e+00
1.00049189e+00
1.00047331e+00
1.00045397e+00
1.00043400e+00
1.00041357e+00
1.00039282e+00
1.00037194e+00
1.00035110e+00
1.00033048e+00
1.00031026e+00
1.00029061e+00
1.00027170e+00
1.00025369e+00
1.00023670e+00
1.00022085e+00
1.00020625e+00
1.00019297e+00
1.00018104e+00
1.00017049e+00
1.00016131e+00
1.00015346e+00
1.00014687e+00
1.00014144e+00
1.00013707e+00
1.00013359e+00
1.00013087e+00
1.00012872e+00
1.00012696e+00
1.00012539e+00
1.00012382e+00
1.00012206e+00
1.00011993e+00
1.00011725e+00
1.00011388e+00
1.00010967e+00
1.00010451e+00
1.00009831e+00
1.00009100e+00
1.00008256e+00
1.00007298e+00
1.00006227e+00
1.00005048e+00
1.00003769e+00
1.00002399e+00
1.00000949e+00
9.99994338e-01
9.99978673e-01
9.99962661e-01
9.99946467e-01
9.99930274e-01
9.99914274e-01
9.99898625e-01
9.99883488e-01
9.99869102e-01
9.99855639e-01
9.99843095e-01
9.99831695e-01
9.99821864e-01
9.99813369e-01
9.99805990e-01
9.99800740e-01
9.99797387e-01
9.99794995e-01
9.99794190e-01
1.00082983e+00
1.00083007e+00
1.00082959e+00
1.00082815e+00
1.00082560e+00
1.00082237e+00
1.00081832e+00
1.00081321e+00
1.00080742e+00
1.00080104e+00
1.00079394e+00
1.00078624e+00
1.00077809e+00
1.00076955e+00
1.00076067e+00
1.00075156e+00
1.00074232e+00
1.00073301e+00
1.00072374e+00
1.00071458e+00
1.00070562e+00
1.00069694e+00
1.00068860e+00
1.00068066e+00
1.00067320e+00
1.00066625e+00
1.00065986e+00
1.00065407e+00
1.00064889e+00
1.00064435e+00
1.00064046e+00
1.00063720e+00
1.00063457e+00
1.00063254e+00
1.00063109e+00
1.00063018e+00
1.00062976e+00
1.00062977e+00
1.00063015e+00
1.00063083e+00
1.00063174e+00
1.00063278e+00
1.00063388e+00
1.00063493e+00
1.00063583e+00
1.00063649e+00
1.00063681e+00
1.00063667e+00
1.00063598e+00
1.00063463e+00
1.00063253e+00
1.00062958e+00
1.00062569e+00
1.00062078e+00
1.00061480e+00
1.00060766e+00
1.00059934e+00
1.00058980e+00
1.00057902e+00
1.00056700e+00
1.00055376e+00
1.00053934e+00
1.00052379e+00
1.00050719e+00
1.00048962e+00
1.00047119e+00
1.00045203e+00
1.00043228e+00
1.00041208e+00
1.00039160e+00
1.00037100e+00
1.00035047e+00
1.00033017e+00
1.00031028e+00
1.00029097e+00
1.00027240e+00
1.00025472e+00
1.00023805e+00
1.00022252e+00
1.00020821e+00
1.00019519e+00
1.00018350e+00
1.00017316e+00
1.00016415e+00
1.00015644e+00
1.00014995e+00
1.00014459e+00
1.00014025e+00
1.00013678e+00
1.00013403e+00
1.00013182e+00
1.00012997e+00
1.00012830e+00
1.00012662e+00
1.00012474e+00
1.00012248e+00
1.00011968e+00
1.00011619e+00
1.00011186e+00
1.00010660e+00
1.00010032e+00
1.00009295e+00
1.00008447e+00
1.00007487e+00
1.00006417e+00
1.00005242e+00
1.00003968e+00
1.00002605e+00
1.00001166e+00
9.99996619e-01
9.99981086e-01
9.99965223e-01
9.99949195e-01
9.99933166e-01
9.99917321e-01
9.99901859e-01
9.99886925e-01
9.99872647e-01
9.99859275e-01
9.99847003e-01
9.99835772e-01
9.99825739e-01
9.99817346e-01
9.99810426e-01
9.99804871e-01
9.99801134e-01
9.99799087e-01
9.99798458e-01
1.00083073e+00
1.00083083e+00
1.00083021e+00
1.00082847e+00
1.00082589e+00
1.00082257e+00
1.00081818e+00
1.00081299e+00
1.00080718e+00
1.00080060e+00
1.00079334e+00
1.00078558e+00
1.00077736e+00
1.00076871e+00
1.00075976e+00
1.00075060e+00
1.00074130e+00
1.00073196e+00
1.00072266e+00
1.00071349e+00
1.00070453e+00
1.00069584e+00
1.00068752e+00
1.00067960e+00
1.00067217e+00
1.00066525e+00
1.00065890e+00
1.00065315e+00
1.00064802e+00
1.00064352e+00
1.00063966e+00
1.00063644e+00
1.00063384e+00
1.00063184e+00
1.00063041e+00
1.00062951e+00
1.00062908e+00
1.00062908e+00
1.00062945e+00
1.00063010e+00
1.00063095e+00
1.00063194e+00
1.00063296e+00
1.00063393e+00
1.00063473e+00
1.00063529e+00
1.00063549e+00
1.00063522e+00
1.00063440e+00
1.00063291e+00
1.00063066e+00
1.00062757e+00
1.00062354e+00
1.00061850e+00
1.00061239e+00
1.00060514e+00
1.00059672e+00
1.00058710e+00
1.00057626e+00
1.00056421e+00
1.00055096e+00
1.00053657e+00
1.00052108e+00
1.00050456e+00
1.00048711e+00
1.00046884e+00
1.00044987e+00
1.00043034e+00
1.00041039e+00
1.00039019e+00
1.00036990e+00
1.00034969e+00
1.00032974e+00
1.00031021e+00
1.00029126e+00
1.00027306e+00
1.00025573e+00
1.00023942e+00
1.00022422e+00
1.00021023e+00
1.00019750e+00
1.00018608e+00
1.00017597e+00
1.00016716e+00
1.00015961e+00
1.00015325e+00
1.00014798e+00
1.00014369e+00
1.00014024e+00
1.00013747e+00
1.00013522e+00
1.00013331e+00
1.00013155e+00
1.00012976e+00
1.00012776e+00
1.00012538e+00
1.00012246e+00
1.00011885e+00
1.00011441e+00
1.00010906e+00
1.00010270e+00
1.00009527e+00
1.00008676e+00
1.00007714e+00
1.00006645e+00
1.00005474e+00
1.00004206e+00
1.00002852e+00
1.00001423e+00
9.99999321e-01
9.99983934e-01
9.99968224e-01
9.99952363e-01
9.99936522e-01
9.99920855e-01
9.99905547e-01
9.99890801e-01
9.99876742e-01
9.99863479e-01
9.99851270e-01
9.99840269e-01
9.99830391e-01
9.99821880e-01
9.99815051e-01
9.99809618e-01
9.99805722e-01
9.99803654e-01
9.99802939e-01
1.00083158e+00
1.00083142e+00
1.00083053e+00
1.00082877e+00
1.00082612e+00
1.00082245e+00
1.00081794e+00
1.00081273e+00
1.00080671e+00
1.00079995e+00
1.00079263e+00
1.00078477e+00
1.00077641e+00
1.00076767e+00
1.00075866e+00
1.00074943e+00
1.00074007e+00
1.00073069e+00
1.00072136e+00
1.00071218e+00
1.00070321e+00
1.00069453e+00
1.00068622e+00
1.00067833e+00
1.00067093e+00
1.00066405e+00
1.00065775e+00
1.00065204e+00
1.00064696e+00
1.00064251e+00
1.00063870e+00
1.00063552e+00
1.00063296e+00
1.00063100e+00
1.00062959e+00
1.00062871e+00
1.00062829e+00
1.00062829e+00
1.00062864e+00
1.00062926e+00
1.00063008e+00
1.00063101e+00
1.00063196e+00
1.00063284e+00
1.00063355e+00
1.00063400e+00
1.00063407e+00
1.00063367e+00
1.00063271e+00
1.00063107e+00
1.00062868e+00
1.00062543e+00
1.00062125e+00
1.00061607e+00
1.00060982e+00
1.00060245e+00
1.00059392e+00
1.00058421e+00
1.00057331e+00
1.00056122e+00
1.00054796e+00
1.00053359e+00
1.00051815e+00
1.00050172e+00
1.00048440e+00
1.00046629e+00
1.00044752e+00
1.00042821e+00
1.00040853e+00
1.00038863e+00
1.00036866e+00
1.00034880e+00
1.00032921e+00
1.00031006e+00
1.00029150e+00
1.00027368e+00
1.00025675e+00
1.00024081e+00
1.00022598e+00
1.00021233e+00
1.00019992e+00
1.00018879e+00
1.00017895e+00
1.00017036e+00
1.00016300e+00
1.00015678e+00
1.00015162e+00
1.00014740e+00
1.00014399e+00
1.00014122e+00
1.00013893e+00
1.00013696e+00
1.00013513e+00
1.00013324e+00
1.00013114e+00
1.00012864e+00
1.00012560e+00
1.00012187e+00
1.00011734e+00
1.00011189e+00
1.00010545e+00
1.00009797e+00
1.00008943e+00
1.00007980e+00
1.00006913e+00
1.00005745e+00
1.00004485e+00
1.00003140e+00
1.00001722e+00
1.00000244e+00
9.99987202e-01
9.99971658e-01
9.99955964e-01
9.99940300e-01
9.99924835e-01
9.99909711e-01
9.99895108e-01
9.99881233e-01
9.99868191e-01
9.99856066e-01
9.99845112e-01
9.99835469e-01
9.99827049e-01
9.99820067e-01
9.99814738e-01
9.99810980e-01
9.99808724e-01
9.99807821e-01
1.00083217e+00
1.00083191e+00
1.00083086e+00
1.00082896e+00
1.00082609e+00
1.00082227e+00
1.00081768e+00
1.00081227e+00
1.00080605e+00
1.00079921e+00
1.00079177e+00
1.00078375e+00
1.00077528e+00
1.00076646e+00
1.00075735e+00
1.00074804e+00
1.00073862e+00
1.00072920e+00
1.00071983e+00
1.00071062e+00
1.00070165e+00
1.00069297e+00
1.00068468e+00
1.00067682e+00
1.00066944e+00
1.00066261e+00
1.00065635e+00
1.00065070e+00
1.00064567e+00
1.00064127e+00
1.00063752e+00
1.00063439e+00
1.00063188e+00
1.00062996e+00
1.00062859e+00
1.00062773e+00
1.00062733e+00
1.00062734e+00
1.00062767e+00
1.00062827e+00
1.00062906e+00
1.00062994e+00
1.00063082e+00
1.00063162e+00
1.00063224e+00
1.00063258e+00
1.00063253e+00
1.00063200e+00
1.00063089e+00
1.00062911e+00
1.00062656e+00
1.00062316e+00
1.00061883e+00
1.00061350e+00
1.00060711e+00
1.00059961e+00
1.00059097e+00
1.00058116e+00
1.00057019e+00
1.00055805e+00
1.00054479e+00
1.00053043e+00
1.00051505e+00
1.00049871e+00
1.00048152e+00
1.00046357e+00
1.00044500e+00
1.00042594e+00
1.00040654e+00
1.00038694e+00
1.00036731e+00
1.00034781e+00
1.00032861e+00
1.00030986e+00
1.00029171e+00
1.00027431e+00
1.00025778e+00
1.00024225e+00
1.00022781e+00
1.00021453e+00
1.00020247e+00
1.00019166e+00
1.00018209e+00
1.00017376e+00
1.00016660e+00
1.00016056e+00
1.00015553e+00
1.00015139e+00
1.00014802e+00
1.00014527e+00
1.00014297e+00
1.00014095e+00
1.00013905e+00
1.00013707e+00
1.00013487e+00
1.00013226e+00
1.00012911e+00
1.00012527e+00
1.00012064e+00
1.00011510e+00
1.00010859e+00
1.00010106e+00
1.00009248e+00
1.00008285e+00
1.00007220e+00
1.00006056e+00
1.00004802e+00
1.00003466e+00
1.00002060e+00
1.00000595e+00
9.99990864e-01
9.99975487e-01
9.99959973e-01
9.99944482e-01
9.99929193e-01
9.99914274e-01
9.99899856e-01
9.99886110e-01
9.99873234e-01
9.99861314e-01
9.99850436e-01
9.99840834e-01
9.99832575e-01
9.99825650e-01
9.99820275e-01
9.99816510e-01
9.99814217e-01
9.99813302e-01
1.00083263e+00
1.00083227e+00
1.00083111e+00
1.00082901e+00
1.00082596e+00
1.00082205e+00
1.00081728e+00
1.00081166e+00
1.00080533e+00
1.00079835e+00
1.00079072e+00
1.00078258e+00
1.00077400e+00
1.00076506e+00
1.00075584e+00
1.00074644e+00
1.00073696e+00
1.00072747e+00
1.00071806e+00
1.00070882e+00
1.00069982e+00
1.00069115e+00
1.00068286e+00
1.00067502e+00
1.00066768e+00
1.00066088e+00
1.00065467e+00
1.00064907e+00
1.00064409e+00
1.00063976e+00
1.00063606e+00
1.00063299e+00
1.00063053e+00
1.00062866e+00
1.00062733e+00
1.00062651e+00
1.00062614e+00
1.00062615e+00
1.00062649e+00
1.00062708e+00
1.00062783e+00
1.00062867e+00
1.00062950e+00
1.00063023e+00
1.00063076e+00
1.00063099e+00
1.00063083e+00
1.00063017e+00
1.00062893e+00
1.00062700e+00
1.00062430e+00
1.00062074e+00
1.00061626e+00
1.00061078e+00
1.00060424e+00
1.00059662e+00
1.00058786e+00
1.00057796e+00
1.00056692e+00
1.00055474e+00
1.00054146e+00
1.00052713e+00
1.00051180e+00
1.00049556e+00
1.00047850e+00
1.00046073e+00
1.00044237e+00
1.00042356e+00
1.00040445e+00
1.00038517e+00
1.00036590e+00
1.00034678e+00
1.00032797e+00
1.00030964e+00
1.00029192e+00
1.00027495e+00
1.00025887e+00
1.00024376e+00
1.00022973e+00
1.00021685e+00
1.00020516e+00
1.00019468e+00
1.00018543e+00
1.00017736e+00
1.00017043e+00
1.00016458e+00
1.00015969e+00
1.00015567e+00
1.00015237e+00
1.00014964e+00
1.00014734e+00
1.00014529e+00
1.00014332e+00
1.00014127e+00
1.00013897e+00
1.00013626e+00
1.00013300e+00
1.00012906e+00
1.00012433e+00
1.00011871e+00
1.00011213e+00
1.00010455e+00
1.00009594e+00
1.00008630e+00
1.00007566e+00
1.00006407e+00
1.00005159e+00
1.00003832e+00
1.00002437e+00
1.00000986e+00
9.99994914e-01
9.99979694e-01
9.99964354e-01
9.99949048e-01
9.99933930e-01
9.99919179e-01
9.99904959e-01
9.99891385e-01
9.99878621e-01
9.99866852e-01
9.99856145e-01
9.99846588e-01
9.99838378e-01
9.99831576e-01
9.99826201e-01
9.99822370e-01
9.99820097e-01
9.99819181e-01
1.00083307e+00
1.00083258e+00
1.00083126e+00
1.00082900e+00
1.00082582e+00
1.00082173e+00
1.00081676e+00
1.00081100e+00
1.00080452e+00
1.00079733e+00
1.00078956e+00
1.00078128e+00
1.00077255e+00
1.00076347e+00
1.00075414e+00
1.00074464e+00
1.00073506e+00
1.00072549e+00
1.00071603e+00
1.00070675e+00
1.00069772e+00
1.00068903e+00
1.00068074e+00
1.00067291e+00
1.00066559e+00
1.00065883e+00
1.00065266e+00
1.00064711e+00
1.00064219e+00
1.00063791e+00
1.00063427e+00
1.00063126e+00
1.00062886e+00
1.00062704e+00
1.00062577e+00
1.00062498e+00
1.00062464e+00
1.00062468e+00
1.00062503e+00
1.00062562e+00
1.00062636e+00
1.00062716e+00
1.00062794e+00
1.00062861e+00
1.00062906e+00
1.00062920e+00
1.00062893e+00
1.00062816e+00
1.00062678e+00
1.00062471e+00
1.00062187e+00
1.00061817e+00
1.00061353e+00
1.00060791e+00
1.00060124e+00
1.00059349e+00
1.00058462e+00
1.00057464e+00
1.00056352e+00
1.00055131e+00
1.00053802e+00
1.00052371e+00
1.00050845e+00
1.00049230e+00
1.00047538e+00
1.00045780e+00
1.00043966e+00
1.00042111e+00
1.00040229e+00
1.00038335e+00
1.00036444e+00
1.00034572e+00
1.00032734e+00
1.00030944e+00
1.00029217e+00
1.00027565e+00
1.00026002e+00
1.00024536e+00
1.00023177e+00
1.00021930e+00
1.00020800e+00
1.00019789e+00
1.00018896e+00
1.00018118e+00
1.00017450e+00
1.00016885e+00
1.00016414e+00
1.00016023e+00
1.00015701e+00
1.00015434e+00
1.00015204e+00
1.00014997e+00
1.00014796e+00
1.00014583e+00
1.00014345e+00
1.00014065e+00
1.00013729e+00
1.00013325e+00
1.00012842e+00
1.00012271e+00
1.00011606e+00
1.00010843e+00
1.00009978e+00
1.00009014e+00
1.00007951e+00
1.00006796e+00
1.00005555e+00
1.00004236e+00
1.00002851e+00
1.00001412e+00
9.99999321e-01
9.99984252e-01
9.99969070e-01
9.99953935e-01
9.99938999e-01
9.99924409e-01
9.99910342e-01
9.99896948e-01
9.99884336e-01
9.99872662e-01
9.99862081e-01
9.99852653e-01
9.99844482e-01
9.99837711e-01
9.99832384e-01
9.99828552e-01
9.99826238e-01
9.99825277e-01
1.00083345e+00
1.00083283e+00
1.00083136e+00
1.00082896e+00
1.00082561e+00
1.00082133e+00
1.00081619e+00
1.00081027e+00
1.00080358e+00
1.00079622e+00
1.00078828e+00
1.00077983e+00
1.00077093e+00
1.00076171e+00
1.00075225e+00
1.00074262e+00
1.00073293e+00
1.00072328e+00
1.00071373e+00
1.00070439e+00
1.00069532e+00
1.00068660e+00
1.00067830e+00
1.00067047e+00
1.00066316e+00
1.00065642e+00
1.00065029e+00
1.00064478e+00
1.00063991e+00
1.00063568e+00
1.00063210e+00
1.00062916e+00
1.00062682e+00
1.00062505e+00
1.00062383e+00
1.00062310e+00
1.00062280e+00
1.00062287e+00
1.00062324e+00
1.00062383e+00
1.00062457e+00
1.00062535e+00
1.00062610e+00
1.00062672e+00
1.00062711e+00
1.00062717e+00
1.00062681e+00
1.00062593e+00
1.00062443e+00
1.00062224e+00
1.00061926e+00
1.00061542e+00
1.00061065e+00
1.00060489e+00
1.00059810e+00
1.00059023e+00
1.00058127e+00
1.00057120e+00
1.00056003e+00
1.00054778e+00
1.00053449e+00
1.00052021e+00
1.00050502e+00
1.00048898e+00
1.00047221e+00
1.00045481e+00
1.00043691e+00
1.00041863e+00
1.00040012e+00
1.00038153e+00
1.00036300e+00
1.00034468e+00
1.00032673e+00
1.00030928e+00
1.00029247e+00
1.00027643e+00
1.00026127e+00
1.00024708e+00
1.00023393e+00
1.00022190e+00
1.00021101e+00
1.00020128e+00
1.00019269e+00
1.00018522e+00
1.00017882e+00
1.00017339e+00
1.00016886e+00
1.00016509e+00
1.00016197e+00
1.00015935e+00
1.00015708e+00
1.00015500e+00
1.00015295e+00
1.00015077e+00
1.00014831e+00
1.00014542e+00
1.00014196e+00
1.00013783e+00
1.00013291e+00
1.00012712e+00
1.00012040e+00
1.00011271e+00
1.00010404e+00
1.00009438e+00
1.00008376e+00
1.00007224e+00
1.00005988e+00
1.00004677e+00
1.00003302e+00
1.00001874e+00
1.00000407e+00
9.99989142e-01
9.99974110e-01
9.99959125e-01
9.99944349e-01
9.99929927e-01
9.99916003e-01
9.99902743e-01
9.99890286e-01
9.99878732e-01
9.99868227e-01
9.99858900e-01
9.99850809e-01
9.99844055e-01
9.99838748e-01
9.99834928e-01
9.99832577e-01
9.99831574e-01
1.00083381e+00
1.00083307e+00
1.00083145e+00
1.00082889e+00
1.00082536e+00
1.00082091e+00
1.00081559e+00
1.00080945e+00
1.00080257e+00
1.00079503e+00
1.00078689e+00
1.00077824e+00
1.00076917e+00
1.00075979e+00
1.00075016e+00
1.00074039e+00
1.00073057e+00
1.00072080e+00
1.00071116e+00
1.00070173e+00
1.00069260e+00
1.00068383e+00
1.00067550e+00
1.00066765e+00
1.00066035e+00
1.00065362e+00
1.00064751e+00
1.00064203e+00
1.00063721e+00
1.00063303e+00
1.00062951e+00
1.00062662e+00
1.00062434e+00
1.00062264e+00
1.00062148e+00
1.00062080e+00
1.00062055e+00
1.00062066e+00
1.00062106e+00
1.00062168e+00
1.00062242e+00
1.00062320e+00
1.00062393e+00
1.00062452e+00
1.00062486e+00
1.00062486e+00
1.00062442e+00
1.00062345e+00
1.00062186e+00
1.00061955e+00
1.00061646e+00
1.00061250e+00
1.00060761e+00
1.00060173e+00
1.00059482e+00
1.00058685e+00
1.00057780e+00
1.00056766e+00
1.00055644e+00
1.00054418e+00
1.00053090e+00
1.00051666e+00
1.00050155e+00
1.00048563e+00
1.00046902e+00
1.00045182e+00
1.00043415e+00
1.00041616e+00
1.00039797e+00
1.00037973e+00
1.00036159e+00
1.00034369e+00
1.00032618e+00
1.00030920e+00
1.00029287e+00
1.00027731e+00
1.00026264e+00
1.00024892e+00
1.00023625e+00
1.00022467e+00
1.00021420e+00
1.00020487e+00
1.00019665e+00
1.00018950e+00
1.00018338e+00
1.00017820e+00
1.00017386e+00
1.00017025e+00
1.00016724e+00
1.00016470e+00
1.00016246e+00
1.00016038e+00
1.00015831e+00
1.00015608e+00
1.00015355e+00
1.00015057e+00
1.00014703e+00
1.00014280e+00
1.00013780e+00
1.00013193e+00
1.00012514e+00
1.00011739e+00
1.00010868e+00
1.00009900e+00
1.00008839e+00
1.00007689e+00
1.00006457e+00
1.00005153e+00
1.00003786e+00
1.00002368e+00
1.00000912e+00
9.99994319e-01
9.99979425e-01
9.99964580e-01
9.99949938e-01
9.99935659e-01
9.99921880e-01
9.99908739e-01
9.99896392e-01
9.99884960e-01
9.99874544e-01
9.99865272e-01
9.99857245e-01
9.99850536e-01
9.99845231e-01
9.99841392e-01
9.99839017e-01
9.99837995e-01
1.00083415e+00
1.00083330e+00
1.00083153e+00
1.00082880e+00
1.00082509e+00
1.00082045e+00
1.00081493e+00
1.00080858e+00
1.00080150e+00
1.00079374e+00
1.00078538e+00
1.00077653e+00
1.00076727e+00
1.00075768e+00
1.00074787e+00
1.00073794e+00
1.00072797e+00
1.00071806e+00
1.00070830e+00
1.00069877e+00
1.00068955e+00
1.00068072e+00
1.00067233e+00
1.00066445e+00
1.00065713e+00
1.00065040e+00
1.00064430e+00
1.00063884e+00
1.00063405e+00
1.00062992e+00
1.00062645e+00
1.00062362e+00
1.00062140e+00
1.00061976e+00
1.00061866e+00
1.00061804e+00
1.00061784e+00
1.00061800e+00
1.00061845e+00
1.00061910e+00
1.00061986e+00
1.00062066e+00
1.00062139e+00
1.00062196e+00
1.00062227e+00
1.00062223e+00
1.00062173e+00
1.00062070e+00
1.00061903e+00
1.00061664e+00
1.00061345e+00
1.00060939e+00
1.00060440e+00
1.00059842e+00
1.00059142e+00
1.00058336e+00
1.00057424e+00
1.00056405e+00
1.00055280e+00
1.00054053e+00
1.00052727e+00
1.00051309e+00
1.00049807e+00
1.00048228e+00
1.00046584e+00