# vtk DataFile Version 2.0
LBM Flow Field - Timestep 1150
ASCII
DATASET STRUCTURED_POINTS
DIMENSIONS 128 128 1
ORIGIN 0.0 0.0 0.0
SPACING 1.0 1.0 1.0
POINT_DATA 16384
SCALARS density double 1
LOOKUP_TABLE default
9.99306025e-01
9.99332007e-01
9.99357301e-01
9.99347080e-01
9.99336458e-01
9.99329366e-01
9.99319290e-01
9.99307365e-01
9.99297745e-01
9.99290818e-01
9.99287105e-01
9.99287739e-01
9.99293578e-01
9.99304974e-01
9.99322171e-01
9.99345184e-01
9.99373818e-01
9.99407689e-01
9.99446256e-01
9.99488849e-01
9.99534721e-01
9.99583075e-01
9.99633093e-01
9.99683973e-01
9.99734953e-01
9.99785333e-01
9.99834486e-01
9.99881874e-01
9.99927049e-01
9.99969656e-01
1.00000943e+00
1.00004620e+00
1.00007984e+00
1.00011035e+00
1.00013772e+00
1.00016203e+00
1.00018340e+00
1.00020195e+00
1.00021783e+00
1.00023121e+00
1.00024226e+00
1.00025114e+00
1.00025801e+00
1.00026304e+00
1.00026635e+00
1.00026809e+00
1.00026837e+00
1.00026732e+00
1.00026504e+00
1.00026163e+00
1.00025717e+00
1.00025175e+00
1.00024546e+00
1.00023838e+00
1.00023059e+00
1.00022215e+00
1.00021315e+00
1.00020366e+00
1.00019376e+00
1.00018350e+00
1.00017297e+00
1.00016223e+00
1.00015134e+00
1.00014038e+00
1.00012940e+00
1.00011847e+00
1.00010765e+00
1.00009701e+00
1.00008662e+00
1.00007655e+00
1.00006687e+00
1.00005767e+00
1.00004904e+00
1.00004107e+00
1.00003386e+00
1.00002754e+00
1.00002223e+00
1.00001807e+00
1.00001521e+00
1.00001381e+00
1.00001404e+00
1.00001610e+00
1.00002018e+00
1.00002648e+00
1.00003520e+00
1.00004657e+00
1.00006078e+00
1.00007802e+00
1.00009849e+00
1.00012233e+00
1.00014968e+00
1.00018063e+00
1.00021520e+00
1.00025340e+00
1.00029514e+00
1.00034028e+00
1.00038859e+00
1.00043978e+00
1.00049346e+00
1.00054918e+00
1.00060641e+00
1.00066454e+00
1.00072293e+00
1.00078088e+00
1.00083767e+00
1.00089257e+00
1.00094488e+00
1.00099393e+00
1.00103912e+00
1.00107992e+00
1.00111594e+00
1.00114688e+00
1.00117259e+00
1.00119309e+00
1.00120853e+00
1.00121920e+00
1.00122557e+00
1.00122814e+00
1.00122774e+00
1.00122528e+00
1.00122123e+00
1.00121568e+00
1.00121219e+00
1.00121139e+00
1.00120686e+00
1.00120187e+00
1.00123042e+00
1.00125774e+00
9.99335378e-01
9.99342638e-01
9.99358154e-01
9.99352483e-01
9.99345485e-01
9.99336347e-01
9.99326386e-01
9.99315514e-01
9.99306214e-01
9.99299103e-01
9.99295484e-01
9.99296060e-01
9.99301611e-01
9.99312550e-01
9.99329180e-01
9.99351491e-01
9.99379315e-01
9.99412286e-01
9.99449897e-01
9.99491506e-01
9.99536393e-01
9.99583782e-01
9.99632884e-01
9.99682915e-01
9.99733132e-01
9.99782844e-01
9.99831437e-01
9.99878377e-01
9.99923217e-01
9.99965601e-01
1.00000526e+00
1.00004201e+00
1.00007573e+00
1.00010639e+00
1.00013399e+00
1.00015859e+00
1.00018028e+00
1.00019920e+00
1.00021547e+00
1.00022925e+00
1.00024070e+00
1.00024998e+00
1.00025723e+00
1.00026262e+00
1.00026628e+00
1.00026834e+00
1.00026891e+00
1.00026812e+00
1.00026607e+00
1.00026286e+00
1.00025857e+00
1.00025330e+00
1.00024713e+00
1.00024014e+00
1.00023242e+00
1.00022403e+00
1.00021506e+00
1.00020559e+00
1.00019568e+00
1.00018541e+00
1.00017485e+00
1.00016407e+00
1.00015314e+00
1.00014212e+00
1.00013109e+00
1.00012010e+00
1.00010922e+00
1.00009852e+00
1.00008807e+00
1.00007795e+00
1.00006822e+00
1.00005899e+00
1.00005033e+00
1.00004234e+00
1.00003514e+00
1.00002884e+00
1.00002357e+00
1.00001946e+00
1.00001667e+00
1.00001537e+00
1.00001572e+00
1.00001791e+00
1.00002214e+00
1.00002861e+00
1.00003752e+00
1.00004908e+00
1.00006349e+00
1.00008094e+00
1.00010161e+00
1.00012564e+00
1.00015316e+00
1.00018425e+00
1.00021893e+00
1.00025720e+00
1.00029895e+00
1.00034404e+00
1.00039224e+00
1.00044324e+00
1.00049666e+00
1.00055203e+00
1.00060883e+00
1.00066646e+00
1.00072427e+00
1.00078157e+00
1.00083766e+00
1.00089181e+00
1.00094335e+00
1.00099162e+00
1.00103604e+00
1.00107610e+00
1.00111143e+00
1.00114174e+00
1.00116692e+00
1.00118697e+00
1.00120207e+00
1.00121248e+00
1.00121874e+00
1.00122134e+00
1.00122106e+00
1.00121846e+00
1.00121473e+00
1.00121004e+00
1.00120658e+00
1.00120374e+00
1.00120269e+00
1.00120184e+00
1.00122112e+00
1.00123011e+00
9.99370998e-01
9.99368742e-01
9.99359584e-01
9.99362151e-01
9.99359314e-01
9.99347071e-01
9.99335808e-01
9.99326023e-01
9.99316570e-01
9.99308949e-01
9.99304975e-01
9.99305153e-01
9.99310090e-01
9.99320327e-01
9.99336136e-01
9.99357534e-01
9.99384376e-01
9.99416312e-01
9.99452851e-01
9.99493388e-01
9.99537224e-01
9.99583606e-01
9.99631763e-01
9.99680936e-01
9.99730392e-01
9.99779456e-01
9.99827519e-01
9.99874054e-01
9.99918614e-01
9.99960843e-01
1.00000047e+00
1.00003729e+00
1.00007119e+00
1.00010211e+00
1.00013006e+00
1.00015507e+00
1.00017723e+00
1.00019664e+00
1.00021344e+00
1.00022776e+00
1.00023976e+00
1.00024957e+00
1.00025735e+00
1.00026323e+00
1.00026735e+00
1.00026983e+00
1.00027080e+00
1.00027035e+00
1.00026861e+00
1.00026565e+00
1.00026159e+00
1.00025650e+00
1.00025047e+00
1.00024359e+00
1.00023594e+00
1.00022759e+00
1.00021864e+00
1.00020915e+00
1.00019921e+00
1.00018888e+00
1.00017825e+00
1.00016738e+00
1.00015635e+00
1.00014522e+00
1.00013406e+00
1.00012295e+00
1.00011195e+00
1.00010113e+00
1.00009056e+00
1.00008032e+00
1.00007050e+00
1.00006118e+00
1.00005245e+00
1.00004441e+00
1.00003717e+00
1.00003085e+00
1.00002559e+00
1.00002152e+00
1.00001879e+00
1.00001758e+00
1.00001805e+00
1.00002039e+00
1.00002479e+00
1.00003145e+00
1.00004058e+00
1.00005237e+00
1.00006703e+00
1.00008473e+00
1.00010565e+00
1.00012992e+00
1.00015766e+00
1.00018895e+00
1.00022379e+00
1.00026217e+00
1.00030398e+00
1.00034906e+00
1.00039717e+00
1.00044801e+00
1.00050117e+00
1.00055619e+00
1.00061255e+00
1.00066964e+00
1.00072682e+00
1.00078341e+00
1.00083871e+00
1.00089203e+00
1.00094268e+00
1.00099004e+00
1.00103354e+00
1.00107271e+00
1.00110717e+00
1.00113668e+00
1.00116113e+00
1.00118054e+00
1.00119508e+00
1.00120509e+00
1.00121100e+00
1.00121342e+00
1.00121300e+00
1.00121017e+00
1.00120642e+00
1.00120287e+00
1.00119829e+00
1.00119263e+00
1.00119552e+00
1.00120290e+00
1.00119811e+00
1.00119803e+00
9.99380135e-01
9.99381995e-01
9.99379878e-01
9.99378261e-01
9.99369392e-01
9.99359309e-01
9.99349170e-01
9.99338170e-01
9.99327968e-01
9.99320325e-01
9.99315874e-01
9.99315319e-01
9.99319494e-01
9.99328886e-01
9.99343711e-01
9.99364032e-01
9.99389723e-01
9.99420467e-01
9.99455795e-01
9.99495126e-01
9.99537788e-01
9.99583057e-01
9.99630186e-01
9.99678430e-01
9.99727076e-01
9.99775461e-01
9.99822984e-01
9.99869121e-01
9.99913427e-01
9.99955540e-01
9.99995181e-01
1.00003215e+00
1.00006630e+00
1.00009758e+00
1.00012597e+00
1.00015149e+00
1.00017421e+00
1.00019423e+00
1.00021166e+00
1.00022663e+00
1.00023927e+00
1.00024971e+00
1.00025810e+00
1.00026457e+00
1.00026923e+00
1.00027222e+00
1.00027364e+00
1.00027361e+00
1.00027223e+00
1.00026959e+00
1.00026578e+00
1.00026091e+00
1.00025506e+00
1.00024830e+00
1.00024074e+00
1.00023244e+00
1.00022350e+00
1.00021400e+00
1.00020401e+00
1.00019361e+00
1.00018288e+00
1.00017190e+00
1.00016074e+00
1.00014947e+00
1.00013817e+00
1.00012690e+00
1.00011574e+00
1.00010477e+00
1.00009405e+00
1.00008368e+00
1.00007373e+00
1.00006430e+00
1.00005548e+00
1.00004737e+00
1.00004009e+00
1.00003376e+00
1.00002851e+00
1.00002449e+00
1.00002185e+00
1.00002075e+00
1.00002137e+00
1.00002390e+00
1.00002852e+00
1.00003543e+00
1.00004483e+00
1.00005691e+00
1.00007187e+00
1.00008988e+00
1.00011110e+00
1.00013566e+00
1.00016367e+00
1.00019517e+00
1.00023019e+00
1.00026868e+00
1.00031052e+00
1.00035555e+00
1.00040352e+00
1.00045409e+00
1.00050689e+00
1.00056143e+00
1.00061719e+00
1.00067357e+00
1.00072994e+00
1.00078562e+00
1.00083994e+00
1.00089221e+00
1.00094177e+00
1.00098803e+00
1.00103044e+00
1.00106855e+00
1.00110202e+00
1.00113061e+00
1.00115423e+00
1.00117293e+00
1.00118691e+00
1.00119647e+00
1.00120204e+00
1.00120418e+00
1.00120370e+00
1.00120117e+00
1.00119700e+00
1.00119267e+00
1.00118942e+00
1.00118600e+00
1.00118315e+00
1.00118679e+00
1.00118896e+00
1.00119317e+00
9.99394319e-01
9.99398396e-01
9.99400325e-01
9.99392615e-01
9.99383056e-01
9.99375147e-01
9.99363868e-01
9.99351646e-01
9.99341462e-01
9.99333501e-01
9.99328220e-01
9.99326881e-01
9.99330212e-01
9.99338559e-01
9.99352217e-01
9.99371288e-01
9.99395643e-01
9.99424999e-01
9.99458925e-01
9.99496862e-01
9.99538174e-01
9.99582166e-01
9.99628116e-01
9.99675302e-01
9.99723030e-01
9.99770650e-01
9.99817570e-01
9.99863269e-01
9.99907304e-01
9.99949308e-01
9.99988994e-01
1.00002615e+00
1.00006062e+00
1.00009233e+00
1.00012125e+00
1.00014738e+00
1.00017078e+00
1.00019152e+00
1.00020969e+00
1.00022542e+00
1.00023882e+00
1.00025001e+00
1.00025911e+00
1.00026626e+00
1.00027157e+00
1.00027515e+00
1.00027711e+00
1.00027757e+00
1.00027661e+00
1.00027434e+00
1.00027086e+00
1.00026625e+00
1.00026060e+00
1.00025400e+00
1.00024655e+00
1.00023833e+00
1.00022941e+00
1.00021990e+00
1.00020987e+00
1.00019940e+00
1.00018858e+00
1.00017748e+00
1.00016618e+00
1.00015476e+00
1.00014330e+00
1.00013186e+00
1.00012054e+00
1.00010940e+00
1.00009853e+00
1.00008801e+00
1.00007793e+00
1.00006839e+00
1.00005948e+00
1.00005131e+00
1.00004400e+00
1.00003767e+00
1.00003246e+00
1.00002852e+00
1.00002600e+00
1.00002506e+00
1.00002587e+00
1.00002863e+00
1.00003353e+00
1.00004074e+00
1.00005047e+00
1.00006290e+00
1.00007822e+00
1.00009659e+00
1.00011817e+00
1.00014306e+00
1.00017136e+00
1.00020311e+00
1.00023830e+00
1.00027689e+00
1.00031873e+00
1.00036366e+00
1.00041139e+00
1.00046162e+00
1.00051392e+00
1.00056784e+00
1.00062284e+00
1.00067833e+00
1.00073368e+00
1.00078825e+00
1.00084136e+00
1.00089236e+00
1.00094062e+00
1.00098556e+00
1.00102667e+00
1.00106353e+00
1.00109583e+00
1.00112335e+00
1.00114603e+00
1.00116393e+00
1.00117725e+00
1.00118630e+00
1.00119156e+00
1.00119349e+00
1.00119272e+00
1.00119034e+00
1.00118667e+00
1.00118161e+00
1.00117753e+00
1.00117651e+00
1.00117341e+00
1.00117130e+00
1.00117733e+00
1.00118377e+00
9.99416524e-01
9.99417787e-01
9.99416356e-01
9.99410345e-01
9.99402812e-01
9.99391987e-01
9.99379397e-01
9.99367907e-01
9.99357316e-01
9.99348196e-01
9.99342136e-01
9.99340021e-01
9.99342255e-01
9.99349346e-01
9.99361665e-01
9.99379288e-01
9.99402108e-01
9.99429877e-01
9.99462196e-01
9.99498547e-01
9.99538325e-01
9.99580864e-01
9.99625473e-01
9.99671457e-01
9.99718140e-01
9.99764887e-01
9.99811116e-01
9.99856314e-01
9.99900034e-01
9.99941905e-01
9.99981633e-01
1.00001899e+00
1.00005381e+00
1.00008601e+00
1.00011551e+00
1.00014233e+00
1.00016649e+00
1.00018803e+00
1.00020706e+00
1.00022365e+00
1.00023791e+00
1.00024994e+00
1.00025987e+00
1.00026781e+00
1.00027385e+00
1.00027812e+00
1.00028071e+00
1.00028174e+00
1.00028129e+00
1.00027947e+00
1.00027636e+00
1.00027208e+00
1.00026669e+00
1.00026031e+00
1.00025301e+00
1.00024490e+00
1.00023605e+00
1.00022656e+00
1.00021651e+00
1.00020600e+00
1.00019510e+00
1.00018390e+00
1.00017249e+00
1.00016093e+00
1.00014933e+00
1.00013774e+00
1.00012626e+00
1.00011498e+00
1.00010397e+00
1.00009332e+00
1.00008313e+00
1.00007349e+00
1.00006452e+00
1.00005632e+00
1.00004901e+00
1.00004272e+00
1.00003759e+00
1.00003376e+00
1.00003140e+00
1.00003067e+00
1.00003174e+00
1.00003479e+00
1.00004001e+00
1.00004758e+00
1.00005770e+00
1.00007054e+00
1.00008627e+00
1.00010505e+00
1.00012701e+00
1.00015227e+00
1.00018088e+00
1.00021288e+00
1.00024824e+00
1.00028689e+00
1.00032869e+00
1.00037344e+00
1.00042086e+00
1.00047062e+00
1.00052231e+00
1.00057545e+00
1.00062952e+00
1.00068393e+00
1.00073808e+00
1.00079131e+00
1.00084300e+00
1.00089251e+00
1.00093924e+00
1.00098264e+00
1.00102225e+00
1.00105766e+00
1.00108860e+00
1.00111489e+00
1.00113648e+00
1.00115345e+00
1.00116601e+00
1.00117445e+00
1.00117928e+00
1.00118106e+00
1.00118015e+00
1.00117730e+00
1.00117379e+00
1.00116987e+00
1.00116500e+00
1.00116161e+00
1.00116077e+00
1.00116043e+00
1.00116343e+00
1.00116724e+00
9.99439538e-01
9.99440223e-01
9.99436883e-01
9.99431662e-01
9.99422916e-01
9.99410697e-01
9.99398653e-01
9.99386641e-01
9.99374734e-01
9.99364890e-01
9.99358130e-01
9.99354825e-01
9.99355712e-01
9.99361424e-01
9.99372203e-01
9.99388137e-01
9.99409195e-01
9.99435153e-01
9.99465643e-01
9.99500187e-01
9.99538217e-01
9.99579102e-01
9.99622184e-01
9.99666793e-01
9.99712277e-01
9.99758017e-01
9.99803444e-01
9.99848046e-01
9.99891380e-01
9.99933069e-01
9.99972808e-01
1.00001036e+00
1.00004554e+00
1.00007824e+00
1.00010838e+00
1.00013593e+00
1.00016090e+00
1.00018333e+00
1.00020328e+00
1.00022082e+00
1.00023603e+00
1.00024901e+00
1.00025985e+00
1.00026866e+00
1.00027554e+00
1.00028059e+00
1.00028391e+00
1.00028559e+00
1.00028573e+00
1.00028444e+00
1.00028179e+00
1.00027790e+00
1.00027286e+00
1.00026675e+00
1.00025968e+00
1.00025174e+00
1.00024302e+00
1.00023361e+00
1.00022360e+00
1.00021310e+00
1.00020217e+00
1.00019093e+00
1.00017944e+00
1.00016780e+00
1.00015609e+00
1.00014440e+00
1.00013281e+00
1.00012142e+00
1.00011031e+00
1.00009958e+00
1.00008933e+00
1.00007965e+00
1.00007066e+00
1.00006247e+00
1.00005522e+00
1.00004902e+00
1.00004402e+00
1.00004038e+00
1.00003824e+00
1.00003777e+00
1.00003915e+00
1.00004256e+00
1.00004817e+00
1.00005616e+00
1.00006672e+00
1.00008002e+00
1.00009621e+00
1.00011544e+00
1.00013783e+00
1.00016346e+00
1.00019239e+00
1.00022462e+00
1.00026012e+00
1.00029880e+00
1.00034049e+00
1.00038498e+00
1.00043199e+00
1.00048116e+00
1.00053208e+00
1.00058428e+00
1.00063724e+00
1.00069037e+00
1.00074309e+00
1.00079478e+00
1.00084481e+00
1.00089260e+00
1.00093756e+00
1.00097920e+00
1.00101708e+00
1.00105083e+00
1.00108021e+00
1.00110508e+00
1.00112541e+00
1.00114129e+00
1.00115296e+00
1.00116073e+00
1.00116497e+00
1.00116631e+00
1.00116542e+00
1.00116256e+00
1.00115841e+00
1.00115454e+00
1.00115075e+00
1.00114646e+00
1.00114472e+00
1.00114536e+00
1.00114677e+00
1.00115021e+00
9.99463636e-01
9.99464504e-01
9.99461638e-01
9.99454974e-01
9.99444801e-01
9.99433166e-01
9.99420579e-01
9.99407048e-01
9.99394507e-01
9.99384046e-01
9.99376010e-01
9.99371308e-01
9.99370810e-01
9.99374919e-01
9.99383894e-01
9.99397924e-01
9.99416992e-01
9.99440899e-01
9.99469323e-01
9.99501824e-01
9.99537874e-01
9.99576886e-01
9.99618231e-01
9.99661270e-01
9.99705376e-01
9.99749949e-01
9.99794431e-01
9.99838317e-01
9.99881163e-01
9.99922589e-01
9.99962279e-01
9.99999979e-01
1.00003550e+00
1.00006869e+00
1.00009947e+00
1.00012778e+00
1.00015361e+00
1.00017697e+00
1.00019789e+00
1.00021644e+00
1.00023267e+00
1.00024667e+00
1.00025851e+00
1.00026828e+00
1.00027608e+00
1.00028200e+00
1.00028612e+00
1.00028855e+00
1.00028938e+00
1.00028870e+00
1.00028661e+00
1.00028321e+00
1.00027859e+00
1.00027285e+00
1.00026608e+00
1.00025840e+00
1.00024988e+00
1.00024064e+00
1.00023076e+00
1.00022034e+00
1.00020947e+00
1.00019825e+00
1.00018677e+00
1.00017512e+00
1.00016339e+00
1.00015166e+00
1.00014005e+00
1.00012862e+00
1.00011749e+00
1.00010675e+00
1.00009651e+00
1.00008686e+00
1.00007793e+00
1.00006984e+00
1.00006271e+00
1.00005668e+00
1.00005190e+00
1.00004850e+00
1.00004666e+00
1.00004654e+00
1.00004831e+00
1.00005214e+00
1.00005821e+00
1.00006669e+00
1.00007775e+00
1.00009155e+00
1.00010825e+00
1.00012796e+00
1.00015078e+00
1.00017679e+00
1.00020603e+00
1.00023847e+00
1.00027406e+00
1.00031270e+00
1.00035419e+00
1.00039832e+00
1.00044478e+00
1.00049322e+00
1.00054321e+00
1.00059429e+00
1.00064593e+00
1.00069758e+00
1.00074865e+00
1.00079856e+00
1.00084670e+00
1.00089252e+00
1.00093549e+00
1.00097513e+00
1.00101104e+00
1.00104291e+00
1.00107053e+00
1.00109378e+00
1.00111266e+00
1.00112729e+00
1.00113790e+00
1.00114484e+00
1.00114849e+00
1.00114927e+00
1.00114793e+00
1.00114516e+00
1.00114108e+00
1.00113641e+00
1.00113262e+00
1.00112928e+00
1.00112658e+00
1.00112616e+00
1.00112806e+00
1.00113185e+00
9.99491693e-01
9.99491978e-01
9.99488456e-01
9.99480741e-01
9.99470353e-01
9.99458244e-01
9.99444325e-01
9.99430154e-01
9.99417024e-01
9.99405238e-01
9.99395792e-01
9.99389761e-01
9.99387642e-01
9.99389854e-01
9.99396827e-01
9.99408742e-01
9.99425572e-01
9.99447176e-01
9.99473281e-01
9.99503490e-01
9.99537317e-01
9.99574215e-01
9.99613592e-01
9.99654844e-01
9.99697370e-01
9.99740588e-01
9.99783956e-01
9.99826975e-01
9.99869203e-01
9.99910254e-01
9.99949803e-01
9.99987583e-01
1.00002338e+00
1.00005704e+00
1.00008843e+00
1.00011750e+00
1.00014419e+00
1.00016850e+00
1.00019044e+00
1.00021004e+00
1.00022735e+00
1.00024243e+00
1.00025533e+00
1.00026615e+00
1.00027494e+00
1.00028181e+00
1.00028683e+00
1.00029010e+00
1.00029170e+00
1.00029174e+00
1.00029029e+00
1.00028748e+00
1.00028338e+00
1.00027811e+00
1.00027176e+00
1.00026443e+00
1.00025623e+00
1.00024725e+00
1.00023760e+00
1.00022737e+00
1.00021666e+00
1.00020558e+00
1.00019421e+00
1.00018265e+00
1.00017100e+00
1.00015935e+00
1.00014780e+00
1.00013645e+00
1.00012541e+00
1.00011476e+00
1.00010462e+00
1.00009512e+00
1.00008635e+00
1.00007845e+00
1.00007155e+00
1.00006579e+00
1.00006131e+00
1.00005827e+00
1.00005682e+00
1.00005713e+00
1.00005936e+00
1.00006370e+00
1.00007030e+00
1.00007933e+00
1.00009095e+00
1.00010531e+00
1.00012253e+00
1.00014274e+00
1.00016601e+00
1.00019240e+00
1.00022191e+00
1.00025452e+00
1.00029014e+00
1.00032865e+00
1.00036984e+00
1.00041348e+00
1.00045926e+00
1.00050680e+00
1.00055568e+00
1.00060544e+00
1.00065556e+00
1.00070550e+00
1.00075470e+00
1.00080258e+00
1.00084859e+00
1.00089221e+00
1.00093293e+00
1.00097033e+00
1.00100405e+00
1.00103382e+00
1.00105945e+00
1.00108088e+00
1.00109812e+00
1.00111132e+00
1.00112070e+00
1.00112659e+00
1.00112947e+00
1.00112977e+00
1.00112786e+00
1.00112457e+00
1.00112060e+00
1.00111594e+00
1.00111139e+00
1.00110804e+00
1.00110550e+00
1.00110432e+00
1.00110571e+00
1.00110910e+00
9.99522934e-01
9.99522207e-01
9.99517683e-01
9.99509639e-01
9.99498781e-01
9.99485471e-01
9.99470817e-01
9.99456070e-01
9.99441656e-01
9.99428507e-01
9.99417799e-01
9.99410148e-01
9.99406101e-01
9.99406283e-01
9.99411066e-01
9.99420605e-01
9.99434947e-01
9.99454006e-01
9.99477539e-01
9.99505198e-01
9.99536547e-01
9.99571079e-01
9.99608246e-01
9.99647478e-01
9.99688202e-01
9.99729859e-01
9.99771921e-01
9.99813900e-01
9.99855354e-01
9.99895893e-01
9.99935183e-01
9.99972942e-01
1.00000894e+00
1.00004299e+00
1.00007496e+00
1.00010475e+00
1.00013230e+00
1.00015756e+00
1.00018052e+00
1.00020120e+00
1.00021962e+00
1.00023582e+00
1.00024985e+00
1.00026176e+00
1.00027163e+00
1.00027953e+00
1.00028553e+00
1.00028973e+00
1.00029220e+00
1.00029305e+00
1.00029236e+00
1.00029024e+00
1.00028678e+00
1.00028209e+00
1.00027627e+00
1.00026942e+00
1.00026165e+00
1.00025307e+00
1.00024377e+00
1.00023386e+00
1.00022344e+00
1.00021261e+00
1.00020148e+00
1.00019015e+00
1.00017871e+00
1.00016726e+00
1.00015592e+00
1.00014477e+00
1.00013393e+00
1.00012351e+00
1.00011361e+00
1.00010436e+00
1.00009588e+00
1.00008830e+00
1.00008175e+00
1.00007637e+00
1.00007232e+00
1.00006973e+00
1.00006878e+00
1.00006963e+00
1.00007243e+00
1.00007735e+00
1.00008456e+00
1.00009421e+00
1.00010644e+00
1.00012140e+00
1.00013919e+00
1.00015991e+00
1.00018363e+00
1.00021036e+00
1.00024012e+00
1.00027283e+00
1.00030840e+00
1.00034668e+00
1.00038746e+00
1.00043047e+00
1.00047540e+00
1.00052187e+00
1.00056946e+00
1.00061769e+00
1.00066608e+00
1.00071408e+00
1.00076117e+00
1.00080679e+00
1.00085044e+00
1.00089160e+00
1.00092984e+00
1.00096477e+00
1.00099607e+00
1.00102351e+00
1.00104694e+00
1.00106633e+00
1.00108172e+00
1.00109329e+00
1.00110128e+00
1.00110599e+00
1.00110783e+00
1.00110736e+00
1.00110501e+00
1.00110116e+00
1.00109663e+00
1.00109196e+00
1.00108722e+00
1.00108318e+00
1.00108047e+00
1.00107911e+00
1.00107971e+00
1.00108227e+00
9.99556743e-01
9.99555330e-01
9.99549974e-01
9.99541228e-01
9.99529460e-01
9.99515362e-01
9.99500075e-01
9.99484169e-01
9.99468447e-01
9.99454101e-01
9.99441840e-01
9.99432288e-01
9.99426232e-01
9.99424218e-01
9.99426553e-01
9.99433483e-01
9.99445114e-01
9.99461378e-01
9.99482083e-01
9.99506934e-01
9.99535545e-01
9.99567456e-01
9.99602162e-01
9.99639130e-01
9.99677817e-01
9.99717691e-01
9.99758241e-01
9.99798987e-01
9.99839490e-01
9.99879359e-01
9.99918249e-01
9.99955864e-01
9.99991955e-01
1.00002632e+00
1.00005879e+00
1.00008926e+00
1.00011761e+00
1.00014380e+00
1.00016779e+00
1.00018956e+00
1.00020911e+00
1.00022646e+00
1.00024165e+00
1.00025472e+00
1.00026573e+00
1.00027473e+00
1.00028180e+00
1.00028701e+00
1.00029045e+00
1.00029221e+00
1.00029239e+00
1.00029107e+00
1.00028837e+00
1.00028439e+00
1.00027922e+00
1.00027299e+00
1.00026579e+00
1.00025773e+00
1.00024893e+00
1.00023948e+00
1.00022950e+00
1.00021908e+00
1.00020834e+00
1.00019738e+00
1.00018630e+00
1.00017521e+00
1.00016421e+00
1.00015342e+00
1.00014294e+00
1.00013289e+00
1.00012338e+00
1.00011453e+00
1.00010648e+00
1.00009936e+00
1.00009330e+00
1.00008844e+00
1.00008493e+00
1.00008294e+00
1.00008260e+00
1.00008409e+00
1.00008756e+00
1.00009316e+00
1.00010106e+00
1.00011140e+00
1.00012431e+00
1.00013990e+00
1.00015828e+00
1.00017953e+00
1.00020367e+00
1.00023073e+00
1.00026067e+00
1.00029342e+00
1.00032885e+00
1.00036680e+00
1.00040703e+00
1.00044926e+00
1.00049318e+00
1.00053840e+00
1.00058449e+00
1.00063100e+00
1.00067743e+00
1.00072328e+00
1.00076803e+00
1.00081117e+00
1.00085221e+00
1.00089070e+00
1.00092623e+00
1.00095845e+00
1.00098710e+00
1.00101199e+00
1.00103300e+00
1.00105014e+00
1.00106349e+00
1.00107321e+00
1.00107957e+00
1.00108294e+00
1.00108363e+00
1.00108212e+00
1.00107901e+00
1.00107468e+00
1.00106951e+00
1.00106427e+00
1.00105934e+00
1.00105488e+00
1.00105156e+00
1.00104967e+00
1.00104950e+00
1.00105144e+00
9.99593107e-01
9.99590918e-01
9.99584781e-01
9.99575164e-01
9.99562586e-01
9.99547789e-01
9.99531477e-01
9.99514368e-01
9.99497508e-01
9.99481704e-01
9.99467635e-01
9.99456160e-01
9.99447961e-01
9.99443496e-01
9.99443184e-01
9.99447319e-01
9.99456007e-01
9.99469232e-01
9.99486863e-01
9.99508657e-01
9.99534276e-01
9.99563312e-01
9.99595305e-01
9.99629761e-01
9.99666174e-01
9.99704037e-01
9.99742856e-01
9.99782165e-01
9.99821529e-01
9.99860554e-01
9.99898886e-01
9.99936216e-01
9.99972278e-01
1.00000685e+00
1.00003974e+00
1.00007080e+00
1.00009991e+00
1.00012699e+00
1.00015198e+00
1.00017482e+00
1.00019551e+00
1.00021405e+00
1.00023043e+00
1.00024470e+00
1.00025690e+00
1.00026707e+00
1.00027528e+00
1.00028159e+00
1.00028610e+00
1.00028888e+00
1.00029003e+00
1.00028965e+00
1.00028783e+00
1.00028468e+00
1.00028031e+00
1.00027483e+00
1.00026835e+00
1.00026097e+00
1.00025281e+00
1.00024398e+00
1.00023458e+00
1.00022474e+00
1.00021455e+00
1.00020412e+00
1.00019356e+00
1.00018299e+00
1.00017251e+00
1.00016223e+00
1.00015228e+00
1.00014276e+00
1.00013380e+00
1.00012552e+00
1.00011806e+00
1.00011155e+00
1.00010612e+00
1.00010193e+00
1.00009912e+00
1.00009784e+00
1.00009825e+00
1.00010050e+00
1.00010475e+00
1.00011114e+00
1.00011982e+00
1.00013091e+00
1.00014455e+00
1.00016082e+00
1.00017982e+00
1.00020159e+00
1.00022615e+00
1.00025349e+00
1.00028356e+00
1.00031627e+00
1.00035146e+00
1.00038895e+00
1.00042850e+00
1.00046981e+00
1.00051255e+00
1.00055633e+00
1.00060074e+00
1.00064531e+00
1.00068959e+00
1.00073307e+00
1.00077526e+00
1.00081569e+00
1.00085392e+00
1.00088951e+00
1.00092211e+00
1.00095142e+00
1.00097721e+00
1.00099934e+00
1.00101773e+00
1.00103241e+00
1.00104350e+00
1.00105119e+00
1.00105573e+00
1.00105748e+00
1.00105685e+00
1.00105421e+00
1.00105004e+00
1.00104490e+00
1.00103915e+00
1.00103320e+00
1.00102763e+00
1.00102271e+00
1.00101879e+00
1.00101617e+00
1.00101517e+00
1.00101633e+00
9.99631816e-01
9.99628731e-01
9.99621686e-01
9.99611239e-01
9.99597888e-01
9.99582184e-01
9.99564785e-01
9.99546586e-01
9.99528410e-01
9.99510951e-01
9.99495075e-01
9.99481570e-01
9.99471005e-01
9.99463936e-01
9.99460830e-01
9.99461964e-01
9.99467492e-01
9.99477462e-01
9.99491794e-01
9.99510292e-01
9.99532678e-01
9.99558595e-01
9.99587631e-01
9.99619337e-01
9.99653241e-01
9.99688863e-01
9.99725732e-01
9.99763396e-01
9.99801424e-01
9.99839422e-01
9.99877029e-01
9.99913923e-01
9.99949820e-01
9.99984475e-01
1.00001768e+00
1.00004925e+00
1.00007906e+00
1.00010697e+00
1.00013292e+00
1.00015682e+00
1.00017864e+00
1.00019836e+00
1.00021597e+00
1.00023148e+00
1.00024491e+00
1.00025631e+00
1.00026574e+00
1.00027325e+00
1.00027891e+00
1.00028282e+00
1.00028505e+00
1.00028571e+00
1.00028490e+00
1.00028273e+00
1.00027929e+00
1.00027471e+00
1.00026909e+00
1.00026254e+00
1.00025519e+00
1.00024713e+00
1.00023849e+00
1.00022938e+00
1.00021990e+00
1.00021018e+00
1.00020032e+00
1.00019044e+00
1.00018064e+00
1.00017106e+00
1.00016180e+00
1.00015298e+00
1.00014474e+00
1.00013720e+00
1.00013050e+00
1.00012476e+00
1.00012013e+00
1.00011676e+00
1.00011480e+00
1.00011438e+00
1.00011567e+00
1.00011881e+00
1.00012395e+00
1.00013122e+00
1.00014076e+00
1.00015269e+00
1.00016711e+00
1.00018410e+00
1.00020373e+00
1.00022602e+00
1.00025098e+00
1.00027857e+00
1.00030872e+00
1.00034130e+00
1.00037615e+00
1.00041307e+00
1.00045180e+00
1.00049203e+00
1.00053343e+00
1.00057561e+00
1.00061815e+00
1.00066060e+00
1.00070252e+00
1.00074343e+00
1.00078288e+00
1.00082041e+00
1.00085561e+00
1.00088812e+00
1.00091760e+00
1.00094380e+00
1.00096654e+00
1.00098571e+00
1.00100129e+00
1.00101332e+00
1.00102195e+00
1.00102740e+00
1.00102993e+00
1.00102988e+00
1.00102766e+00
1.00102370e+00
1.00101836e+00
1.00101213e+00
1.00100551e+00
1.00099881e+00
1.00099242e+00
1.00098678e+00
1.00098215e+00
1.00097869e+00
1.00097671e+00
1.00097693e+00
9.99672247e-01
9.99668204e-01
9.99660267e-01
9.99649009e-01
9.99634795e-01
9.99618127e-01
9.99599715e-01
9.99580332e-01
9.99560684e-01
9.99541583e-01
9.99523841e-01
9.99508124e-01
9.99495082e-01
9.99485311e-01
9.99479242e-01
9.99477194e-01
9.99479388e-01
9.99485914e-01
9.99496738e-01
9.99511728e-01
9.99530662e-01
9.99553236e-01
9.99579091e-01
9.99607820e-01
9.99638990e-01
9.99672152e-01
9.99706860e-01
9.99742674e-01
9.99779172e-01
9.99815960e-01
9.99852672e-01
9.99888972e-01
9.99924562e-01
9.99959175e-01
9.99992579e-01
1.00002457e+00
1.00005499e+00
1.00008368e+00
1.00011054e+00
1.00013547e+00
1.00015841e+00
1.00017931e+00
1.00019815e+00
1.00021493e+00
1.00022965e+00
1.00024234e+00
1.00025305e+00
1.00026183e+00
1.00026874e+00
1.00027387e+00
1.00027731e+00
1.00027913e+00
1.00027946e+00
1.00027838e+00
1.00027602e+00
1.00027247e+00
1.00026787e+00
1.00026230e+00
1.00025591e+00
1.00024879e+00
1.00024107e+00
1.00023285e+00
1.00022426e+00
1.00021541e+00
1.00020642e+00
1.00019739e+00
1.00018846e+00
1.00017974e+00
1.00017135e+00
1.00016341e+00
1.00015607e+00
1.00014943e+00
1.00014365e+00
1.00013886e+00
1.00013519e+00
1.00013280e+00
1.00013183e+00
1.00013243e+00
1.00013473e+00
1.00013888e+00
1.00014503e+00
1.00015329e+00
1.00016378e+00
1.00017662e+00
1.00019188e+00
1.00020962e+00
1.00022990e+00
1.00025272e+00
1.00027805e+00
1.00030585e+00
1.00033600e+00
1.00036838e+00
1.00040280e+00
1.00043904e+00
1.00047682e+00
1.00051583e+00
1.00055574e+00
1.00059615e+00
1.00063665e+00
1.00067682e+00
1.00071621e+00
1.00075439e+00
1.00079091e+00
1.00082537e+00
1.00085739e+00
1.00088664e+00
1.00091283e+00
1.00093576e+00
1.00095529e+00
1.00097134e+00
1.00098393e+00
1.00099314e+00
1.00099913e+00
1.00100214e+00
1.00100247e+00
1.00100045e+00
1.00099644e+00
1.00099088e+00
1.00098418e+00
1.00097674e+00
1.00096897e+00
1.00096129e+00
1.00095399e+00
1.00094743e+00
1.00094190e+00
1.00093750e+00
1.00093446e+00
1.00093359e+00
9.99713781e-01
9.99708791e-01
9.99699948e-01
9.99687842e-01
9.99672749e-01
9.99655144e-01
9.99635681e-01
9.99615031e-01
9.99593924e-01
9.99573153e-01
9.99553423e-01
9.99535429e-01
9.99519854e-01
9.99507256e-01
9.99498091e-01
9.99492740e-01
9.99491456e-01
9.99494371e-01
9.99501516e-01
9.99512817e-01
9.99528109e-01
9.99547145e-01
9.99569617e-01
9.99595167e-01
9.99623400e-01
9.99653903e-01
9.99686252e-01
9.99720023e-01
9.99754807e-01
9.99790209e-01
9.99825858e-01
9.99861411e-01
9.99896551e-01
9.99930994e-01
9.99964485e-01
9.99996798e-01
1.00002774e+00
1.00005714e+00
1.00008486e+00
1.00011078e+00
1.00013482e+00
1.00015690e+00
1.00017699e+00
1.00019506e+00
1.00021110e+00
1.00022514e+00
1.00023719e+00
1.00024732e+00
1.00025557e+00
1.00026202e+00
1.00026676e+00
1.00026986e+00
1.00027144e+00
1.00027160e+00
1.00027044e+00
1.00026807e+00
1.00026462e+00
1.00026019e+00
1.00025490e+00
1.00024887e+00
1.00024222e+00
1.00023506e+00
1.00022752e+00
1.00021970e+00
1.00021174e+00
1.00020374e+00
1.00019584e+00
1.00018815e+00
1.00018079e+00
1.00017391e+00
1.00016762e+00
1.00016206e+00
1.00015737e+00
1.00015369e+00
1.00015114e+00
1.00014989e+00
1.00015006e+00
1.00015181e+00
1.00015526e+00
1.00016055e+00
1.00016781e+00
1.00017716e+00
1.00018870e+00
1.00020251e+00
1.00021866e+00
1.00023720e+00
1.00025815e+00
1.00028149e+00
1.00030718e+00
1.00033514e+00
1.00036525e+00
1.00039735e+00
1.00043124e+00
1.00046669e+00
1.00050341e+00
1.00054109e+00
1.00057937e+00
1.00061787e+00
1.00065620e+00
1.00069394e+00
1.00073066e+00
1.00076596e+00
1.00079942e+00
1.00083067e+00
1.00085937e+00
1.00088523e+00
1.00090802e+00
1.00092755e+00
1.00094373e+00
1.00095653e+00
1.00096598e+00
1.00097222e+00
1.00097542e+00
1.00097584e+00
1.00097377e+00
1.00096957e+00
1.00096361e+00
1.00095627e+00
1.00094797e+00
1.00093911e+00
1.00093004e+00
1.00092115e+00
1.00091275e+00
1.00090512e+00
1.00089854e+00
1.00089308e+00
1.00088887e+00
1.00088681e+00
9.99755682e-01
9.99749732e-01
9.99740005e-01
9.99727059e-01
9.99711109e-01
9.99692569e-01
9.99672021e-01
9.99650119e-01
9.99627564e-01
9.99605062e-01
9.99583311e-01
9.99563026e-01
9.99544848e-01
9.99529340e-01
9.99517011e-01
9.99508264e-01
9.99503386e-01
9.99502571e-01
9.99505907e-01
9.99513376e-01
9.99524872e-01
9.99540210e-01
9.99559133e-01
9.99581332e-01
9.99606455e-01
9.99634122e-01
9.99663936e-01
9.99695493e-01
9.99728394e-01
9.99762247e-01
9.99796680e-01
9.99831339e-01
9.99865894e-01
9.99900042e-01
9.99933508e-01
9.99966042e-01
9.99997424e-01
1.00002746e+00
1.00005599e+00
1.00008286e+00
1.00010797e+00
1.00013123e+00
1.00015257e+00
1.00017196e+00
1.00018936e+00
1.00020479e+00
1.00021825e+00
1.00022980e+00
1.00023947e+00
1.00024734e+00
1.00025347e+00
1.00025797e+00
1.00026092e+00
1.00026242e+00
1.00026259e+00
1.00026154e+00
1.00025937e+00
1.00025621e+00
1.00025217e+00
1.00024737e+00
1.00024193e+00
1.00023598e+00
1.00022963e+00
1.00022300e+00
1.00021621e+00