# vtk DataFile Version 2.0
LBM Flow Field - Timestep 460
ASCII
DATASET STRUCTURED_POINTS
DIMENSIONS 128 128 1
ORIGIN 0.0 0.0 0.0
SPACING 1.0 1.0 1.0
POINT_DATA 16384
SCALARS density double 1
LOOKUP_TABLE default
1.00592556e+00
1.00592542e+00
1.00592475e+00
1.00592283e+00
1.00591989e+00
1.00591561e+00
1.00590920e+00
1.00589988e+00
1.00588674e+00
1.00586857e+00
1.00584390e+00
1.00581102e+00
1.00576804e+00
1.00571283e+00
1.00564320e+00
1.00555700e+00
1.00545219e+00
1.00532707e+00
1.00518041e+00
1.00501159e+00
1.00482079e+00
1.00460906e+00
1.00437837e+00
1.00413159e+00
1.00387241e+00
1.00360517e+00
1.00333462e+00
1.00306572e+00
1.00280329e+00
1.00255174e+00
1.00231488e+00
1.00209565e+00
1.00189606e+00
1.00171710e+00
1.00155881e+00
1.00142040e+00
1.00130038e+00
1.00119682e+00
1.00110749e+00
1.00103014e+00
1.00096259e+00
1.00090289e+00
1.00084939e+00
1.00080071e+00
1.00075581e+00
1.00071387e+00
1.00067428e+00
1.00063660e+00
1.00060046e+00
1.00056559e+00
1.00053176e+00
1.00049877e+00
1.00046646e+00
1.00043470e+00
1.00040337e+00
1.00037239e+00
1.00034170e+00
1.00031123e+00
1.00028095e+00
1.00025079e+00
1.00022070e+00
1.00019060e+00
1.00016040e+00
1.00013001e+00
1.00009931e+00
1.00006818e+00
1.00003649e+00
1.00000415e+00
9.99971038e-01
9.99937073e-01
9.99902181e-01
9.99866300e-01
9.99829379e-01
9.99791365e-01
9.99752194e-01
9.99711783e-01
9.99670021e-01
9.99626762e-01
9.99581824e-01
9.99534982e-01
9.99485971e-01
9.99434476e-01
9.99380119e-01
9.99322432e-01
9.99260823e-01
9.99194529e-01
9.99122565e-01
9.99043686e-01
9.98956365e-01
9.98858808e-01
9.98749028e-01
9.98624960e-01
9.98484647e-01
9.98326460e-01
9.98149341e-01
9.97953037e-01
9.97738283e-01
9.97506906e-01
9.97261824e-01
9.97006934e-01
9.96746884e-01
9.96486772e-01
9.96231787e-01
9.95986854e-01
9.95756313e-01
9.95543664e-01
9.95351417e-01
9.95181033e-01
9.95032957e-01
9.94906734e-01
9.94801173e-01
9.94714540e-01
9.94644752e-01
9.94589558e-01
9.94546693e-01
9.94513996e-01
9.94489487e-01
9.94471418e-01
9.94458313e-01
9.94448967e-01
9.94442378e-01
9.94437791e-01
9.94434714e-01
9.94432703e-01
9.94431212e-01
9.94430160e-01
9.94430301e-01
9.94430671e-01
1.00592593e+00
1.00592536e+00
1.00592429e+00
1.00592215e+00
1.00591888e+00
1.00591406e+00
1.00590699e+00
1.00589687e+00
1.00588267e+00
1.00586317e+00
1.00583687e+00
1.00580208e+00
1.00575689e+00
1.00569926e+00
1.00562707e+00
1.00553828e+00
1.00543099e+00
1.00530368e+00
1.00515527e+00
1.00498534e+00
1.00479422e+00
1.00458306e+00
1.00435391e+00
1.00410962e+00
1.00385382e+00
1.00359068e+00
1.00332477e+00
1.00306078e+00
1.00280325e+00
1.00255632e+00
1.00232354e+00
1.00210767e+00
1.00191057e+00
1.00173318e+00
1.00157556e+00
1.00143702e+00
1.00131622e+00
1.00121139e+00
1.00112052e+00
1.00104152e+00
1.00097236e+00
1.00091120e+00
1.00085643e+00
1.00080672e+00
1.00076100e+00
1.00071842e+00
1.00067833e+00
1.00064024e+00
1.00060377e+00
1.00056861e+00
1.00053451e+00
1.00050128e+00
1.00046875e+00
1.00043677e+00
1.00040525e+00
1.00037409e+00
1.00034322e+00
1.00031259e+00
1.00028213e+00
1.00025180e+00
1.00022153e+00
1.00019123e+00
1.00016083e+00
1.00013023e+00
1.00009930e+00
1.00006795e+00
1.00003605e+00
1.00000349e+00
9.99970174e-01
9.99936014e-01
9.99900933e-01
9.99864865e-01
9.99827751e-01
9.99789533e-01
9.99750141e-01
9.99709489e-01
9.99667463e-01
9.99623920e-01
9.99578675e-01
9.99531504e-01
9.99482135e-01
9.99430237e-01
9.99375409e-01
9.99317152e-01
9.99254838e-01
9.99187671e-01
9.99114651e-01
9.99034544e-01
9.98945873e-01
9.98846946e-01
9.98735920e-01
9.98610915e-01
9.98470181e-01
9.98312284e-01
9.98136328e-01
9.97942145e-01
9.97730467e-01
9.97503009e-01
9.97262483e-01
9.97012494e-01
9.96757360e-01
9.96501838e-01
9.96250815e-01
9.96008981e-01
9.95780529e-01
9.95568914e-01
9.95376690e-01
9.95205436e-01
9.95055769e-01
9.94927432e-01
9.94819436e-01
9.94730232e-01
9.94657892e-01
9.94600289e-01
9.94555239e-01
9.94520631e-01
9.94494507e-01
9.94475128e-01
9.94460989e-01
9.94450850e-01
9.94443685e-01
9.94438702e-01
9.94435289e-01
9.94432995e-01
9.94431426e-01
9.94430339e-01
9.94430126e-01
9.94429970e-01
1.00592645e+00
1.00592539e+00
1.00592363e+00
1.00592122e+00
1.00591757e+00
1.00591207e+00
1.00590422e+00
1.00589316e+00
1.00587774e+00
1.00585669e+00
1.00582853e+00
1.00579156e+00
1.00574388e+00
1.00568351e+00
1.00560845e+00
1.00551675e+00
1.00540671e+00
1.00527696e+00
1.00512664e+00
1.00495551e+00
1.00476408e+00
1.00455363e+00
1.00432627e+00
1.00408486e+00
1.00383292e+00
1.00357448e+00
1.00331387e+00
1.00305550e+00
1.00280358e+00
1.00256196e+00
1.00233390e+00
1.00212193e+00
1.00192775e+00
1.00175225e+00
1.00159550e+00
1.00145690e+00
1.00133529e+00
1.00122909e+00
1.00113650e+00
1.00105564e+00
1.00098464e+00
1.00092178e+00
1.00086553e+00
1.00081460e+00
1.00076789e+00
1.00072454e+00
1.00068385e+00
1.00064529e+00
1.00060843e+00
1.00057293e+00
1.00053852e+00
1.00050500e+00
1.00047219e+00
1.00043994e+00
1.00040816e+00
1.00037675e+00
1.00034564e+00
1.00031476e+00
1.00028406e+00
1.00025348e+00
1.00022294e+00
1.00019237e+00
1.00016169e+00
1.00013078e+00
1.00009956e+00
1.00006790e+00
1.00003570e+00
1.00000284e+00
9.99969230e-01
9.99934779e-01
9.99899408e-01
9.99863048e-01
9.99825637e-01
9.99787111e-01
9.99747397e-01
9.99706407e-01
9.99664029e-01
9.99620115e-01
9.99574484e-01
9.99526905e-01
9.99477094e-01
9.99424705e-01
9.99369305e-01
9.99310361e-01
9.99247208e-01
9.99179019e-01
9.99104783e-01
9.99023286e-01
9.98933115e-01
9.98832691e-01
9.98720333e-01
9.98594365e-01
9.98453253e-01
9.98295771e-01
9.98121185e-01
9.97929416e-01
9.97721181e-01
9.97498076e-01
9.97262584e-01
9.97018004e-01
9.96768296e-01
9.96517856e-01
9.96271243e-01
9.96032892e-01
9.95806836e-01
9.95596471e-01
9.95404392e-01
9.95232301e-01
9.95080995e-01
9.94950429e-01
9.94839831e-01
9.94747854e-01
9.94672745e-01
9.94612511e-01
9.94565066e-01
9.94528351e-01
9.94500438e-01
9.94479594e-01
9.94464291e-01
9.94453235e-01
9.94445404e-01
9.94439959e-01
9.94436149e-01
9.94433455e-01
9.94431767e-01
9.94430676e-01
9.94429693e-01
9.94429056e-01
1.00592650e+00
1.00592507e+00
1.00592292e+00
1.00591990e+00
1.00591553e+00
1.00590929e+00
1.00590045e+00
1.00588806e+00
1.00587103e+00
1.00584802e+00
1.00581753e+00
1.00577785e+00
1.00572715e+00
1.00566353e+00
1.00558510e+00
1.00549010e+00
1.00537702e+00
1.00524473e+00
1.00509259e+00
1.00492060e+00
1.00472942e+00
1.00452049e+00
1.00429594e+00
1.00405859e+00
1.00381183e+00
1.00355944e+00
1.00330544e+00
1.00305389e+00
1.00280862e+00
1.00257311e+00
1.00235031e+00
1.00214249e+00
1.00195122e+00
1.00177734e+00
1.00162100e+00
1.00148175e+00
1.00135865e+00
1.00125039e+00
1.00115542e+00
1.00107209e+00
1.00099873e+00
1.00093375e+00
1.00087571e+00
1.00082331e+00
1.00077547e+00
1.00073125e+00
1.00068992e+00
1.00065087e+00
1.00061362e+00
1.00057780e+00
1.00054311e+00
1.00050931e+00
1.00047624e+00
1.00044373e+00
1.00041169e+00
1.00038002e+00
1.00034864e+00
1.00031749e+00
1.00028651e+00
1.00025563e+00
1.00022479e+00
1.00019390e+00
1.00016289e+00
1.00013164e+00
1.00010007e+00
1.00006805e+00
1.00003549e+00
1.00000228e+00
9.99968317e-01
9.99933517e-01
9.99897799e-01
9.99861094e-01
9.99823336e-01
9.99784457e-01
9.99744383e-01
9.99703023e-01
9.99660263e-01
9.99615955e-01
9.99569913e-01
9.99521897e-01
9.99471609e-01
9.99418674e-01
9.99362623e-01
9.99302878e-01
9.99238722e-01
9.99169285e-01
9.99093533e-01
9.99010263e-01
9.98918122e-01
9.98815652e-01
9.98701353e-01
9.98573782e-01
9.98431669e-01
9.98274054e-01
9.98100427e-01
9.97910858e-01
9.97706104e-01
9.97487671e-01
9.97257826e-01
9.97019538e-01
9.96776360e-01
9.96532253e-01
9.96291364e-01
9.96057780e-01
9.95835288e-01
9.95627158e-01
9.95435979e-01
9.95263554e-01
9.95110863e-01
9.94978097e-01
9.94864736e-01
9.94769684e-01
9.94691406e-01
9.94628088e-01
9.94577777e-01
9.94538506e-01
9.94508389e-01
9.94485695e-01
9.94468899e-01
9.94456678e-01
9.94447922e-01
9.94441742e-01
9.94437446e-01
9.94434415e-01
9.94432260e-01
9.94430761e-01
9.94429557e-01
9.94428667e-01
1.00592626e+00
1.00592439e+00
1.00592180e+00
1.00591809e+00
1.00591290e+00
1.00590571e+00
1.00589560e+00
1.00588160e+00
1.00586260e+00
1.00583722e+00
1.00580391e+00
1.00576100e+00
1.00570673e+00
1.00563930e+00
1.00555698e+00
1.00545820e+00
1.00534171e+00
1.00520664e+00
1.00505264e+00
1.00487993e+00
1.00468942e+00
1.00448264e+00
1.00426178e+00
1.00402959e+00
1.00378926e+00
1.00354429e+00
1.00329833e+00
1.00305498e+00
1.00281764e+00
1.00258936e+00
1.00237269e+00
1.00216965e+00
1.00198164e+00
1.00180947e+00
1.00165337e+00
1.00151310e+00
1.00138797e+00
1.00127699e+00
1.00117892e+00
1.00109240e+00
1.00101600e+00
1.00094830e+00
1.00088793e+00
1.00083365e+00
1.00078433e+00
1.00073900e+00
1.00069684e+00
1.00065718e+00
1.00061947e+00
1.00058327e+00
1.00054826e+00
1.00051418e+00
1.00048082e+00
1.00044804e+00
1.00041572e+00
1.00038376e+00
1.00035210e+00
1.00032065e+00
1.00028937e+00
1.00025817e+00
1.00022699e+00
1.00019575e+00
1.00016436e+00
1.00013273e+00
1.00010076e+00
1.00006835e+00
1.00003539e+00
1.00000177e+00
9.99967413e-01
9.99932218e-01
9.99896109e-01
9.99859011e-01
9.99820856e-01
9.99781574e-01
9.99741087e-01
9.99699301e-01
9.99656100e-01
9.99611332e-01
9.99564804e-01
9.99516262e-01
9.99465382e-01
9.99411755e-01
9.99354861e-01
9.99294061e-01
9.99228575e-01
9.99157483e-01
9.99079721e-01
9.98994105e-01
9.98899361e-01
9.98794183e-01
9.98677294e-01
9.98547538e-01
9.98403967e-01
9.98245942e-01
9.98073227e-01
9.97886076e-01
9.97685297e-01
9.97472302e-01
9.97249105e-01
9.97018294e-01
9.96782947e-01
9.96546512e-01
9.96312641e-01
9.96085002e-01
9.95867074e-01
9.95661961e-01
9.95472223e-01
9.95299763e-01
9.95145762e-01
9.95010673e-01
9.94894273e-01
9.94795755e-01
9.94713850e-01
9.94646959e-01
9.94593295e-01
9.94551003e-01
9.94518260e-01
9.94493348e-01
9.94474730e-01
9.94461069e-01
9.94451193e-01
9.94444119e-01
9.94439134e-01
9.94435649e-01
9.94433039e-01
9.94431065e-01
9.94429607e-01
9.94428373e-01
1.00592562e+00
1.00592328e+00
1.00592008e+00
1.00591570e+00
1.00590962e+00
1.00590118e+00
1.00588953e+00
1.00587366e+00
1.00585232e+00
1.00582412e+00
1.00578753e+00
1.00574091e+00
1.00568256e+00
1.00561081e+00
1.00552414e+00
1.00542122e+00
1.00530105e+00
1.00516309e+00
1.00500727e+00
1.00483410e+00
1.00464469e+00
1.00444072e+00
1.00422437e+00
1.00399831e+00
1.00376550e+00
1.00352910e+00
1.00329232e+00
1.00305830e+00
1.00282991e+00
1.00260974e+00
1.00239993e+00
1.00220221e+00
1.00201781e+00
1.00184750e+00
1.00169163e+00
1.00155017e+00
1.00142272e+00
1.00130864e+00
1.00120704e+00
1.00111686e+00
1.00103692e+00
1.00096600e+00
1.00090286e+00
1.00084627e+00
1.00079512e+00
1.00074837e+00
1.00070514e+00
1.00066467e+00
1.00062634e+00
1.00058966e+00
1.00055424e+00
1.00051979e+00
1.00048609e+00
1.00045298e+00
1.00042033e+00
1.00038805e+00
1.00035605e+00
1.00032426e+00
1.00029261e+00
1.00026104e+00
1.00022948e+00
1.00019784e+00
1.00016604e+00
1.00013398e+00
1.00010157e+00
1.00006871e+00
1.00003530e+00
1.00000124e+00
9.99966426e-01
9.99930779e-01
9.99894215e-01
9.99856659e-01
9.99818040e-01
9.99778283e-01
9.99737308e-01
9.99695019e-01
9.99651292e-01
9.99605971e-01
9.99558848e-01
9.99509649e-01
9.99458019e-01
9.99403501e-01
9.99345520e-01
9.99283371e-01
9.99216211e-01
9.99143072e-01
9.99062872e-01
9.98974462e-01
9.98876667e-01
9.98768355e-01
9.98648503e-01
9.98516266e-01
9.98371045e-01
9.98212546e-01
9.98040826e-01
9.97856338e-01
9.97659953e-01
9.97452985e-01
9.97237188e-01
9.97014744e-01
9.96788224e-01
9.96560516e-01
9.96334727e-01
9.96114046e-01
9.95901594e-01
9.95700259e-01
9.95512542e-01
9.95340428e-01
9.95185295e-01
9.95047878e-01
9.94928273e-01
9.94825998e-01
9.94740082e-01
9.94669186e-01
9.94611717e-01
9.94565955e-01
9.94530163e-01
9.94502665e-01
9.94481902e-01
9.94466490e-01
9.94455247e-01
9.94447152e-01
9.94441324e-01
9.94437147e-01
9.94434092e-01
9.94431766e-01
9.94429878e-01
9.94428250e-01
1.00592431e+00
1.00592158e+00
1.00591777e+00
1.00591263e+00
1.00590548e+00
1.00589564e+00
1.00588222e+00
1.00586415e+00
1.00584010e+00
1.00580868e+00
1.00576837e+00
1.00571756e+00
1.00565465e+00
1.00557815e+00
1.00548673e+00
1.00537934e+00
1.00525530e+00
1.00511438e+00
1.00495684e+00
1.00478348e+00
1.00459561e+00
1.00439505e+00
1.00418398e+00
1.00396494e+00
1.00374061e+00
1.00351380e+00
1.00328724e+00
1.00306352e+00
1.00284499e+00
1.00263372e+00
1.00243144e+00
1.00223955e+00
1.00205911e+00
1.00189087e+00
1.00173529e+00
1.00159256e+00
1.00146262e+00
1.00134516e+00
1.00123966e+00
1.00114540e+00
1.00106149e+00
1.00098691e+00
1.00092055e+00
1.00086126e+00
1.00080790e+00
1.00075943e+00
1.00071486e+00
1.00067337e+00
1.00063426e+00
1.00059696e+00
1.00056104e+00
1.00052614e+00
1.00049204e+00
1.00045854e+00
1.00042550e+00
1.00039283e+00
1.00036044e+00
1.00032825e+00
1.00029620e+00
1.00026421e+00
1.00023221e+00
1.00020012e+00
1.00016786e+00
1.00013533e+00
1.00010244e+00
1.00006909e+00
1.00003519e+00
1.00000062e+00
9.99965306e-01
9.99929153e-01
9.99892078e-01
9.99854005e-01
9.99814858e-01
9.99774561e-01
9.99733029e-01
9.99690162e-01
9.99645832e-01
9.99599869e-01
9.99552047e-01
9.99502066e-01
9.99449529e-01
9.99393926e-01
9.99334618e-01
9.99270830e-01
9.99201658e-01
9.99126088e-01
9.99043038e-01
9.98951407e-01
9.98850146e-01
9.98738324e-01
9.98615195e-01
9.98480252e-01
9.98333268e-01
9.98174306e-01
9.98003731e-01
9.97822197e-01
9.97630640e-01
9.97430267e-01
9.97222561e-01
9.97009281e-01
9.96792463e-01
9.96574403e-01
9.96357621e-01
9.96144787e-01
9.95938621e-01
9.95741756e-01
9.95556603e-01
9.95385209e-01
9.95229147e-01
9.95089435e-01
9.94966510e-01
9.94860239e-01
9.94769985e-01
9.94694693e-01
9.94633003e-01
9.94583356e-01
9.94544112e-01
9.94513650e-01
9.94490421e-01
9.94473000e-01
9.94460141e-01
9.94450798e-01
9.94444027e-01
9.94439089e-01
9.94435466e-01
9.94432732e-01
9.94430467e-01
9.94428567e-01
1.00592224e+00
1.00591916e+00
1.00591480e+00
1.00590873e+00
1.00590036e+00
1.00588896e+00
1.00587351e+00
1.00585289e+00
1.00582578e+00
1.00579075e+00
1.00574628e+00
1.00569084e+00
1.00562296e+00
1.00554133e+00
1.00544484e+00
1.00533276e+00
1.00520474e+00
1.00506089e+00
1.00490181e+00
1.00472859e+00
1.00454275e+00
1.00434621e+00
1.00414115e+00
1.00392991e+00
1.00371493e+00
1.00349857e+00
1.00328306e+00
1.00307043e+00
1.00286248e+00
1.00266076e+00
1.00246655e+00
1.00228093e+00
1.00210480e+00
1.00193887e+00
1.00178373e+00
1.00163978e+00
1.00150728e+00
1.00138630e+00
1.00127667e+00
1.00117804e+00
1.00108980e+00
1.00101116e+00
1.00094116e+00
1.00087875e+00
1.00082280e+00
1.00077224e+00
1.00072604e+00
1.00068328e+00
1.00064318e+00
1.00060510e+00
1.00056854e+00
1.00053311e+00
1.00049852e+00
1.00046457e+00
1.00043109e+00
1.00039798e+00
1.00036515e+00
1.00033251e+00
1.00030001e+00
1.00026756e+00
1.00023509e+00
1.00020252e+00
1.00016976e+00
1.00013673e+00
1.00010333e+00
1.00006946e+00
1.00003502e+00
9.99999920e-01
9.99964066e-01
9.99927366e-01
9.99889738e-01
9.99851100e-01
9.99811375e-01
9.99770485e-01
9.99728339e-01
9.99684831e-01
9.99639824e-01
9.99593131e-01
9.99544502e-01
9.99493600e-01
9.99439979e-01
9.99383068e-01
9.99322158e-01
9.99256407e-01
9.99184855e-01
9.99106459e-01
9.99020154e-01
9.98924916e-01
9.98819844e-01
9.98704234e-01
9.98577639e-01
9.98439902e-01
9.98291169e-01
9.98131866e-01
9.97962656e-01
9.97784388e-01
9.97598052e-01
9.97404747e-01
9.97205679e-01
9.97002179e-01
9.96795741e-01
9.96588056e-01
9.96381040e-01
9.96176814e-01
9.95977659e-01
9.95785922e-01
9.95603888e-01
9.95433639e-01
9.95276924e-01
9.95135041e-01
9.95008772e-01
9.94898356e-01
9.94803510e-01
9.94723496e-01
9.94657207e-01
9.94603285e-01
9.94560211e-01
9.94526417e-01
9.94500380e-01
9.94480671e-01
9.94465974e-01
9.94455157e-01
9.94447274e-01
9.94441519e-01
9.94437240e-01
9.94434008e-01
9.94431443e-01
9.94429347e-01
1.00591942e+00
1.00591598e+00
1.00591099e+00
1.00590393e+00
1.00589419e+00
1.00588098e+00
1.00586324e+00
1.00583978e+00
1.00580926e+00
1.00577022e+00
1.00572119e+00
1.00566073e+00
1.00558751e+00
1.00550042e+00
1.00539863e+00
1.00528173e+00
1.00514970e+00
1.00500303e+00
1.00484265e+00
1.00466994e+00
1.00448661e+00
1.00429467e+00
1.00409625e+00
1.00389352e+00
1.00368858e+00
1.00348336e+00
1.00327957e+00
1.00307868e+00
1.00288190e+00
1.00269024e+00
1.00250458e+00
1.00232566e+00
1.00215421e+00
1.00199091e+00
1.00183644e+00
1.00169145e+00
1.00155649e+00
1.00143198e+00
1.00131812e+00
1.00121490e+00
1.00112204e+00
1.00103897e+00
1.00096493e+00
1.00089896e+00
1.00083999e+00
1.00078695e+00
1.00073874e+00
1.00069441e+00
1.00065307e+00
1.00061402e+00
1.00057668e+00
1.00054059e+00
1.00050542e+00
1.00047093e+00
1.00043695e+00
1.00040335e+00
1.00037003e+00
1.00033690e+00
1.00030391e+00
1.00027096e+00
1.00023799e+00
1.00020492e+00
1.00017165e+00
1.00013810e+00
1.00010417e+00
1.00006976e+00
1.00003478e+00
9.99999127e-01
9.99962711e-01
9.99925440e-01
9.99887227e-01
9.99847990e-01
9.99807648e-01
9.99766118e-01
9.99723307e-01
9.99679097e-01
9.99633337e-01
9.99585820e-01
9.99536262e-01
9.99484279e-01
9.99429369e-01
9.99370891e-01
9.99308069e-01
9.99239996e-01
9.99165668e-01
9.99084036e-01
9.98994076e-01
9.98894873e-01
9.98785706e-01
9.98666121e-01
9.98535983e-01
9.98395494e-01
9.98245168e-01
9.98085772e-01
9.97918249e-01
9.97743621e-01
9.97562915e-01
9.97377110e-01
9.97187134e-01
9.96993893e-01
9.96798345e-01
9.96601584e-01
9.96404915e-01
9.96209900e-01
9.96018364e-01
9.95832335e-01
9.95653938e-01
9.95485264e-01
9.95328210e-01
9.95184343e-01
9.95054785e-01
9.94940151e-01
9.94840534e-01
9.94755535e-01
9.94684330e-01
9.94625775e-01
9.94578506e-01
9.94541041e-01
9.94511874e-01
9.94489572e-01
9.94472793e-01
9.94460329e-01
9.94451159e-01
9.94444441e-01
9.94439455e-01
9.94435701e-01
9.94432811e-01
9.94430517e-01
1.00591578e+00
1.00591197e+00
1.00590625e+00
1.00589810e+00
1.00588684e+00
1.00587158e+00
1.00585127e+00
1.00582467e+00
1.00579037e+00
1.00574696e+00
1.00569301e+00
1.00562717e+00
1.00554830e+00
1.00545550e+00
1.00534826e+00
1.00522648e+00
1.00509053e+00
1.00494123e+00
1.00477987e+00
1.00460808e+00
1.00442777e+00
1.00424098e+00
1.00404979e+00
1.00385615e+00
1.00366182e+00
1.00346828e+00
1.00327670e+00
1.00308798e+00
1.00290278e+00
1.00272159e+00
1.00254484e+00
1.00237300e+00
1.00220659e+00
1.00204628e+00
1.00189283e+00
1.00174709e+00
1.00160989e+00
1.00148197e+00
1.00136391e+00
1.00125602e+00
1.00115833e+00
1.00107054e+00
1.00099208e+00
1.00092213e+00
1.00085971e+00
1.00080375e+00
1.00075315e+00
1.00070688e+00
1.00066401e+00
1.00062374e+00
1.00058541e+00
1.00054850e+00
1.00051264e+00
1.00047753e+00
1.00044298e+00
1.00040882e+00
1.00037497e+00
1.00034132e+00
1.00030780e+00
1.00027433e+00
1.00024084e+00
1.00020724e+00
1.00017345e+00
1.00013937e+00
1.00010490e+00
1.00006995e+00
1.00003442e+00
9.99998212e-01
9.99961223e-01
9.99923363e-01
9.99884545e-01
9.99844682e-01
9.99803691e-01
9.99761483e-01
9.99717956e-01
9.99672982e-01
9.99626390e-01
9.99577941e-01
9.99527311e-01
9.99474061e-01
9.99417624e-01
9.99357290e-01
9.99292213e-01
9.99221435e-01
9.99143928e-01
9.99058662e-01
9.98964689e-01
9.98861232e-01
9.98747780e-01
9.98624150e-01
9.98490529e-01
9.98347467e-01
9.98195828e-01
9.98036693e-01
9.97871247e-01
9.97700657e-01
9.97525960e-01
9.97348009e-01
9.97167451e-01
9.96984788e-01
9.96800461e-01
9.96614985e-01
9.96429070e-01
9.96243726e-01
9.96060307e-01
9.95880499e-01
9.95706240e-01
9.95539591e-01
9.95382567e-01
9.95236975e-01
9.95104267e-01
9.94985434e-01
9.94880949e-01
9.94790771e-01
9.94714387e-01
9.94650889e-01
9.94599087e-01
9.94557611e-01
9.94525005e-01
9.94499819e-01
9.94480693e-01
9.94466379e-01
9.94455764e-01
9.94447935e-01
9.94442153e-01
9.94437841e-01
9.94434578e-01
9.94432086e-01
1.00591127e+00
1.00590705e+00
1.00590053e+00
1.00589114e+00
1.00587815e+00
1.00586064e+00
1.00583749e+00
1.00580741e+00
1.00576901e+00
1.00572087e+00
1.00566166e+00
1.00559014e+00
1.00550537e+00
1.00540671e+00
1.00529396e+00
1.00516735e+00
1.00502763e+00
1.00487599e+00
1.00471402e+00
1.00454360e+00
1.00436679e+00
1.00418567e+00
1.00400221e+00
1.00381812e+00
1.00363482e+00
1.00345331e+00
1.00327426e+00
1.00309800e+00
1.00292463e+00
1.00275417e+00
1.00258664e+00
1.00242221e+00
1.00226123e+00
1.00210431e+00
1.00195231e+00
1.00180622e+00
1.00166713e+00
1.00153608e+00
1.00141397e+00
1.00130143e+00
1.00119880e+00
1.00110606e+00
1.00102284e+00
1.00094851e+00
1.00088219e+00
1.00082284e+00
1.00076941e+00
1.00072081e+00
1.00067605e+00
1.00063427e+00
1.00059473e+00
1.00055683e+00
1.00052013e+00
1.00048429e+00
1.00044908e+00
1.00041431e+00
1.00037986e+00
1.00034564e+00
1.00031157e+00
1.00027756e+00
1.00024353e+00
1.00020940e+00
1.00017508e+00
1.00014047e+00
1.00010547e+00
1.00006999e+00
1.00003391e+00
9.99997135e-01
9.99959569e-01
9.99921114e-01
9.99881678e-01
9.99841170e-01
9.99799503e-01
9.99756582e-01
9.99712292e-01
9.99666490e-01
9.99618976e-01
9.99569475e-01
9.99517610e-01
9.99462881e-01
9.99404649e-01
9.99342136e-01
9.99274434e-01
9.99200550e-01
9.99119456e-01
9.99030175e-01
9.98931868e-01
9.98823936e-01
9.98706102e-01
9.98578472e-01
9.98441556e-01
9.98296237e-01
9.98143694e-01
9.97985280e-01
9.97822380e-01
9.97656259e-01
9.97487942e-01
9.97318135e-01
9.97147219e-01
9.96975306e-01
9.96802359e-01
9.96628348e-01
9.96453421e-01
9.96278047e-01
9.96103116e-01
9.95929959e-01
9.95760295e-01
9.95596119e-01
9.95439526e-01
9.95292532e-01
9.95156893e-01
9.95033963e-01
9.94924598e-01
9.94829124e-01
9.94747355e-01
9.94678653e-01
9.94622021e-01
9.94576216e-01
9.94539857e-01
9.94511510e-01
9.94489781e-01
9.94473382e-01
9.94461148e-01
9.94452083e-01
9.94445389e-01
9.94440438e-01
9.94436770e-01
9.94434074e-01
1.00590584e+00
1.00590116e+00
1.00589374e+00
1.00588295e+00
1.00586804e+00
1.00584804e+00
1.00582176e+00
1.00578789e+00
1.00574505e+00
1.00569187e+00
1.00562708e+00
1.00554964e+00
1.00545880e+00
1.00535419e+00
1.00523595e+00
1.00510466e+00
1.00496144e+00
1.00480780e+00
1.00464565e+00
1.00447708e+00
1.00430426e+00
1.00412928e+00
1.00395397e+00
1.00377980e+00
1.00360779e+00
1.00343853e+00
1.00327214e+00
1.00310843e+00
1.00294701e+00
1.00278742e+00
1.00262932e+00
1.00247257e+00
1.00231739e+00
1.00216432e+00
1.00201424e+00
1.00186831e+00
1.00172779e+00
1.00159400e+00
1.00146812e+00
1.00135108e+00
1.00124351e+00
1.00114566e+00
1.00105742e+00
1.00097832e+00
1.00090765e+00
1.00084447e+00
1.00078773e+00
1.00073636e+00
1.00068932e+00
1.00064569e+00
1.00060465e+00
1.00056554e+00
1.00052783e+00
1.00049114e+00
1.00045516e+00
1.00041971e+00
1.00038462e+00
1.00034980e+00
1.00031514e+00
1.00028056e+00
1.00024598e+00
1.00021132e+00
1.00017647e+00
1.00014133e+00
1.00010581e+00
1.00006979e+00
1.00003318e+00
9.99995850e-01
9.99957712e-01
9.99918661e-01
9.99878600e-01
9.99837436e-01
9.99795073e-01
9.99751406e-01
9.99706307e-01
9.99659606e-01
9.99611070e-01
9.99560376e-01
9.99507088e-01
9.99450636e-01
9.99390309e-01
9.99325263e-01
9.99254546e-01
9.99177149e-01
9.99092075e-01
9.98998436e-01
9.98895542e-01
9.98783002e-01
9.98660801e-01
9.98529342e-01
9.98389448e-01
9.98242309e-01
9.98089377e-01
9.97932226e-01
9.97772386e-01
9.97611174e-01
9.97449569e-01
9.97288124e-01
9.97126960e-01
9.96965832e-01
9.96804263e-01
9.96641728e-01
9.96477855e-01
9.96312608e-01
9.96146420e-01
9.95980260e-01
9.95815606e-01
9.95654348e-01
9.95498620e-01
9.95350605e-01
9.95212330e-01
9.95085488e-01
9.94971315e-01
9.94870507e-01
9.94783216e-01
9.94709095e-01
9.94647370e-01
9.94596948e-01
9.94556534e-01
9.94524739e-01
9.94500154e-01
9.94481440e-01
9.94467389e-01
9.94456941e-01
9.94449218e-01
9.94443542e-01
9.94439418e-01
9.94436488e-01
1.00589942e+00
1.00589421e+00
1.00588578e+00
1.00587344e+00
1.00585640e+00
1.00583364e+00
1.00580394e+00
1.00576598e+00
1.00571840e+00
1.00565987e+00
1.00558927e+00
1.00550571e+00
1.00540868e+00
1.00529814e+00
1.00517452e+00
1.00503878e+00
1.00489239e+00
1.00473718e+00
1.00457533e+00
1.00440911e+00
1.00424077e+00
1.00407235e+00
1.00390553e+00
1.00374150e+00
1.00358092e+00
1.00342393e+00
1.00327017e+00
1.00311897e+00
1.00296946e+00
1.00282077e+00
1.00267220e+00
1.00252339e+00
1.00237436e+00
1.00222560e+00
1.00207800e+00
1.00193280e+00
1.00179143e+00
1.00165541e+00
1.00152615e+00
1.00140486e+00
1.00129244e+00
1.00118943e+00
1.00109595e+00
1.00101178e+00
1.00093634e+00
1.00086885e+00
1.00080831e+00
1.00075370e+00
1.00070396e+00
1.00065809e+00
1.00061524e+00
1.00057465e+00
1.00053574e+00
1.00049803e+00
1.00046118e+00
1.00042495e+00
1.00038916e+00
1.00035369e+00
1.00031841e+00
1.00028325e+00
1.00024811e+00
1.00021291e+00
1.00017753e+00
1.00014188e+00
1.00010584e+00
1.00006931e+00
1.00003217e+00
9.99994303e-01
9.99955602e-01
9.99915961e-01
9.99875277e-01
9.99833449e-01
9.99790374e-01
9.99745930e-01
9.99699970e-01
9.99652291e-01
9.99602617e-01
9.99550567e-01
9.99495639e-01
9.99437188e-01
9.99374436e-01
9.99306481e-01
9.99232343e-01
9.99151029e-01
9.99061610e-01
9.98963321e-01
9.98855662e-01
9.98738482e-01
9.98612044e-01
9.98477051e-01
9.98334620e-01
9.98186211e-01
9.98033502e-01
9.97878225e-01
9.97721995e-01
9.97566135e-01
9.97411542e-01
9.97258606e-01
9.97107201e-01
9.96956760e-01
9.96806419e-01
9.96655215e-01
9.96502308e-01
9.96347198e-01
9.96189887e-01
9.96030982e-01
9.95871699e-01
9.95713788e-01
9.95559377e-01
9.95410767e-01
9.95270217e-01
9.95139732e-01
9.95020903e-01
9.94914799e-01
9.94821922e-01
9.94742225e-01
9.94675183e-01
9.94619884e-01
9.94575139e-01
9.94539611e-01
9.94511904e-01
9.94490650e-01
9.94474580e-01
9.94462577e-01
9.94453702e-01
9.94447212e-01
9.94442564e-01
9.94439359e-01
1.00589192e+00
1.00588611e+00
1.00587655e+00
1.00586249e+00
1.00584310e+00
1.00581733e+00
1.00578393e+00
1.00574159e+00
1.00568896e+00
1.00562483e+00
1.00554820e+00
1.00545839e+00
1.00535516e+00
1.00523876e+00
1.00510997e+00
1.00497011e+00
1.00482095e+00
1.00466467e+00
1.00450363e+00
1.00434027e+00
1.00417686e+00
1.00401537e+00
1.00385729e+00
1.00370353e+00
1.00355438e+00
1.00340955e+00
1.00326826e+00
1.00312936e+00
1.00299159e+00
1.00285371e+00
1.00271471e+00
1.00257401e+00
1.00243146e+00
1.00228748e+00
1.00214294e+00
1.00199911e+00
1.00185754e+00
1.00171988e+00
1.00158774e+00
1.00146257e+00
1.00134552e+00
1.00123739e+00
1.00113855e+00
1.00104903e+00
1.00096846e+00
1.00089621e+00
1.00083140e+00
1.00077305e+00
1.00072013e+00
1.00067162e+00
1.00062659e+00
1.00058422e+00
1.00054385e+00
1.00050495e+00
1.00046709e+00
1.00042999e+00
1.00039343e+00
1.00035725e+00
1.00032133e+00
1.00028556e+00
1.00024985e+00
1.00021410e+00
1.00017820e+00
1.00014204e+00
1.00010551e+00
1.00006847e+00
1.00003082e+00
9.99992431e-01
9.99953182e-01
9.99912961e-01
9.99871659e-01
9.99829164e-01
9.99785360e-01
9.99740107e-01
9.99693227e-01
9.99644477e-01
9.99593527e-01
9.99539932e-01
9.99483114e-01
9.99422359e-01
9.99356823e-01
9.99285565e-01
9.99207604e-01
9.99121993e-01
9.99027908e-01
9.98924753e-01
9.98812248e-01
9.98690507e-01
9.98560084e-01
9.98421972e-01
9.98277558e-01
9.98128526e-01
9.97976720e-01
9.97823968e-01
9.97671910e-01
9.97521824e-01
9.97374495e-01
9.97230139e-01
9.97088402e-01
9.96948435e-01
9.96809042e-01
9.96668885e-01
9.96526719e-01
9.96381629e-01
9.96233217e-01
9.96081736e-01
9.95928129e-01
9.95773971e-01
9.95621336e-01
9.95472597e-01
9.95330194e-01
9.95196405e-01
9.95073155e-01
9.94961871e-01
9.94863409e-01
9.94778042e-01
9.94705508e-01
9.94645097e-01
9.94595761e-01
9.94556233e-01
9.94525141e-01
9.94501105e-01
9.94482810e-01
9.94469077e-01
9.94458910e-01
9.94451504e-01
9.94446261e-01
9.94442744e-01
1.00588324e+00
1.00587678e+00
1.00586595e+00
1.00585000e+00
1.00582804e+00
1.00579900e+00
1.00576162e+00
1.00571460e+00
1.00565667e+00
1.00558671e+00
1.00550390e+00
1.00540778e+00
1.00529839e+00
1.00517630e+00
1.00504263e+00
1.00489904e+00
1.00474762e+00
1.00459079e+00
1.00443112e+00
1.00427113e+00
1.00411308e+00
1.00395883e+00
1.00380966e+00
1.00366618e+00
1.00352833e+00
1.00339542e+00
1.00326626e+00
1.00313934e+00
1.00301302e+00
1.00288575e+00
1.00275628e+00
1.00262381e+00
1.00248805e+00
1.00234931e+00
1.00220842e+00
1.00206665e+00
1.00192557e+00
1.00178695e+00
1.00165254e+00
1.00152396e+00
1.00140259e+00
1.00128947e+00
1.00118526e+00
1.00109021e+00
1.00100420e+00
1.00092678e+00
1.00085723e+00
1.00079466e+00
1.00073807e+00
1.00068645e+00
1.00063884e+00
1.00059435e+00
1.00055225e+00
1.00051193e+00
1.00047290e+00
1.00043481e+00
1.00039739e+00
1.00036045e+00
1.00032384e+00
1.00028744e+00
1.00025114e+00
1.00021484e+00
1.00017842e+00
1.00014176e+00
1.00010473e+00
1.00006721e+00
1.00002907e+00
9.99990168e-01
9.99950385e-01
9.99909596e-01
9.99867681e-01
9.99824517e-01
9.99779967e-01
9.99733865e-01
9.99685994e-01
9.99636061e-01
9.99583672e-01
9.99528312e-01
9.99469326e-01
9.99405930e-01
9.99337231e-01
9.99262271e-01
9.99180098e-01
9.99089847e-01
9.98990843e-01
9.98882693e-01
9.98765368e-01
9.98639268e-01
9.98505236e-01
9.98364538e-01
9.98218794e-01
9.98069863e-01
9.97919690e-01
9.97770136e-01
9.97622805e-01
9.97478882e-01
9.97339012e-01
9.97203235e-01
9.97070987e-01
9.96941178e-01
9.96812338e-01
9.96682823e-01
9.96551050e-01
9.96415744e-01
9.96276147e-01
9.96132175e-01
9.95984486e-01
9.95834453e-01
9.95684053e-01
9.95535674e-01
9.95391887e-01
9.95255200e-01
9.95127837e-01
9.95011566e-01
9.94907593e-01
9.94816521e-01
9.94738370e-01
9.94672653e-01
9.94618487e-01
9.94574703e-01
9.94539971e-01
9.94512908e-01
9.94492172e-01
9.94476529e-01
9.94464920e-01
9.94456485e-01
9.94450576e-01
9.94446709e-01
1.00587329e+00
1.00586610e+00
1.00585389e+00
1.00583585e+00
1.00581110e+00
1.00577853e+00
1.00573691e+00
1.00568494e+00
1.00562147e+00
1.00554550e+00
1.00545641e+00
1.00535399e+00
1.00523857e+00
1.00511104e+00
1.00497286e+00
1.00482601e+00
1.00467287e+00
1.00451608e+00
1.00435834e+00
1.00420221e+00
1.00404992e+00
1.00390317e+00
1.00376298e+00
1.00362970e+00
1.00350290e+00
1.00338154e+00
1.00326409e+00
1.00314870e+00
1.00303343e+00
1.00291650e+00
1.00279642e+00
1.00267224e+00
1.00254352e+00
1.00241046e+00
1.00227380e+00
1.00213477e+00
1.00199494e+00
1.00185609e+00
1.00172008e+00
1.00158866e+00
1.00146339e+00
1.00134556e+00
1.00123605e+00
1.00113539e+00
1.00104371e+00
1.00096077e+00
1.00088605e+00
1.00081877e+00
1.00075802e+00
1.00070282e+00
1.00065218e+00
1.00060520e+00
1.00056105e+00
1.00051905e+00
1.00047865e+00
1.00043942e+00
1.00040104e+00
1.00036326e+00
1.00032591e+00
1.00028885e+00
1.00025195e+00
1.00021508e+00
1.00017813e+00
1.00014097e+00
1.00010346e+00