# vtk DataFile Version 2.0
LBM Flow Field - Timestep 2490
ASCII
DATASET STRUCTURED_POINTS
DIMENSIONS 128 128 1
ORIGIN 0.0 0.0 0.0
SPACING 1.0 1.0 1.0
POINT_DATA 16384
SCALARS density double 1
LOOKUP_TABLE default
9.97242237e-01
9.97241262e-01
9.97239123e-01
9.97234549e-01
9.97229469e-01
9.97224516e-01
9.97219257e-01
9.97213837e-01
9.97208667e-01
9.97203921e-01
9.97199749e-01
9.97196458e-01
9.97194344e-01
9.97193662e-01
9.97194679e-01
9.97197672e-01
9.97202902e-01
9.97210615e-01
9.97221048e-01
9.97234418e-01
9.97250924e-01
9.97270743e-01
9.97294030e-01
9.97320915e-01
9.97351501e-01
9.97385866e-01
9.97424062e-01
9.97466116e-01
9.97512027e-01
9.97561772e-01
9.97615301e-01
9.97672545e-01
9.97733412e-01
9.97797794e-01
9.97865563e-01
9.97936578e-01
9.98010684e-01
9.98087717e-01
9.98167504e-01
9.98249867e-01
9.98334623e-01
9.98421589e-01
9.98510583e-01
9.98601425e-01
9.98693939e-01
9.98787958e-01
9.98883321e-01
9.98979877e-01
9.99077483e-01
9.99176009e-01
9.99275335e-01
9.99375354e-01
9.99475969e-01
9.99577093e-01
9.99678653e-01
9.99780582e-01
9.99882823e-01
9.99985328e-01
1.00008805e+00
1.00019096e+00
1.00029402e+00
1.00039719e+00
1.00050046e+00
1.00060377e+00
1.00070711e+00
1.00081044e+00
1.00091370e+00
1.00101687e+00
1.00111988e+00
1.00122266e+00
1.00132516e+00
1.00142728e+00
1.00152893e+00
1.00163001e+00
1.00173040e+00
1.00182997e+00
1.00192859e+00
1.00202608e+00
1.00212230e+00
1.00221706e+00
1.00231016e+00
1.00240140e+00
1.00249058e+00
1.00257747e+00
1.00266185e+00
1.00274347e+00
1.00282212e+00
1.00289755e+00
1.00296954e+00
1.00303786e+00
1.00310230e+00
1.00316265e+00
1.00321873e+00
1.00327037e+00
1.00331744e+00
1.00335980e+00
1.00339737e+00
1.00343010e+00
1.00345795e+00
1.00348094e+00
1.00349911e+00
1.00351254e+00
1.00352136e+00
1.00352572e+00
1.00352581e+00
1.00352187e+00
1.00351414e+00
1.00350293e+00
1.00348855e+00
1.00347134e+00
1.00345166e+00
1.00342990e+00
1.00340645e+00
1.00338171e+00
1.00335607e+00
1.00332997e+00
1.00330380e+00
1.00327790e+00
1.00325272e+00
1.00322867e+00
1.00320594e+00
1.00318480e+00
1.00316575e+00
1.00314895e+00
1.00313422e+00
1.00312258e+00
1.00311370e+00
1.00310790e+00
9.97242978e-01
9.97241390e-01
9.97239077e-01
9.97235281e-01
9.97230761e-01
9.97225961e-01
9.97220913e-01
9.97215809e-01
9.97210877e-01
9.97206354e-01
9.97202455e-01
9.97199446e-01
9.97197594e-01
9.97197173e-01
9.97198451e-01
9.97201694e-01
9.97207161e-01
9.97215100e-01
9.97225745e-01
9.97239311e-01
9.97255997e-01
9.97275980e-01
9.97299412e-01
9.97326422e-01
9.97357114e-01
9.97391567e-01
9.97429830e-01
9.97471931e-01
9.97517868e-01
9.97567619e-01
9.97621134e-01
9.97678344e-01
9.97739158e-01
9.97803467e-01
9.97871143e-01
9.97942047e-01
9.98016024e-01
9.98092911e-01
9.98172536e-01
9.98254721e-01
9.98339285e-01
9.98426046e-01
9.98514824e-01
9.98605440e-01
9.98697721e-01
9.98791500e-01
9.98886618e-01
9.98982926e-01
9.99080282e-01
9.99178559e-01
9.99277637e-01
9.99377411e-01
9.99477785e-01
9.99578674e-01
9.99680003e-01
9.99781708e-01
9.99883731e-01
9.99986025e-01
1.00008855e+00
1.00019125e+00
1.00029412e+00
1.00039710e+00
1.00050018e+00
1.00060331e+00
1.00070647e+00
1.00080961e+00
1.00091270e+00
1.00101568e+00
1.00111850e+00
1.00122109e+00
1.00132338e+00
1.00142530e+00
1.00152674e+00
1.00162760e+00
1.00172776e+00
1.00182709e+00
1.00192546e+00
1.00202271e+00
1.00211866e+00
1.00221315e+00
1.00230598e+00
1.00239695e+00
1.00248585e+00
1.00257247e+00
1.00265657e+00
1.00273792e+00
1.00281631e+00
1.00289149e+00
1.00296324e+00
1.00303134e+00
1.00309558e+00
1.00315575e+00
1.00321168e+00
1.00326320e+00
1.00331017e+00
1.00335247e+00
1.00339002e+00
1.00342277e+00
1.00345067e+00
1.00347375e+00
1.00349206e+00
1.00350566e+00
1.00351470e+00
1.00351931e+00
1.00351969e+00
1.00351607e+00
1.00350870e+00
1.00349788e+00
1.00348392e+00
1.00346715e+00
1.00344794e+00
1.00342666e+00
1.00340370e+00
1.00337946e+00
1.00335434e+00
1.00332875e+00
1.00330306e+00
1.00327769e+00
1.00325299e+00
1.00322936e+00
1.00320705e+00
1.00318641e+00
1.00316773e+00
1.00315133e+00
1.00313715e+00
1.00312607e+00
1.00311745e+00
1.00311227e+00
9.97244108e-01
9.97242107e-01
9.97238972e-01
9.97235898e-01
9.97232006e-01
9.97227224e-01
9.97222327e-01
9.97217559e-01
9.97212886e-01
9.97208571e-01
9.97204940e-01
9.97202212e-01
9.97200623e-01
9.97200462e-01
9.97202003e-01
9.97205501e-01
9.97211213e-01
9.97219388e-01
9.97230257e-01
9.97244036e-01
9.97260920e-01
9.97281086e-01
9.97304685e-01
9.97331846e-01
9.97362672e-01
9.97397239e-01
9.97435598e-01
9.97477775e-01
9.97523770e-01
9.97573556e-01
9.97627087e-01
9.97684291e-01
9.97745077e-01
9.97809336e-01
9.97876941e-01
9.97947751e-01
9.98021614e-01
9.98098365e-01
9.98177834e-01
9.98259844e-01
9.98344214e-01
9.98430765e-01
9.98519317e-01
9.98609693e-01
9.98701721e-01
9.98795237e-01
9.98890084e-01
9.98986115e-01
9.99083190e-01
9.99181183e-01
9.99279979e-01
9.99379471e-01
9.99479566e-01
9.99580181e-01
9.99681242e-01
9.99782685e-01
9.99884454e-01
9.99986501e-01
1.00008878e+00
1.00019126e+00
1.00029390e+00
1.00039667e+00
1.00049953e+00
1.00060245e+00
1.00070540e+00
1.00080834e+00
1.00091122e+00
1.00101400e+00
1.00111661e+00
1.00121899e+00
1.00132107e+00
1.00142277e+00
1.00152398e+00
1.00162460e+00
1.00172452e+00
1.00182361e+00
1.00192173e+00
1.00201871e+00
1.00211440e+00
1.00220861e+00
1.00230117e+00
1.00239186e+00
1.00248048e+00
1.00256682e+00
1.00265065e+00
1.00273175e+00
1.00280988e+00
1.00288482e+00
1.00295635e+00
1.00302425e+00
1.00308831e+00
1.00314833e+00
1.00320413e+00
1.00325556e+00
1.00330248e+00
1.00334476e+00
1.00338233e+00
1.00341513e+00
1.00344314e+00
1.00346636e+00
1.00348485e+00
1.00349869e+00
1.00350799e+00
1.00351292e+00
1.00351365e+00
1.00351042e+00
1.00350348e+00
1.00349312e+00
1.00347964e+00
1.00346338e+00
1.00344470e+00
1.00342398e+00
1.00340158e+00
1.00337791e+00
1.00335337e+00
1.00332834e+00
1.00330321e+00
1.00327842e+00
1.00325427e+00
1.00323107e+00
1.00320928e+00
1.00318923e+00
1.00317090e+00
1.00315474e+00
1.00314129e+00
1.00313060e+00
1.00312267e+00
1.00311760e+00
9.97244178e-01
9.97242316e-01
9.97239581e-01
9.97236429e-01
9.97232528e-01
9.97228189e-01
9.97223646e-01
9.97219037e-01
9.97214602e-01
9.97210602e-01
9.97207248e-01
9.97204784e-01
9.97203484e-01
9.97203615e-01
9.97205436e-01
9.97209209e-01
9.97215193e-01
9.97223630e-01
9.97234749e-01
9.97248765e-01
9.97265873e-01
9.97286247e-01
9.97310038e-01
9.97337373e-01
9.97368353e-01
9.97403055e-01
9.97441528e-01
9.97483797e-01
9.97529860e-01
9.97579692e-01
9.97633244e-01
9.97690445e-01
9.97751204e-01
9.97815411e-01
9.97882939e-01
9.97953648e-01
9.98027385e-01
9.98103986e-01
9.98183283e-01
9.98265099e-01
9.98349256e-01
9.98435575e-01
9.98523878e-01
9.98613990e-01
9.98705742e-01
9.98798972e-01
9.98893525e-01
9.98989254e-01
9.99086026e-01
9.99183714e-01
9.99282205e-01
9.99381396e-01
9.99481193e-01
9.99581516e-01
9.99682292e-01
9.99783458e-01
9.99884958e-01
9.99986744e-01
1.00008877e+00
1.00019101e+00
1.00029341e+00
1.00039594e+00
1.00049858e+00
1.00060129e+00
1.00070402e+00
1.00080675e+00
1.00090941e+00
1.00101197e+00
1.00111437e+00
1.00121653e+00
1.00131838e+00
1.00141985e+00
1.00152082e+00
1.00162120e+00
1.00172087e+00
1.00181969e+00
1.00191754e+00
1.00201425e+00
1.00210966e+00
1.00220359e+00
1.00229585e+00
1.00238626e+00
1.00247459e+00
1.00256064e+00
1.00264419e+00
1.00272502e+00
1.00280289e+00
1.00287759e+00
1.00294890e+00
1.00301659e+00
1.00308047e+00
1.00314035e+00
1.00319604e+00
1.00324738e+00
1.00329426e+00
1.00333654e+00
1.00337415e+00
1.00340704e+00
1.00343518e+00
1.00345859e+00
1.00347731e+00
1.00349143e+00
1.00350105e+00
1.00350635e+00
1.00350750e+00
1.00350473e+00
1.00349828e+00
1.00348845e+00
1.00347553e+00
1.00345987e+00
1.00344180e+00
1.00342171e+00
1.00339996e+00
1.00337694e+00
1.00335305e+00
1.00332868e+00
1.00330420e+00
1.00328001e+00
1.00325646e+00
1.00323391e+00
1.00321265e+00
1.00319301e+00
1.00317526e+00
1.00315973e+00
1.00314673e+00
1.00313612e+00
1.00312809e+00
1.00312315e+00
9.97243905e-01
9.97242199e-01
9.97239896e-01
9.97236643e-01
9.97232886e-01
9.97228952e-01
9.97224650e-01
9.97220244e-01
9.97216121e-01
9.97212441e-01
9.97209377e-01
9.97207220e-01
9.97206246e-01
9.97206696e-01
9.97208831e-01
9.97212918e-01
9.97219208e-01
9.97227941e-01
9.97239345e-01
9.97253633e-01
9.97270998e-01
9.97291611e-01
9.97315623e-01
9.97343158e-01
9.97374317e-01
9.97409174e-01
9.97447779e-01
9.97490154e-01
9.97536298e-01
9.97586183e-01
9.97639761e-01
9.97696960e-01
9.97757688e-01
9.97821835e-01
9.97889276e-01
9.97959869e-01
9.98033462e-01
9.98109894e-01
9.98188996e-01
9.98270593e-01
9.98354509e-01
9.98440566e-01
9.98528590e-01
9.98618407e-01
9.98709851e-01
9.98802763e-01
9.98896989e-01
9.98992387e-01
9.99088825e-01
9.99186179e-01
9.99284337e-01
9.99383200e-01
9.99482676e-01
9.99582685e-01
9.99683155e-01
9.99784025e-01
9.99885239e-01
9.99986749e-01
1.00008851e+00
1.00019049e+00
1.00029265e+00
1.00039494e+00
1.00049735e+00
1.00059983e+00
1.00070234e+00
1.00080484e+00
1.00090728e+00
1.00100962e+00
1.00111179e+00
1.00121372e+00
1.00131534e+00
1.00141655e+00
1.00151728e+00
1.00161740e+00
1.00171680e+00
1.00181534e+00
1.00191290e+00
1.00200932e+00
1.00210442e+00
1.00219805e+00
1.00229000e+00
1.00238009e+00
1.00246811e+00
1.00255385e+00
1.00263710e+00
1.00271763e+00
1.00279522e+00
1.00286966e+00
1.00294072e+00
1.00300820e+00
1.00307189e+00
1.00313161e+00
1.00318718e+00
1.00323845e+00
1.00328529e+00
1.00332758e+00
1.00336526e+00
1.00339826e+00
1.00342657e+00
1.00345019e+00
1.00346919e+00
1.00348363e+00
1.00349364e+00
1.00349937e+00
1.00350101e+00
1.00349877e+00
1.00349290e+00
1.00348369e+00
1.00347143e+00
1.00345645e+00
1.00343909e+00
1.00341973e+00
1.00339873e+00
1.00337646e+00
1.00335332e+00
1.00332970e+00
1.00330598e+00
1.00328249e+00
1.00325962e+00
1.00323777e+00
1.00321715e+00
1.00319803e+00
1.00318087e+00
1.00316591e+00
1.00315315e+00
1.00314293e+00
1.00313546e+00
1.00313053e+00
9.97243727e-01
9.97241982e-01
9.97239663e-01
9.97236714e-01
9.97233290e-01
9.97229434e-01
9.97225359e-01
9.97221355e-01
9.97217549e-01
9.97214141e-01
9.97211417e-01
9.97209626e-01
9.97208995e-01
9.97209790e-01
9.97212279e-01
9.97216716e-01
9.97223346e-01
9.97232410e-01
9.97244135e-01
9.97258729e-01
9.97276383e-01
9.97297267e-01
9.97321529e-01
9.97349292e-01
9.97380654e-01
9.97415690e-01
9.97454445e-01
9.97496943e-01
9.97543179e-01
9.97593127e-01
9.97646735e-01
9.97703933e-01
9.97764628e-01
9.97828710e-01
9.97896052e-01
9.97966516e-01
9.98039950e-01
9.98116192e-01
9.98195075e-01
9.98276428e-01
9.98360074e-01
9.98445840e-01
9.98533553e-01
9.98623042e-01
9.98714144e-01
9.98806702e-01
9.98900567e-01
9.98995599e-01
9.99091669e-01
9.99188655e-01
9.99286450e-01
9.99384954e-01
9.99484078e-01
9.99583745e-01
9.99683884e-01
9.99784433e-01
9.99885339e-01
9.99986553e-01
1.00008803e+00
1.00018973e+00
1.00029163e+00
1.00039367e+00
1.00049583e+00
1.00059806e+00
1.00070033e+00
1.00080260e+00
1.00090481e+00
1.00100691e+00
1.00110884e+00
1.00121052e+00
1.00131188e+00
1.00141284e+00
1.00151329e+00
1.00161313e+00
1.00171224e+00
1.00181049e+00
1.00190774e+00
1.00200383e+00
1.00209861e+00
1.00219190e+00
1.00228351e+00
1.00237326e+00
1.00246094e+00
1.00254635e+00
1.00262927e+00
1.00270948e+00
1.00278677e+00
1.00286092e+00
1.00293172e+00
1.00299896e+00
1.00306246e+00
1.00312201e+00
1.00317746e+00
1.00322865e+00
1.00327546e+00
1.00331778e+00
1.00335553e+00
1.00338867e+00
1.00341717e+00
1.00344106e+00
1.00346037e+00
1.00347520e+00
1.00348565e+00
1.00349189e+00
1.00349408e+00
1.00349245e+00
1.00348724e+00
1.00347874e+00
1.00346722e+00
1.00345302e+00
1.00343648e+00
1.00341794e+00
1.00339778e+00
1.00337638e+00
1.00335410e+00
1.00333132e+00
1.00330841e+00
1.00328577e+00
1.00326369e+00
1.00324251e+00
1.00322260e+00
1.00320425e+00
1.00318766e+00
1.00317311e+00
1.00316083e+00
1.00315106e+00
1.00314378e+00
1.00313899e+00
9.97243426e-01
9.97241790e-01
9.97239457e-01
9.97236742e-01
9.97233533e-01
9.97229875e-01
9.97226133e-01
9.97222448e-01
9.97218934e-01
9.97215879e-01
9.97213537e-01
9.97212110e-01
9.97211849e-01
9.97213032e-01
9.97215907e-01
9.97220721e-01
9.97227724e-01
9.97237154e-01
9.97249231e-01
9.97264162e-01
9.97282135e-01
9.97303319e-01
9.97327857e-01
9.97355873e-01
9.97387461e-01
9.97422694e-01
9.97461617e-01
9.97504251e-01
9.97550590e-01
9.97600607e-01
9.97654250e-01
9.97711447e-01
9.97772105e-01
9.97836113e-01
9.97903348e-01
9.97973668e-01
9.98046923e-01
9.98122955e-01
9.98201596e-01
9.98282677e-01
9.98366026e-01
9.98451469e-01
9.98538837e-01
9.98627964e-01
9.98718689e-01
9.98810858e-01
9.98904326e-01
9.98998956e-01
9.99094621e-01
9.99191205e-01
9.99288600e-01
9.99386712e-01
9.99485453e-01
9.99584746e-01
9.99684524e-01
9.99784725e-01
9.99885295e-01
9.99986186e-01
1.00008736e+00
1.00018876e+00
1.00029037e+00
1.00039213e+00
1.00049403e+00
1.00059600e+00
1.00069802e+00
1.00080003e+00
1.00090198e+00
1.00100382e+00
1.00110549e+00
1.00120691e+00
1.00130800e+00
1.00140867e+00
1.00150883e+00
1.00160837e+00
1.00170716e+00
1.00180508e+00
1.00190199e+00
1.00199774e+00
1.00209216e+00
1.00218509e+00
1.00227633e+00
1.00236571e+00
1.00245302e+00
1.00253806e+00
1.00262062e+00
1.00270049e+00
1.00277745e+00
1.00285129e+00
1.00292181e+00
1.00298881e+00
1.00305208e+00
1.00311146e+00
1.00316678e+00
1.00321790e+00
1.00326468e+00
1.00330704e+00
1.00334489e+00
1.00337819e+00
1.00340692e+00
1.00343110e+00
1.00345077e+00
1.00346603e+00
1.00347698e+00
1.00348377e+00
1.00348659e+00
1.00348565e+00
1.00348118e+00
1.00347346e+00
1.00346278e+00
1.00344945e+00
1.00343381e+00
1.00341620e+00
1.00339698e+00
1.00337652e+00
1.00335520e+00
1.00333336e+00
1.00331137e+00
1.00328961e+00
1.00326842e+00
1.00324807e+00
1.00322891e+00
1.00321128e+00
1.00319534e+00
1.00318132e+00
1.00316961e+00
1.00316027e+00
1.00315316e+00
1.00314862e+00
9.97243092e-01
9.97241590e-01
9.97239484e-01
9.97236873e-01
9.97233807e-01
9.97230493e-01
9.97227058e-01
9.97223633e-01
9.97220484e-01
9.97217832e-01
9.97215858e-01
9.97214814e-01
9.97214970e-01
9.97216567e-01
9.97219848e-01
9.97225070e-01
9.97232478e-01
9.97242300e-01
9.97254756e-01
9.97270051e-01
9.97288371e-01
9.97309878e-01
9.97334716e-01
9.97363005e-01
9.97394838e-01
9.97430284e-01
9.97469388e-01
9.97512167e-01
9.97558617e-01
9.97608707e-01
9.97662384e-01
9.97719576e-01
9.97780190e-01
9.97844116e-01
9.97911227e-01
9.97981387e-01
9.98054444e-01
9.98130242e-01
9.98208615e-01
9.98289397e-01
9.98372416e-01
9.98457505e-01
9.98544495e-01
9.98633225e-01
9.98723536e-01
9.98815279e-01
9.98908312e-01
9.99002503e-01
9.99097727e-01
9.99193871e-01
9.99290832e-01
9.99388516e-01
9.99486840e-01
9.99585727e-01
9.99685111e-01
9.99784933e-01
9.99885139e-01
9.99985680e-01
1.00008651e+00
1.00018760e+00
1.00028889e+00
1.00039036e+00
1.00049196e+00
1.00059365e+00
1.00069538e+00
1.00079712e+00
1.00089880e+00
1.00100036e+00
1.00110174e+00
1.00120287e+00
1.00130366e+00
1.00140403e+00
1.00150387e+00
1.00160307e+00
1.00170152e+00
1.00179909e+00
1.00189563e+00
1.00199100e+00
1.00208504e+00
1.00217757e+00
1.00226842e+00
1.00235739e+00
1.00244430e+00
1.00252895e+00
1.00261112e+00
1.00269061e+00
1.00276722e+00
1.00284073e+00
1.00291094e+00
1.00297767e+00
1.00304072e+00
1.00309991e+00
1.00315510e+00
1.00320613e+00
1.00325290e+00
1.00329529e+00
1.00333325e+00
1.00336673e+00
1.00339571e+00
1.00342022e+00
1.00344029e+00
1.00345602e+00
1.00346752e+00
1.00347493e+00
1.00347843e+00
1.00347824e+00
1.00347458e+00
1.00346772e+00
1.00345796e+00
1.00344558e+00
1.00343092e+00
1.00341433e+00
1.00339615e+00
1.00337672e+00
1.00335642e+00
1.00333562e+00
1.00331465e+00
1.00329385e+00
1.00327358e+00
1.00325416e+00
1.00323585e+00
1.00321893e+00
1.00320370e+00
1.00319038e+00
1.00317913e+00
1.00317011e+00
1.00316343e+00
1.00315920e+00
9.97243086e-01
9.97241680e-01
9.97239715e-01
9.97237248e-01
9.97234422e-01
9.97231394e-01
9.97228232e-01
9.97225157e-01
9.97222398e-01
9.97220117e-01
9.97218539e-01
9.97217928e-01
9.97218516e-01
9.97220540e-01
9.97224257e-01
9.97229917e-01
9.97237752e-01
9.97247991e-01
9.97260852e-01
9.97276535e-01
9.97295221e-01
9.97317073e-01
9.97342230e-01
9.97370808e-01
9.97402899e-01
9.97438570e-01
9.97477863e-01
9.97520794e-01
9.97567356e-01
9.97617518e-01
9.97671226e-01
9.97728406e-01
9.97788966e-01
9.97852794e-01
9.97919766e-01
9.97989745e-01
9.98062581e-01
9.98138119e-01
9.98216196e-01
9.98296647e-01
9.98379305e-01
9.98464004e-01
9.98550581e-01
9.98638876e-01
9.98728736e-01
9.98820015e-01
9.98912575e-01
9.99006287e-01
9.99101031e-01
9.99196698e-01
9.99293187e-01
9.99390407e-01
9.99488277e-01
9.99586724e-01
9.99685681e-01
9.99785092e-01
9.99884902e-01
9.99985063e-01
1.00008553e+00
1.00018626e+00
1.00028722e+00
1.00038836e+00
1.00048964e+00
1.00059102e+00
1.00069245e+00
1.00079388e+00
1.00089526e+00
1.00099651e+00
1.00109759e+00
1.00119840e+00
1.00129886e+00
1.00139889e+00
1.00149838e+00
1.00159723e+00
1.00169531e+00
1.00179249e+00
1.00188863e+00
1.00198359e+00
1.00207721e+00
1.00216931e+00
1.00225972e+00
1.00234826e+00
1.00243474e+00
1.00251895e+00
1.00260071e+00
1.00267979e+00
1.00275602e+00
1.00282917e+00
1.00289906e+00
1.00296549e+00
1.00302829e+00
1.00308728e+00
1.00314232e+00
1.00319327e+00
1.00324001e+00
1.00328245e+00
1.00332053e+00
1.00335420e+00
1.00338345e+00
1.00340831e+00
1.00342882e+00
1.00344506e+00
1.00345714e+00
1.00346522e+00
1.00346947e+00
1.00347008e+00
1.00346730e+00
1.00346137e+00
1.00345258e+00
1.00344124e+00
1.00342765e+00
1.00341214e+00
1.00339506e+00
1.00337677e+00
1.00335758e+00
1.00333787e+00
1.00331799e+00
1.00329826e+00
1.00327898e+00
1.00326051e+00
1.00324312e+00
1.00322702e+00
1.00321253e+00
1.00319988e+00
1.00318917e+00
1.00318059e+00
1.00317429e+00
1.00317029e+00
9.97243503e-01
9.97242179e-01
9.97240327e-01
9.97238087e-01
9.97235521e-01
9.97232727e-01
9.97229885e-01
9.97227197e-01
9.97224805e-01
9.97222915e-01
9.97221779e-01
9.97221612e-01
9.97222641e-01
9.97225122e-01
9.97229302e-01
9.97235417e-01
9.97243699e-01
9.97254378e-01
9.97267664e-01
9.97283753e-01
9.97302825e-01
9.97325037e-01
9.97350526e-01
9.97379406e-01
9.97411765e-01
9.97447668e-01
9.97487154e-01
9.97530238e-01
9.97576911e-01
9.97627140e-01
9.97680870e-01
9.97738028e-01
9.97798518e-01
9.97862232e-01
9.97929044e-01
9.97998818e-01
9.98071407e-01
9.98146656e-01
9.98224406e-01
9.98304494e-01
9.98386756e-01
9.98471029e-01
9.98557154e-01
9.98644975e-01
9.98734344e-01
9.98825119e-01
9.98917165e-01
9.99010359e-01
9.99104583e-01
9.99199733e-01
9.99295711e-01
9.99392429e-01
9.99489808e-01
9.99587778e-01
9.99686273e-01
9.99785237e-01
9.99884617e-01
9.99984365e-01
1.00008444e+00
1.00018479e+00
1.00028537e+00
1.00038616e+00
1.00048709e+00
1.00058813e+00
1.00068923e+00
1.00079033e+00
1.00089137e+00
1.00099229e+00
1.00109302e+00
1.00119348e+00
1.00129359e+00
1.00139325e+00
1.00149237e+00
1.00159082e+00
1.00168849e+00
1.00178525e+00
1.00188096e+00
1.00197547e+00
1.00206863e+00
1.00216027e+00
1.00225021e+00
1.00233828e+00
1.00242429e+00
1.00250804e+00
1.00258933e+00
1.00266798e+00
1.00274379e+00
1.00281655e+00
1.00288608e+00
1.00295220e+00
1.00301473e+00
1.00307350e+00
1.00312838e+00
1.00317923e+00
1.00322595e+00
1.00326843e+00
1.00330663e+00
1.00334050e+00
1.00337004e+00
1.00339527e+00
1.00341624e+00
1.00343302e+00
1.00344573e+00
1.00345452e+00
1.00345955e+00
1.00346102e+00
1.00345917e+00
1.00345424e+00
1.00344650e+00
1.00343625e+00
1.00342379e+00
1.00340945e+00
1.00339355e+00
1.00337644e+00
1.00335846e+00
1.00333992e+00
1.00332118e+00
1.00330257e+00
1.00328439e+00
1.00326691e+00
1.00325046e+00
1.00323528e+00
1.00322157e+00
1.00320955e+00
1.00319947e+00
1.00319142e+00
1.00318543e+00
1.00318167e+00
9.97244465e-01
9.97243288e-01
9.97241590e-01
9.97239550e-01
9.97237220e-01
9.97234720e-01
9.97232232e-01
9.97229899e-01
9.97227892e-01
9.97226440e-01
9.97225749e-01
9.97226029e-01
9.97227528e-01
9.97230491e-01
9.97235146e-01
9.97241732e-01
9.97250484e-01
9.97261620e-01
9.97275346e-01
9.97291857e-01
9.97311327e-01
9.97333912e-01
9.97359743e-01
9.97388932e-01
9.97421564e-01
9.97457701e-01
9.97497380e-01
9.97540614e-01
9.97587391e-01
9.97637678e-01
9.97691418e-01
9.97748537e-01
9.97808940e-01
9.97872518e-01
9.97939146e-01
9.98008689e-01
9.98081001e-01
9.98155930e-01
9.98233319e-01
9.98313008e-01
9.98394836e-01
9.98478645e-01
9.98564279e-01
9.98651586e-01
9.98740423e-01
9.98830651e-01
9.98922142e-01
9.99014775e-01
9.99108438e-01
9.99203029e-01
9.99298455e-01
9.99394630e-01
9.99491479e-01
9.99588933e-01
9.99686928e-01
9.99785408e-01
9.99884322e-01
9.99983621e-01
1.00008326e+00
1.00018319e+00
1.00028338e+00
1.00038377e+00
1.00048433e+00
1.00058499e+00
1.00068572e+00
1.00078645e+00
1.00088713e+00
1.00098768e+00
1.00108804e+00
1.00118812e+00
1.00128784e+00
1.00138710e+00
1.00148579e+00
1.00158382e+00
1.00168104e+00
1.00177734e+00
1.00187258e+00
1.00196661e+00
1.00205927e+00
1.00215041e+00
1.00223984e+00
1.00232740e+00
1.00241289e+00
1.00249614e+00
1.00257694e+00
1.00265512e+00
1.00273047e+00
1.00280281e+00
1.00287196e+00
1.00293773e+00
1.00299996e+00
1.00305850e+00
1.00311320e+00
1.00316393e+00
1.00321061e+00
1.00325313e+00
1.00329145e+00
1.00332553e+00
1.00335537e+00
1.00338098e+00
1.00340242e+00
1.00341977e+00
1.00343314e+00
1.00344267e+00
1.00344853e+00
1.00345091e+00
1.00345003e+00
1.00344615e+00
1.00343951e+00
1.00343041e+00
1.00341915e+00
1.00340603e+00
1.00339138e+00
1.00337552e+00
1.00335879e+00
1.00334150e+00
1.00332398e+00
1.00330653e+00
1.00328949e+00
1.00327310e+00
1.00325763e+00
1.00324337e+00
1.00323050e+00
1.00321922e+00
1.00320975e+00
1.00320220e+00
1.00319661e+00
1.00319319e+00
9.97246191e-01
9.97245172e-01
9.97243669e-01
9.97241831e-01
9.97239753e-01
9.97237578e-01
9.97235430e-01
9.97233463e-01
9.97231880e-01
9.97230869e-01
9.97230624e-01
9.97231379e-01
9.97233369e-01
9.97236819e-01
9.97241964e-01
9.97249041e-01
9.97258275e-01
9.97269879e-01
9.97284058e-01
9.97301002e-01
9.97320880e-01
9.97343843e-01
9.97370021e-01
9.97399521e-01
9.97432426e-01
9.97468795e-01
9.97508662e-01
9.97552037e-01
9.97598908e-01
9.97649239e-01
9.97702973e-01
9.97760033e-01
9.97820327e-01
9.97883744e-01
9.97950160e-01
9.98019441e-01
9.98091445e-01
9.98166019e-01
9.98243011e-01
9.98322262e-01
9.98403617e-01
9.98486921e-01
9.98572021e-01
9.98658772e-01
9.98747033e-01
9.98836672e-01
9.98927564e-01
9.99019592e-01
9.99112650e-01
9.99206640e-01
9.99301471e-01
9.99397061e-01
9.99493338e-01
9.99590234e-01
9.99687689e-01
9.99785646e-01
9.99884054e-01
9.99982866e-01
1.00008203e+00
1.00018151e+00
1.00028126e+00
1.00038122e+00
1.00048136e+00
1.00058162e+00
1.00068194e+00
1.00078227e+00
1.00088255e+00
1.00098270e+00
1.00108264e+00
1.00118230e+00
1.00128159e+00
1.00138041e+00
1.00147865e+00
1.00157620e+00
1.00167294e+00
1.00176874e+00
1.00186347e+00
1.00195697e+00
1.00204909e+00
1.00213968e+00
1.00222856e+00
1.00231556e+00
1.00240050e+00
1.00248320e+00
1.00256348e+00
1.00264114e+00
1.00271600e+00
1.00278789e+00
1.00285661e+00
1.00292201e+00
1.00298391e+00
1.00304218e+00
1.00309668e+00
1.00314729e+00
1.00319391e+00
1.00323646e+00
1.00327490e+00
1.00330919e+00
1.00333932e+00
1.00336533e+00
1.00338726e+00
1.00340519e+00
1.00341924e+00
1.00342954e+00
1.00343626e+00
1.00343958e+00
1.00343972e+00
1.00343693e+00
1.00343144e+00
1.00342355e+00
1.00341353e+00
1.00340169e+00
1.00338834e+00
1.00337380e+00
1.00335836e+00
1.00334237e+00
1.00332612e+00
1.00330991e+00
1.00329403e+00
1.00327877e+00
1.00326436e+00
1.00325104e+00
1.00323904e+00
1.00322855e+00
1.00321971e+00
1.00321268e+00
1.00320754e+00
1.00320448e+00
9.97248924e-01
9.97248069e-01
9.97246752e-01
9.97245141e-01
9.97243343e-01
9.97241482e-01
9.97239682e-01
9.97238116e-01
9.97236959e-01
9.97236386e-01
9.97236611e-01
9.97237858e-01
9.97240341e-01
9.97244290e-01
9.97249942e-01
9.97257520e-01
9.97267243e-01
9.97279325e-01
9.97293965e-01
9.97311346e-01
9.97331635e-01
9.97354979e-01
9.97381504e-01
9.97411313e-01
9.97444486e-01
9.97481079e-01
9.97521123e-01
9.97564627e-01
9.97611576e-01
9.97661932e-01
9.97715638e-01
9.97772617e-01
9.97832774e-01
9.97896000e-01
9.97962173e-01
9.98031160e-01
9.98102818e-01
9.98177000e-01
9.98253555e-01
9.98332329e-01
9.98413169e-01
9.98495924e-01
9.98580447e-01
9.98666596e-01
9.98754237e-01
9.98843241e-01
9.98933488e-01
9.99024867e-01
9.99117275e-01
9.99210618e-01
9.99304809e-01
9.99399771e-01
9.99495432e-01
9.99591727e-01
9.99688598e-01
9.99785989e-01
9.99883851e-01
9.99982133e-01
1.00008079e+00
1.00017977e+00
1.00027904e+00
1.00037854e+00
1.00047822e+00
1.00057802e+00
1.00067790e+00
1.00077779e+00
1.00087762e+00
1.00097732e+00
1.00107682e+00
1.00117602e+00
1.00127483e+00
1.00137316e+00
1.00147090e+00
1.00156794e+00
1.00166415e+00
1.00175941e+00
1.00185358e+00
1.00194651e+00
1.00203805e+00
1.00212804e+00
1.00221632e+00
1.00230272e+00
1.00238707e+00
1.00246918e+00
1.00254888e+00
1.00262599e+00
1.00270032e+00
1.00277171e+00
1.00283997e+00
1.00290496e+00
1.00296651e+00
1.00302449e+00
1.00307876e+00
1.00312921e+00
1.00317576e+00
1.00321833e+00
1.00325687e+00
1.00329135e+00
1.00332178e+00
1.00334818e+00
1.00337061e+00
1.00338914e+00
1.00340388e+00
1.00341498e+00
1.00342258e+00
1.00342687e+00
1.00342806e+00
1.00342639e+00
1.00342209e+00
1.00341544e+00
1.00340671e+00
1.00339620e+00
1.00338419e+00
1.00337100e+00
1.00335693e+00
1.00334227e+00
1.00332733e+00
1.00331241e+00
1.00329775e+00
1.00328363e+00
1.00327032e+00
1.00325800e+00
1.00324689e+00
1.00323719e+00
1.00322904e+00
1.00322257e+00
1.00321789e+00
1.00321517e+00
9.97252861e-01
9.97252182e-01
9.97251067e-01
9.97249700e-01
9.97248186e-01
9.97246643e-01
9.97245214e-01
9.97244054e-01
9.97243321e-01
9.97243205e-01
9.97243914e-01
9.97245652e-01
9.97248636e-01
9.97253099e-01
9.97259262e-01
9.97267344e-01
9.97277563e-01
9.97290128e-01
9.97305230e-01
9.97323049e-01
9.97343748e-01
9.97367469e-01
9.97394335e-01
9.97424445e-01
9.97457876e-01
9.97494680e-01
9.97534886e-01
9.97578501e-01
9.97625506e-01
9.97675864e-01
9.97729516e-01
9.97786384e-01
9.97846374e-01
9.97909377e-01
9.97975272e-01
9.98043926e-01
9.98115200e-01
9.98188949e-01
9.98265025e-01
9.98343278e-01
9.98423558e-01
9.98505719e-01
9.98589619e-01
9.98675121e-01
9.98762094e-01
9.98850416e-01
9.98939972e-01
9.99030655e-01
9.99122366e-01
9.99215015e-01
9.99308520e-01
9.99402807e-01
9.99497806e-01
9.99593455e-01
9.99689697e-01
9.99786478e-01
9.99883748e-01
9.99981456e-01
1.00007956e+00
1.00017800e+00
1.00027674e+00
1.00037573e+00
1.00047491e+00
1.00057422e+00
1.00067361e+00
1.00077301e+00
1.00087236e+00
1.00097157e+00
1.00107056e+00
1.00116925e+00
1.00126755e+00
1.00136535e+00
1.00146255e+00
1.00155902e+00
1.00165466e+00
1.00174932e+00
1.00184288e+00
1.00193519e+00
1.00202610e+00
1.00211545e+00
1.00220309e+00
1.00228885e+00
1.00237255e+00
1.00245402e+00
1.00253310e+00
1.00260961e+00
1.00268337e+00
1.00275422e+00
1.00282199e+00
1.00288652e+00
1.00294768e+00
1.00300533e+00
1.00305935e+00
1.00310962e+00
1.00315608e+00
1.00319864e+00
1.00323727e+00
1.00327194e+00
1.00330266e+00
1.00332945e+00
1.00335237e+00
1.00337150e+00
1.00338695e+00
1.00339884e+00
1.00340734e+00
1.00341262e+00
1.00341489e+00
1.00341436e+00
1.00341128e+00
1.00340591e+00
1.00339850e+00
1.00338934e+00
1.00337872e+00
1.00336692e+00
1.00335424e+00
1.00334097e+00
1.00332737e+00
1.00331375e+00
1.00330036e+00
1.00328743e+00
1.00327522e+00
1.00326394e+00
1.00325376e+00
1.00324487e+00
1.00323742e+00
1.00323154e+00
1.00322732e+00
1.00322498e+00
9.97258225e-01
9.97257742e-01
9.97256840e-01
9.97255717e-01
9.97254491e-01
9.97253285e-01
9.97252232e-01
9.97251475e-01
9.97251179e-01
9.97251531e-01
9.97252722e-01
9.97254955e-01
9.97258452e-01
9.97263429e-01
9.97270103e-01
9.97278692e-01
9.97289410e-01
9.97302454e-01
9.97318015e-01
9.97336268e-01
9.97357370e-01
9.97381461e-01
9.97408656e-01
9.97439054e-01
9.97472726e-01
9.97509723e-01
9.97550070e-01
9.97593772e-01
9.97640808e-01
9.97691140e-01
9.97744707e-01
9.97801432e-01
9.97861219e-01
9.97923961e-01
9.97989538e-01
9.98057819e-01
9.98128666e-01
9.98201939e-01
9.98277491e-01
9.98355176e-01
9.98434849e-01
9.98516369e-01
9.98599598e-01
9.98684404e-01
9.98770662e-01
9.98858254e-01
9.98947069e-01
9.99037007e-01
9.99127972e-01
9.99219880e-01
9.99312651e-01
9.99406215e-01
9.99500505e-01
9.99595461e-01
9.99691027e-01
9.99787150e-01
9.99883780e-01
9.99980869e-01
1.00007837e+00
1.00017623e+00
1.00027439e+00
1.00037282e+00
1.00047145e+00
1.00057022e+00
1.00066908e+00
1.00076795e+00
1.00086675e+00
1.00096542e+00
1.00106387e+00
1.00116201e+00
1.00125974e+00
1.00135696e+00
1.00145356e+00
1.00154942e+00
1.00164443e+00
1.00173846e+00
1.00183136e+00
1.00192299e+00
1.00201322e+00
1.00210188e+00
1.00218882e+00
1.00227388e+00
1.00235689e+00
1.00243768e+00
1.00251609e+00
1.00259195e+00
1.00266509e+00
1.00273536e+00
1.00280259e+00
1.00286664e+00
1.00292737e+00
1.00298465e+00
1.00303837e+00
1.00308844e+00
1.00313477e+00
1.00317730e+00
1.00321600e+00
1.00325084e+00
1.00328183e+00
1.00330901e+00
1.00333242e+00
1.00335215e+00
1.00336829e+00
1.00338099e+00
1.00339040e+00
1.00339668e+00
1.00340003e+00
1.00340066e+00
1.00339882e+00
1.00339474e+00
1.00338867e+00
1.00338090e+00
1.00337168e+00
1.00336130e+00
1.00335004e+00
1.00333817e+00
1.00332596e+00
1.00331366e+00
1.00330155e+00
1.00328985e+00
1.00327877e+00
1.00326853e+00
1.00325931e+00
1.00325126e+00
1.00324452e+00
1.00323923e+00
1.00323551e+00
1.00323357e+00
9.97265247e-01
9.97264962e-01
9.97264283e-01
9.97263412e-01
9.97262483e-01
9.97261617e-01
9.97260939e-01
9.97260592e-01
9.97260740e-01
9.97261557e-01
9.97263230e-01
9.97265965e-01
9.97269972e-01
9.97275460e-01
9.97282646e-01
9.97291741e-01
9.97302949e-01
9.97316467e-01
9.97332480e-01
9.97351157e-01
9.97372650e-01
9.97397094e-01
9.97424604e-01
9.97455270e-01
9.97489162e-01
9.97526327e-01
9.97566789e-01
9.97610549e-01
9.97657586e-01
9.97707858e-01
9.97761304e-01
9.97817847e-01
9.97877393e-01
9.97939833e-01
9.98005048e-01
9.98072911e-01
9.98143287e-01
9.98216036e-01
9.98291016e-01
9.98368085e-01
9.98447103e-01
9.98527932e-01
9.98610441e-01
9.98694501e-01
9.98779993e-01
9.98866804e-01
9.98954829e-01
9.99043972e-01
9.99134142e-01
9.99225259e-01
9.99317247e-01
9.99410038e-01
9.99503569e-01
9.99597782e-01
9.99692623e-01
9.99788039e-01
9.99883982e-01
9.99980400e-01
1.00007725e+00
1.00017447e+00
1.00027202e+00
1.00036984e+00
1.00046787e+00
1.00056605e+00
1.00066431e+00