# vtk DataFile Version 2.0
LBM Flow Field - Timestep 1890
ASCII
DATASET STRUCTURED_POINTS
DIMENSIONS 128 128 1
ORIGIN 0.0 0.0 0.0
SPACING 1.0 1.0 1.0
POINT_DATA 16384
SCALARS density double 1
LOOKUP_TABLE default
9.96139613e-01
9.96137787e-01
9.96135179e-01
9.96135633e-01
9.96136107e-01
9.96136045e-01
9.96136653e-01
9.96137922e-01
9.96139485e-01
9.96141563e-01
9.96144516e-01
9.96148464e-01
9.96153564e-01
9.96160089e-01
9.96168288e-01
9.96178377e-01
9.96190596e-01
9.96205200e-01
9.96222433e-01
9.96242531e-01
9.96265728e-01
9.96292252e-01
9.96322316e-01
9.96356118e-01
9.96393843e-01
9.96435654e-01
9.96481695e-01
9.96532087e-01
9.96586928e-01
9.96646292e-01
9.96710225e-01
9.96778751e-01
9.96851866e-01
9.96929538e-01
9.97011713e-01
9.97098308e-01
9.97189214e-01
9.97284300e-01
9.97383409e-01
9.97486359e-01
9.97592948e-01
9.97702951e-01
9.97816123e-01
9.97932202e-01
9.98050907e-01
9.98171945e-01
9.98295012e-01
9.98419795e-01
9.98545975e-01
9.98673235e-01
9.98801257e-01
9.98929735e-01
9.99058369e-01
9.99186881e-01
9.99315008e-01
9.99442514e-01
9.99569190e-01
9.99694858e-01
9.99819372e-01
9.99942623e-01
1.00006453e+00
1.00018506e+00
1.00030420e+00
1.00042198e+00
1.00053845e+00
1.00065367e+00
1.00076776e+00
1.00088080e+00
1.00099293e+00
1.00110426e+00
1.00121490e+00
1.00132495e+00
1.00143450e+00
1.00154362e+00
1.00165236e+00
1.00176074e+00
1.00186875e+00
1.00197634e+00
1.00208346e+00
1.00219000e+00
1.00229586e+00
1.00240087e+00
1.00250489e+00
1.00260771e+00
1.00270915e+00
1.00280900e+00
1.00290703e+00
1.00300303e+00
1.00309678e+00
1.00318805e+00
1.00327662e+00
1.00336231e+00
1.00344490e+00
1.00352423e+00
1.00360013e+00
1.00367247e+00
1.00374111e+00
1.00380598e+00
1.00386700e+00
1.00392414e+00
1.00397739e+00
1.00402678e+00
1.00407237e+00
1.00411422e+00
1.00415247e+00
1.00418724e+00
1.00421870e+00
1.00424704e+00
1.00427243e+00
1.00429510e+00
1.00431527e+00
1.00433313e+00
1.00434890e+00
1.00436280e+00
1.00437503e+00
1.00438573e+00
1.00439511e+00
1.00440338e+00
1.00441059e+00
1.00441672e+00
1.00442217e+00
1.00442718e+00
1.00443089e+00
1.00443322e+00
1.00443636e+00
1.00443919e+00
1.00443501e+00
1.00443139e+00
9.96138828e-01
9.96139502e-01
9.96138597e-01
9.96138858e-01
9.96139464e-01
9.96139925e-01
9.96140731e-01
9.96141997e-01
9.96143757e-01
9.96146090e-01
9.96149237e-01
9.96153379e-01
9.96158718e-01
9.96165469e-01
9.96173875e-01
9.96184167e-01
9.96196586e-01
9.96211372e-01
9.96228771e-01
9.96249017e-01
9.96272344e-01
9.96298975e-01
9.96329122e-01
9.96362982e-01
9.96400736e-01
9.96442547e-01
9.96488559e-01
9.96538892e-01
9.96593643e-01
9.96652885e-01
9.96716668e-01
9.96785013e-01
9.96857918e-01
9.96935353e-01
9.97017264e-01
9.97103569e-01
9.97194163e-01
9.97288914e-01
9.97387668e-01
9.97490246e-01
9.97596447e-01
9.97706050e-01
9.97818812e-01
9.97934473e-01
9.98052758e-01
9.98173377e-01
9.98296029e-01
9.98420406e-01
9.98546195e-01
9.98673081e-01
9.98800753e-01
9.98928909e-01
9.99057255e-01
9.99185515e-01
9.99313432e-01
9.99440773e-01
9.99567331e-01
9.99692929e-01
9.99817423e-01
9.99940702e-01
1.00006269e+00
1.00018334e+00
1.00030264e+00
1.00042061e+00
1.00053729e+00
1.00065276e+00
1.00076709e+00
1.00088040e+00
1.00099278e+00
1.00110434e+00
1.00121519e+00
1.00132543e+00
1.00143513e+00
1.00154436e+00
1.00165315e+00
1.00176153e+00
1.00186949e+00
1.00197698e+00
1.00208394e+00
1.00219027e+00
1.00229587e+00
1.00240059e+00
1.00250427e+00
1.00260672e+00
1.00270777e+00
1.00280721e+00
1.00290482e+00
1.00300039e+00
1.00309371e+00
1.00318456e+00
1.00327273e+00
1.00335803e+00
1.00344027e+00
1.00351926e+00
1.00359486e+00
1.00366693e+00
1.00373535e+00
1.00380002e+00
1.00386089e+00
1.00391792e+00
1.00397110e+00
1.00402045e+00
1.00406603e+00
1.00410792e+00
1.00414623e+00
1.00418109e+00
1.00421266e+00
1.00424112e+00
1.00426666e+00
1.00428948e+00
1.00430979e+00
1.00432781e+00
1.00434375e+00
1.00435781e+00
1.00437018e+00
1.00438105e+00
1.00439058e+00
1.00439895e+00
1.00440625e+00
1.00441261e+00
1.00441818e+00
1.00442298e+00
1.00442685e+00
1.00442996e+00
1.00443285e+00
1.00443483e+00
1.00443346e+00
1.00443439e+00
9.96140166e-01
9.96142794e-01
9.96145345e-01
9.96145372e-01
9.96145517e-01
9.96146662e-01
9.96147851e-01
9.96149099e-01
9.96151004e-01
9.96153639e-01
9.96156994e-01
9.96161314e-01
9.96166872e-01
9.96173842e-01
9.96182433e-01
9.96192901e-01
9.96205486e-01
9.96220417e-01
9.96237933e-01
9.96258274e-01
9.96281670e-01
9.96308337e-01
9.96338488e-01
9.96372319e-01
9.96410009e-01
9.96451720e-01
9.96497594e-01
9.96547753e-01
9.96602293e-01
9.96661290e-01
9.96724791e-01
9.96792821e-01
9.96865380e-01
9.96942439e-01
9.97023946e-01
9.97109822e-01
9.97199965e-01
9.97294245e-01
9.97392511e-01
9.97494588e-01
9.97600278e-01
9.97709363e-01
9.97821604e-01
9.97936746e-01
9.98054517e-01
9.98174632e-01
9.98296795e-01
9.98420701e-01
9.98546044e-01
9.98672512e-01
9.98799802e-01
9.98927613e-01
9.99055657e-01
9.99183663e-01
9.99311375e-01
9.99438565e-01
9.99565026e-01
9.99690583e-01
9.99815092e-01
9.99938438e-01
1.00006054e+00
1.00018136e+00
1.00030086e+00
1.00041908e+00
1.00053603e+00
1.00065179e+00
1.00076643e+00
1.00088004e+00
1.00099271e+00
1.00110455e+00
1.00121565e+00
1.00132611e+00
1.00143598e+00
1.00154533e+00
1.00165420e+00
1.00176259e+00
1.00187049e+00
1.00197787e+00
1.00208466e+00
1.00219076e+00
1.00229607e+00
1.00240045e+00
1.00250375e+00
1.00260578e+00
1.00270638e+00
1.00280533e+00
1.00290245e+00
1.00299751e+00
1.00309032e+00
1.00318067e+00
1.00326835e+00
1.00335318e+00
1.00343496e+00
1.00351353e+00
1.00358874e+00
1.00366044e+00
1.00372853e+00
1.00379292e+00
1.00385355e+00
1.00391037e+00
1.00396338e+00
1.00401259e+00
1.00405807e+00
1.00409989e+00
1.00413816e+00
1.00417301e+00
1.00420458e+00
1.00423307e+00
1.00425864e+00
1.00428151e+00
1.00430188e+00
1.00431996e+00
1.00433597e+00
1.00435008e+00
1.00436251e+00
1.00437345e+00
1.00438307e+00
1.00439143e+00
1.00439878e+00
1.00440534e+00
1.00441090e+00
1.00441538e+00
1.00441970e+00
1.00442379e+00
1.00442552e+00
1.00442634e+00
1.00443113e+00
1.00443514e+00
9.96148495e-01
9.96151070e-01
9.96153033e-01
9.96154076e-01
9.96155208e-01
9.96156300e-01
9.96157520e-01
9.96159171e-01
9.96161333e-01
9.96164093e-01
9.96167659e-01
9.96172229e-01
9.96177983e-01
9.96185134e-01
9.96193912e-01
9.96204547e-01
9.96217265e-01
9.96232307e-01
9.96249909e-01
9.96270301e-01
9.96293709e-01
9.96320353e-01
9.96350439e-01
9.96384163e-01
9.96421703e-01
9.96463220e-01
9.96508856e-01
9.96558732e-01
9.96612947e-01
9.96671577e-01
9.96734672e-01
9.96802259e-01
9.96874338e-01
9.96950887e-01
9.97031855e-01
9.97117168e-01
9.97206725e-01
9.97300403e-01
9.97398053e-01
9.97499505e-01
9.97604565e-01
9.97713019e-01
9.97824634e-01
9.97939159e-01
9.98056326e-01
9.98175856e-01
9.98297457e-01
9.98420830e-01
9.98545673e-01
9.98671681e-01
9.98798553e-01
9.98925993e-01
9.99053719e-01
9.99181460e-01
9.99308966e-01
9.99436009e-01
9.99562383e-01
9.99687914e-01
9.99812456e-01
9.99935892e-01
1.00005814e+00
1.00017914e+00
1.00029889e+00
1.00041737e+00
1.00053462e+00
1.00065069e+00
1.00076566e+00
1.00087959e+00
1.00099258e+00
1.00110472e+00
1.00121608e+00
1.00132676e+00
1.00143682e+00
1.00154631e+00
1.00165525e+00
1.00176365e+00
1.00187151e+00
1.00197877e+00
1.00208538e+00
1.00219125e+00
1.00229626e+00
1.00240029e+00
1.00250318e+00
1.00260477e+00
1.00270488e+00
1.00280332e+00
1.00289990e+00
1.00299442e+00
1.00308667e+00
1.00317646e+00
1.00326358e+00
1.00334786e+00
1.00342911e+00
1.00350718e+00
1.00358190e+00
1.00365315e+00
1.00372083e+00
1.00378483e+00
1.00384510e+00
1.00390160e+00
1.00395433e+00
1.00400330e+00
1.00404857e+00
1.00409021e+00
1.00412832e+00
1.00416304e+00
1.00419451e+00
1.00422290e+00
1.00424840e+00
1.00427121e+00
1.00429153e+00
1.00430957e+00
1.00432553e+00
1.00433961e+00
1.00435201e+00
1.00436290e+00
1.00437247e+00
1.00438087e+00
1.00438819e+00
1.00439458e+00
1.00440022e+00
1.00440506e+00
1.00440906e+00
1.00441263e+00
1.00441587e+00
1.00441814e+00
1.00442136e+00
1.00442479e+00
9.96159948e-01
9.96162318e-01
9.96163884e-01
9.96165924e-01
9.96167566e-01
9.96168600e-01
9.96170093e-01
9.96172124e-01
9.96174479e-01
9.96177411e-01
9.96181232e-01
9.96186045e-01
9.96191996e-01
9.96199340e-01
9.96208307e-01
9.96219098e-01
9.96231942e-01
9.96247081e-01
9.96264743e-01
9.96285153e-01
9.96308536e-01
9.96335109e-01
9.96365075e-01
9.96398627e-01
9.96435944e-01
9.96477185e-01
9.96522492e-01
9.96571988e-01
9.96625773e-01
9.96683924e-01
9.96746495e-01
9.96813515e-01
9.96884989e-01
9.96960897e-01
9.97041194e-01
9.97125808e-01
9.97214646e-01
9.97307587e-01
9.97404489e-01
9.97505185e-01
9.97609489e-01
9.97717190e-01
9.97828062e-01
9.97941857e-01
9.98058316e-01
9.98177162e-01
9.98298111e-01
9.98420870e-01
9.98545139e-01
9.98670621e-01
9.98797018e-01
9.98924041e-01
9.99051409e-01
9.99178857e-01
9.99306137e-01
9.99433020e-01
9.99559304e-01
9.99684813e-01
9.99809398e-01
9.99932942e-01
1.00005536e+00
1.00017658e+00
1.00029659e+00
1.00041538e+00
1.00053296e+00
1.00064939e+00
1.00076472e+00
1.00087902e+00
1.00099236e+00
1.00110483e+00
1.00121650e+00
1.00132744e+00
1.00143770e+00
1.00154734e+00
1.00165637e+00
1.00176479e+00
1.00187260e+00
1.00197974e+00
1.00208616e+00
1.00219177e+00
1.00229646e+00
1.00240010e+00
1.00250255e+00
1.00260365e+00
1.00270323e+00
1.00280110e+00
1.00289709e+00
1.00299098e+00
1.00308260e+00
1.00317175e+00
1.00325824e+00
1.00334189e+00
1.00342252e+00
1.00349999e+00
1.00357414e+00
1.00364484e+00
1.00371200e+00
1.00377551e+00
1.00383534e+00
1.00389142e+00
1.00394377e+00
1.00399240e+00
1.00403736e+00
1.00407871e+00
1.00411658e+00
1.00415107e+00
1.00418233e+00
1.00421055e+00
1.00423588e+00
1.00425854e+00
1.00427872e+00
1.00429662e+00
1.00431244e+00
1.00432640e+00
1.00433869e+00
1.00434946e+00
1.00435889e+00
1.00436721e+00
1.00437449e+00
1.00438070e+00
1.00438619e+00
1.00439126e+00
1.00439535e+00
1.00439835e+00
1.00440203e+00
1.00440584e+00
1.00440794e+00
1.00441072e+00
9.96173834e-01
9.96176572e-01
9.96178774e-01
9.96180622e-01
9.96182171e-01
9.96183858e-01
9.96185753e-01
9.96187819e-01
9.96190395e-01
9.96193678e-01
9.96197731e-01
9.96202727e-01
9.96208912e-01
9.96216478e-01
9.96225614e-01
9.96236551e-01
9.96249519e-01
9.96264739e-01
9.96282435e-01
9.96302834e-01
9.96326156e-01
9.96352612e-01
9.96382403e-01
9.96415723e-01
9.96452745e-01
9.96493632e-01
9.96538524e-01
9.96587546e-01
9.96640800e-01
9.96698364e-01
9.96760297e-01
9.96826632e-01
9.96897377e-01
9.96972518e-01
9.97052013e-01
9.97135799e-01
9.97223785e-01
9.97315858e-01
9.97411881e-01
9.97511694e-01
9.97615116e-01
9.97721943e-01
9.97831954e-01
9.97944908e-01
9.98060552e-01
9.98178616e-01
9.98298821e-01
9.98420880e-01
9.98544500e-01
9.98669387e-01
9.98795251e-01
9.98921806e-01
9.99048775e-01
9.99175897e-01
9.99302925e-01
9.99429633e-01
9.99555819e-01
9.99681306e-01
9.99805942e-01
9.99929606e-01
1.00005221e+00
1.00017368e+00
1.00029398e+00
1.00041310e+00
1.00053106e+00
1.00064788e+00
1.00076361e+00
1.00087830e+00
1.00099203e+00
1.00110486e+00
1.00121686e+00
1.00132808e+00
1.00143857e+00
1.00154838e+00
1.00165750e+00
1.00176596e+00
1.00187371e+00
1.00198073e+00
1.00208695e+00
1.00219227e+00
1.00229661e+00
1.00239983e+00
1.00250180e+00
1.00260236e+00
1.00270134e+00
1.00279859e+00
1.00289391e+00
1.00298711e+00
1.00307802e+00
1.00316646e+00
1.00325222e+00
1.00333516e+00
1.00341509e+00
1.00349187e+00
1.00356535e+00
1.00363541e+00
1.00370195e+00
1.00376489e+00
1.00382417e+00
1.00387975e+00
1.00393162e+00
1.00397981e+00
1.00402436e+00
1.00406535e+00
1.00410287e+00
1.00413704e+00
1.00416802e+00
1.00419596e+00
1.00422105e+00
1.00424346e+00
1.00426341e+00
1.00428109e+00
1.00429671e+00
1.00431045e+00
1.00432252e+00
1.00433313e+00
1.00434239e+00
1.00435045e+00
1.00435756e+00
1.00436381e+00
1.00436913e+00
1.00437372e+00
1.00437801e+00
1.00438173e+00
1.00438480e+00
1.00438792e+00
1.00439092e+00
1.00439425e+00
9.96191239e-01
9.96194008e-01
9.96196432e-01
9.96198215e-01
9.96200010e-01
9.96202068e-01
9.96204108e-01
9.96206398e-01
9.96209300e-01
9.96212832e-01
9.96217091e-01
9.96222333e-01
9.96228756e-01
9.96236515e-01
9.96245820e-01
9.96256903e-01
9.96269977e-01
9.96285253e-01
9.96302959e-01
9.96323315e-01
9.96346534e-01
9.96372824e-01
9.96402386e-01
9.96435408e-01
9.96472066e-01
9.96512519e-01
9.96556911e-01
9.96605366e-01
9.96657989e-01
9.96714862e-01
9.96776046e-01
9.96841581e-01
9.96911478e-01
9.96985729e-01
9.97064299e-01
9.97147130e-01
9.97234139e-01
9.97325218e-01
9.97420238e-01
9.97519045e-01
9.97621465e-01
9.97727301e-01
9.97836340e-01
9.97948347e-01
9.98063075e-01
9.98180261e-01
9.98299634e-01
9.98420911e-01
9.98543807e-01
9.98668034e-01
9.98793306e-01
9.98919342e-01
9.99045870e-01
9.99172631e-01
9.99299381e-01
9.99425896e-01
9.99551972e-01
9.99677431e-01
9.99802120e-01
9.99925913e-01
1.00004871e+00
1.00017044e+00
1.00029106e+00
1.00041054e+00
1.00052890e+00
1.00064613e+00
1.00076229e+00
1.00087742e+00
1.00099156e+00
1.00110478e+00
1.00121713e+00
1.00132865e+00
1.00143939e+00
1.00154937e+00
1.00165860e+00
1.00176708e+00
1.00187478e+00
1.00198166e+00
1.00208766e+00
1.00219268e+00
1.00229664e+00
1.00239940e+00
1.00250084e+00
1.00260081e+00
1.00269916e+00
1.00279572e+00
1.00289031e+00
1.00298276e+00
1.00307289e+00
1.00316052e+00
1.00324549e+00
1.00332763e+00
1.00340677e+00
1.00348277e+00
1.00355549e+00
1.00362482e+00
1.00369066e+00
1.00375293e+00
1.00381157e+00
1.00386654e+00
1.00391785e+00
1.00396551e+00
1.00400957e+00
1.00405010e+00
1.00408718e+00
1.00412096e+00
1.00415156e+00
1.00417914e+00
1.00420388e+00
1.00422598e+00
1.00424561e+00
1.00426298e+00
1.00427831e+00
1.00429177e+00
1.00430356e+00
1.00431387e+00
1.00432290e+00
1.00433074e+00
1.00433753e+00
1.00434356e+00
1.00434884e+00
1.00435323e+00
1.00435718e+00
1.00436107e+00
1.00436418e+00
1.00436685e+00
1.00437012e+00
1.00437340e+00
9.96212085e-01
9.96214626e-01
9.96216822e-01
9.96218920e-01
9.96221016e-01
9.96223051e-01
9.96225296e-01
9.96227994e-01
9.96231123e-01
9.96234823e-01
9.96239357e-01
9.96244868e-01
9.96251484e-01
9.96259423e-01
9.96268904e-01
9.96280117e-01
9.96293266e-01
9.96308575e-01
9.96326262e-01
9.96346534e-01
9.96369604e-01
9.96395678e-01
9.96424952e-01
9.96457612e-01
9.96493832e-01
9.96533773e-01
9.96577578e-01
9.96625374e-01
9.96677268e-01
9.96733348e-01
9.96793677e-01
9.96858299e-01
9.96927235e-01
9.97000480e-01
9.97078007e-01
9.97159765e-01
9.97245677e-01
9.97335644e-01
9.97429544e-01
9.97527230e-01
9.97628536e-01
9.97733274e-01
9.97841236e-01
9.97952196e-01
9.98065914e-01
9.98182134e-01
9.98300592e-01
9.98421012e-01
9.98543115e-01
9.98666619e-01
9.98791243e-01
9.98916712e-01
9.99042757e-01
9.99169123e-01
9.99295567e-01
9.99421866e-01
9.99547818e-01
9.99673240e-01
9.99797978e-01
9.99921900e-01
1.00004490e+00
1.00016690e+00
1.00028785e+00
1.00040771e+00
1.00052648e+00
1.00064415e+00
1.00076076e+00
1.00087633e+00
1.00099091e+00
1.00110453e+00
1.00121725e+00
1.00132908e+00
1.00144008e+00
1.00155024e+00
1.00165959e+00
1.00176809e+00
1.00187573e+00
1.00198247e+00
1.00208822e+00
1.00219292e+00
1.00229647e+00
1.00239874e+00
1.00249962e+00
1.00259897e+00
1.00269663e+00
1.00279244e+00
1.00288624e+00
1.00297787e+00
1.00306716e+00
1.00315393e+00
1.00323802e+00
1.00331928e+00
1.00339755e+00
1.00347269e+00
1.00354457e+00
1.00361308e+00
1.00367813e+00
1.00373964e+00
1.00379755e+00
1.00385184e+00
1.00390249e+00
1.00394953e+00
1.00399301e+00
1.00403298e+00
1.00406955e+00
1.00410283e+00
1.00413296e+00
1.00416010e+00
1.00418442e+00
1.00420610e+00
1.00422534e+00
1.00424233e+00
1.00425727e+00
1.00427037e+00
1.00428181e+00
1.00429175e+00
1.00430041e+00
1.00430798e+00
1.00431452e+00
1.00432012e+00
1.00432510e+00
1.00432955e+00
1.00433328e+00
1.00433660e+00
1.00433984e+00
1.00434272e+00
1.00434540e+00
1.00434824e+00
9.96235739e-01
9.96238205e-01
9.96240378e-01
9.96242615e-01
9.96244795e-01
9.96246995e-01
9.96249530e-01
9.96252435e-01
9.96255757e-01
9.96259735e-01
9.96264527e-01
9.96270236e-01
9.96277052e-01
9.96285185e-01
9.96294811e-01
9.96306121e-01
9.96319328e-01
9.96334643e-01
9.96352270e-01
9.96372416e-01
9.96395291e-01
9.96421095e-01
9.96450020e-01
9.96482251e-01
9.96517962e-01
9.96557312e-01
9.96600447e-01
9.96647495e-01
9.96698568e-01
9.96753754e-01
9.96813126e-01
9.96876732e-01
9.96944598e-01
9.97016727e-01
9.97093100e-01
9.97173672e-01
9.97258377e-01
9.97347121e-01
9.97439792e-01
9.97536251e-01
9.97636340e-01
9.97739878e-01
9.97846666e-01
9.97956487e-01
9.98069106e-01
9.98184278e-01
9.98301742e-01
9.98421233e-01
9.98542476e-01
9.98665196e-01
9.98789118e-01
9.98913971e-01
9.99039491e-01
9.99165425e-01
9.99291533e-01
9.99417592e-01
9.99543399e-01
9.99668770e-01
9.99793547e-01
9.99917593e-01
1.00004080e+00
1.00016307e+00
1.00028435e+00
1.00040460e+00
1.00052379e+00
1.00064191e+00
1.00075898e+00
1.00087501e+00
1.00099004e+00
1.00110408e+00
1.00121717e+00
1.00132933e+00
1.00144059e+00
1.00155094e+00
1.00166039e+00
1.00176892e+00
1.00187650e+00
1.00198307e+00
1.00208858e+00
1.00219293e+00
1.00229604e+00
1.00239780e+00
1.00249809e+00
1.00259676e+00
1.00269368e+00
1.00278871e+00
1.00288167e+00
1.00297242e+00
1.00306080e+00
1.00314664e+00
1.00322979e+00
1.00331009e+00
1.00338741e+00
1.00346162e+00
1.00353258e+00
1.00360019e+00
1.00366436e+00
1.00372502e+00
1.00378212e+00
1.00383563e+00
1.00388555e+00
1.00393188e+00
1.00397468e+00
1.00401402e+00
1.00404999e+00
1.00408269e+00
1.00411227e+00
1.00413889e+00
1.00416269e+00
1.00418388e+00
1.00420264e+00
1.00421916e+00
1.00423364e+00
1.00424628e+00
1.00425728e+00
1.00426682e+00
1.00427505e+00
1.00428217e+00
1.00428837e+00
1.00429369e+00
1.00429826e+00
1.00430237e+00
1.00430599e+00
1.00430904e+00
1.00431197e+00
1.00431479e+00
1.00431724e+00
1.00431989e+00
9.96262202e-01
9.96264675e-01
9.96266971e-01
9.96269184e-01
9.96271432e-01
9.96273913e-01
9.96276638e-01
9.96279678e-01
9.96283265e-01
9.96287514e-01
9.96292496e-01
9.96298401e-01
9.96305429e-01
9.96313724e-01
9.96323461e-01
9.96334850e-01
9.96348090e-01
9.96363371e-01
9.96380897e-01
9.96400876e-01
9.96423507e-01
9.96448985e-01
9.96477500e-01
9.96509237e-01
9.96544367e-01
9.96583050e-01
9.96625434e-01
9.96671649e-01
9.96721809e-01
9.96776010e-01
9.96834328e-01
9.96896817e-01
9.96963512e-01
9.97034424e-01
9.97109539e-01
9.97188823e-01
9.97272217e-01
9.97359637e-01
9.97450978e-01
9.97546112e-01
9.97644887e-01
9.97747133e-01
9.97852658e-01
9.97961253e-01
9.98072693e-01
9.98186738e-01
9.98303138e-01
9.98421631e-01
9.98541952e-01
9.98663830e-01
9.98786998e-01
9.98911187e-01
9.99036139e-01
9.99161602e-01
9.99287341e-01
9.99413131e-01
9.99538769e-01
9.99664069e-01
9.99788869e-01
9.99913027e-01
1.00003643e+00
1.00015897e+00
1.00028058e+00
1.00040121e+00
1.00052082e+00
1.00063940e+00
1.00075693e+00
1.00087343e+00
1.00098890e+00
1.00110337e+00
1.00121684e+00
1.00132933e+00
1.00144085e+00
1.00155139e+00
1.00166095e+00
1.00176950e+00
1.00187700e+00
1.00198340e+00
1.00208864e+00
1.00219263e+00
1.00229529e+00
1.00239650e+00
1.00249616e+00
1.00259413e+00
1.00269027e+00
1.00278446e+00
1.00287654e+00
1.00296636e+00
1.00305376e+00
1.00313861e+00
1.00322075e+00
1.00330004e+00
1.00337634e+00
1.00344953e+00
1.00351950e+00
1.00358613e+00
1.00364935e+00
1.00370909e+00
1.00376530e+00
1.00381795e+00
1.00386704e+00
1.00391258e+00
1.00395464e+00
1.00399325e+00
1.00402853e+00
1.00406058e+00
1.00408953e+00
1.00411553e+00
1.00413874e+00
1.00415936e+00
1.00417755e+00
1.00419352e+00
1.00420747e+00
1.00421958e+00
1.00423004e+00
1.00423908e+00
1.00424685e+00
1.00425348e+00
1.00425917e+00
1.00426414e+00
1.00426838e+00
1.00427199e+00
1.00427528e+00
1.00427825e+00
1.00428083e+00
1.00428327e+00
1.00428570e+00
1.00428828e+00
9.96291599e-01
9.96294021e-01
9.96296339e-01
9.96298622e-01
9.96301022e-01
9.96303645e-01
9.96306512e-01
9.96309788e-01
9.96313607e-01
9.96318034e-01
9.96323220e-01
9.96329341e-01
9.96336532e-01
9.96344950e-01
9.96354789e-01
9.96366233e-01
9.96379461e-01
9.96394670e-01
9.96412059e-01
9.96431824e-01
9.96454157e-01
9.96479253e-01
9.96507299e-01
9.96538477e-01
9.96572956e-01
9.96610899e-01
9.96652453e-01
9.96697752e-01
9.96746916e-01
9.96800043e-01
9.96857217e-01
9.96918498e-01
9.96983929e-01
9.97053528e-01
9.97127291e-01
9.97205191e-01
9.97287180e-01
9.97373182e-01
9.97463102e-01
9.97556820e-01
9.97654195e-01
9.97755064e-01
9.97859244e-01
9.97966536e-01
9.98076721e-01
9.98189568e-01
9.98304835e-01
9.98422267e-01
9.98541605e-01
9.98662587e-01
9.98784947e-01
9.98908425e-01
9.99032765e-01
9.99157719e-01
9.99283051e-01
9.99408540e-01
9.99533980e-01
9.99659185e-01
9.99783985e-01
9.99908236e-01
1.00003181e+00
1.00015461e+00
1.00027654e+00
1.00039754e+00
1.00051757e+00
1.00063660e+00
1.00075459e+00
1.00087155e+00
1.00098747e+00
1.00110236e+00
1.00121621e+00
1.00132902e+00
1.00144080e+00
1.00155153e+00
1.00166119e+00
1.00176974e+00
1.00187716e+00
1.00198338e+00
1.00208833e+00
1.00219194e+00
1.00229412e+00
1.00239477e+00
1.00249377e+00
1.00259100e+00
1.00268633e+00
1.00277964e+00
1.00287079e+00
1.00295963e+00
1.00304601e+00
1.00312981e+00
1.00321088e+00
1.00328909e+00
1.00336431e+00
1.00343643e+00
1.00350532e+00
1.00357091e+00
1.00363310e+00
1.00369184e+00
1.00374707e+00
1.00379879e+00
1.00384698e+00
1.00389166e+00
1.00393288e+00
1.00397070e+00
1.00400521e+00
1.00403652e+00
1.00406476e+00
1.00409007e+00
1.00411261e+00
1.00413257e+00
1.00415013e+00
1.00416547e+00
1.00417879e+00
1.00419030e+00
1.00420018e+00
1.00420862e+00
1.00421582e+00
1.00422194e+00
1.00422711e+00
1.00423153e+00
1.00423535e+00
1.00423861e+00
1.00424145e+00
1.00424407e+00
1.00424643e+00
1.00424862e+00
1.00425086e+00
1.00425324e+00
9.96323807e-01
9.96326182e-01
9.96328499e-01
9.96330897e-01
9.96333424e-01
9.96336137e-01
9.96339183e-01
9.96342678e-01
9.96346663e-01
9.96351270e-01
9.96356665e-01
9.96362954e-01
9.96370272e-01
9.96378804e-01
9.96388716e-01
9.96400170e-01
9.96413352e-01
9.96428453e-01
9.96445659e-01
9.96465158e-01
9.96487142e-01
9.96511802e-01
9.96539319e-01
9.96569873e-01
9.96603634e-01
9.96640766e-01
9.96681416e-01
9.96725724e-01
9.96773810e-01
9.96825782e-01
9.96881728e-01
9.96941716e-01
9.97005796e-01
9.97073995e-01
9.97146319e-01
9.97222750e-01
9.97303248e-01
9.97387748e-01
9.97476164e-01
9.97568386e-01
9.97664281e-01
9.97763696e-01
9.97866458e-01
9.97972374e-01
9.98081237e-01
9.98192821e-01
9.98306892e-01
9.98423204e-01
9.98541504e-01
9.98661535e-01
9.98783039e-01
9.98905758e-01
9.99029441e-01
9.99153844e-01
9.99278731e-01
9.99403883e-01
9.99529091e-01
9.99654168e-01
9.99778940e-01
9.99903257e-01
1.00002699e+00
1.00015001e+00
1.00027224e+00
1.00039361e+00
1.00051403e+00
1.00063349e+00
1.00075193e+00
1.00086934e+00
1.00098570e+00
1.00110099e+00
1.00121521e+00
1.00132834e+00
1.00144037e+00
1.00155127e+00
1.00166102e+00
1.00176958e+00
1.00187690e+00
1.00198292e+00
1.00208757e+00
1.00219079e+00
1.00229247e+00
1.00239252e+00
1.00249083e+00
1.00258730e+00
1.00268179e+00
1.00277419e+00
1.00286436e+00
1.00295217e+00
1.00303750e+00
1.00312020e+00
1.00320015e+00
1.00327722e+00
1.00335130e+00
1.00342227e+00
1.00349004e+00
1.00355450e+00
1.00361560e+00
1.00367327e+00
1.00372747e+00
1.00377818e+00
1.00382540e+00
1.00386914e+00
1.00390946e+00
1.00394641e+00
1.00398008e+00
1.00401057e+00
1.00403802e+00
1.00406257e+00
1.00408437e+00
1.00410359e+00
1.00412043e+00
1.00413507e+00
1.00414770e+00
1.00415852e+00
1.00416774e+00
1.00417553e+00
1.00418207e+00
1.00418758e+00
1.00419221e+00
1.00419605e+00
1.00419932e+00
1.00420216e+00
1.00420460e+00
1.00420676e+00
1.00420883e+00
1.00421083e+00
1.00421281e+00
1.00421501e+00
9.96358723e-01
9.96361098e-01
9.96363463e-01
9.96365919e-01
9.96368528e-01
9.96371384e-01
9.96374598e-01
9.96378233e-01
9.96382384e-01
9.96387185e-01
9.96392734e-01
9.96399149e-01
9.96406589e-01
9.96415205e-01
9.96425142e-01
9.96436571e-01
9.96449673e-01
9.96464621e-01
9.96481595e-01
9.96500781e-01
9.96522366e-01
9.96546532e-01
9.96573461e-01
9.96603330e-01
9.96636309e-01
9.96672561e-01
9.96712238e-01
9.96755481e-01
9.96802417e-01
9.96853158e-01
9.96907798e-01
9.96966416e-01
9.97029067e-01
9.97095788e-01
9.97166595e-01
9.97241478e-01
9.97320408e-01
9.97403331e-01
9.97490169e-01
9.97580821e-01
9.97675166e-01
9.97773059e-01
9.97874335e-01
9.97978812e-01
9.98086290e-01
9.98196551e-01
9.98309370e-01
9.98424506e-01
9.98541714e-01
9.98660744e-01
9.98781341e-01
9.98903255e-01
9.99026236e-01
9.99150044e-01
9.99274445e-01
9.99399219e-01
9.99524157e-01
9.99649069e-01
9.99773778e-01
9.99898127e-01
1.00002198e+00
1.00014520e+00
1.00026771e+00
1.00038940e+00
1.00051020e+00
1.00063006e+00
1.00074892e+00
1.00086676e+00
1.00098354e+00
1.00109922e+00
1.00121379e+00
1.00132723e+00
1.00143949e+00
1.00155055e+00
1.00166038e+00
1.00176892e+00
1.00187613e+00
1.00198194e+00
1.00208628e+00
1.00218908e+00
1.00229024e+00
1.00238968e+00
1.00248729e+00
1.00258296e+00
1.00267658e+00
1.00276803e+00
1.00285720e+00
1.00294395e+00
1.00302817e+00
1.00310972e+00
1.00318851e+00
1.00326439e+00
1.00333728e+00
1.00340705e+00
1.00347363e+00
1.00353692e+00
1.00359686e+00
1.00365340e+00
1.00370649e+00
1.00375613e+00
1.00380231e+00
1.00384505e+00
1.00388439e+00
1.00392040e+00
1.00395315e+00
1.00398277e+00
1.00400936e+00
1.00403307e+00
1.00405405e+00
1.00407247e+00
1.00408852e+00
1.00410238e+00
1.00411426e+00
1.00412432e+00
1.00413280e+00
1.00413987e+00
1.00414573e+00
1.00415053e+00
1.00415450e+00
1.00415777e+00
1.00416046e+00
1.00416274e+00
1.00416473e+00
1.00416651e+00
1.00416820e+00
1.00416991e+00
1.00417171e+00
1.00417377e+00
9.96396341e-01
9.96398710e-01
9.96401125e-01
9.96403625e-01
9.96406319e-01
9.96409307e-01
9.96412643e-01
9.96416409e-01
9.96420723e-01
9.96425669e-01
9.96431337e-01
9.96437867e-01
9.96445395e-01
9.96454046e-01
9.96463975e-01
9.96475348e-01
9.96488325e-01
9.96503072e-01
9.96519768e-01
9.96538594e-01
9.96559726e-01
9.96583343e-01
9.96609627e-01
9.96638752e-01
9.96670886e-01
9.96706195e-01
9.96744834e-01
9.96786946e-01
9.96832663e-01
9.96882103e-01
9.96935369e-01
9.96992544e-01
9.97053696e-01
9.97118869e-01
9.97188088e-01
9.97261355e-01
9.97338650e-01
9.97419927e-01
9.97505121e-01
9.97594140e-01
9.97686872e-01
9.97783181e-01
9.97882913e-01
9.97985893e-01
9.98091929e-01
9.98200814e-01
9.98312326e-01
9.98426236e-01
9.98542302e-01
9.98660281e-01
9.98779925e-01
9.98900985e-01
9.99023219e-01
9.99146386e-01
9.99270256e-01
9.99394608e-01
9.99519233e-01
9.99643938e-01
9.99768542e-01
9.99892882e-01
1.00001681e+00
1.00014020e+00
1.00026294e+00
1.00038492e+00
1.00050606e+00
1.00062629e+00
1.00074556e+00
1.00086379e+00
1.00098096e+00
1.00109701e+00
1.00121191e+00
1.00132562e+00
1.00143810e+00
1.00154930e+00
1.00165919e+00
1.00176770e+00
1.00187478e+00
1.00198036e+00
1.00208437e+00
1.00218673e+00
1.00228736e+00
1.00238617e+00
1.00248305e+00
1.00257790e+00
1.00267063e+00
1.00276111e+00
1.00284924e+00
1.00293489e+00
1.00301797e+00
1.00309834e+00
1.00317592e+00
1.00325057e+00
1.00332221e+00
1.00339074e+00
1.00345608e+00
1.00351814e+00
1.00357687e+00
1.00363222e+00
1.00368415e+00
1.00373266e+00
1.00377773e+00
1.00381940e+00
1.00385771e+00
1.00389271e+00
1.00392449e+00
1.00395316e+00
1.00397882e+00
1.00400163e+00
1.00402172e+00
1.00403928e+00
1.00405447e+00
1.00406749e+00
1.00407853e+00
1.00408779e+00
1.00409545e+00
1.00410173e+00
1.00410683e+00
1.00411091e+00
1.00411415e+00
1.00411675e+00
1.00411884e+00
1.00412053e+00
1.00412199e+00
1.00412335e+00
1.00412466e+00
1.00412605e+00
1.00412765e+00
1.00412957e+00
9.96436621e-01
9.96438963e-01
9.96441396e-01
9.96443955e-01
9.96446731e-01
9.96449803e-01
9.96453243e-01
9.96457143e-01
9.96461579e-01
9.96466626e-01
9.96472401e-01
9.96479016e-01
9.96486582e-01
9.96495236e-01
9.96505126e-01
9.96516396e-01
9.96529199e-01
9.96543704e-01
9.96560079e-01
9.96578492e-01
9.96599118e-01
9.96622136e-01
9.96647720e-01
9.96676043e-01
9.96707276e-01
9.96741583e-01
9.96779122e-01
9.96820041e-01
9.96864477e-01
9.96912555e-01
9.96964383e-01
9.97020054e-01
9.97079644e-01
9.97143207e-01
9.97210777e-01
9.97282366e-01
9.97357964e-01
9.97437538e-01
9.97521030e-01
9.97608359e-01
9.97699422e-01
9.97794094e-01
9.97892229e-01
9.97993660e-01
9.98098204e-01
9.98205662e-01
9.98315820e-01
9.98428454e-01
9.98543331e-01
9.98660212e-01
9.98778855e-01
9.98899016e-01
9.99020454e-01
9.99142934e-01
9.99266225e-01
9.99390108e-01
9.99514373e-01
9.99638822e-01
9.99763274e-01
9.99887558e-01
1.00001152e+00
1.00013503e+00
1.00025795e+00
1.00038018e+00
1.00050162e+00
1.00062219e+00
1.00074180e+00
1.00086040e+00
1.00097792e+00
1.00109430e+00
1.00120950e+00
1.00132346e+00
1.00143613e+00
1.00154745e+00
1.00165737e+00
1.00176583e+00
1.00187276e+00
1.00197810e+00
1.00208176e+00
1.00218368e+00
1.00228375e+00
1.00238191e+00
1.00247804e+00
1.00257206e+00
1.00266387e+00
1.00275335e+00
1.00284042e+00
1.00292495e+00
1.00300685e+00
1.00308601e+00
1.00316234e+00
1.00323573e+00
1.00330608e+00
1.00337332e+00
1.00343737e+00
1.00349816e+00
1.00355563e+00
1.00360973e+00
1.00366045e+00
1.00370777e+00
1.00375169e+00
1.00379223e+00
1.00382944e+00
1.00386338e+00
1.00389413e+00
1.00392178e+00
1.00394646e+00
1.00396830e+00
1.00398745e+00
1.00400408e+00
1.00401836e+00
1.00403047e+00
1.00404061e+00
1.00404899e+00
1.00405580e+00
1.00406123e+00
1.00406549e+00
1.00406878e+00
1.00407127e+00
1.00407313e+00
1.00407455e+00
1.00407564e+00
1.00407654e+00
1.00407740e+00
1.00407832e+00
1.00407941e+00
1.00408077e+00
1.00408251e+00
9.96479463e-01
9.96481774e-01
9.96484220e-01
9.96486823e-01
9.96489657e-01
9.96492797e-01
9.96496331e-01
9.96500328e-01
9.96504848e-01
9.96509982e-01
9.96515829e-01
9.96522482e-01
9.96530055e-01
9.96538679e-01
9.96548484e-01
9.96559606e-01
9.96572198e-01
9.96586416e-01
9.96602418e-01
9.96620370e-01
9.96640444e-01
9.96662811e-01
9.96687643e-01
9.96715112e-01
9.96745390e-01
9.96778641e-01
9.96815026e-01
9.96854697e-01
9.96897797e-01
9.96944455e-01
9.96994790e-01
9.97048902e-01
9.97106874e-01
9.97168772e-01
9.97234639e-01
9.97304498e-01
9.97378348e-01
9.97456167e-01
9.97537906e-01
9.97623496e-01
9.97712842e-01
9.97805829e-01
9.97902320e-01
9.98002156e-01
9.98105163e-01
9.98211149e-01
9.98319907e-01
9.98431221e-01
9.98544863e-01
9.98660600e-01
9.98778195e-01
9.98897409e-01
9.99018005e-01
9.99139748e-01
9.99262411e-01
9.99385773e-01
9.99509625e-01
9.99633767e-01
9.99758013e-01
9.99882188e-01
1.00000613e+00
1.00012970e+00
1.00025276e+00
1.00037518e+00
1.00049687e+00