# vtk DataFile Version 2.0
LBM Flow Field - Timestep 1740
ASCII
DATASET STRUCTURED_POINTS
DIMENSIONS 128 128 1
ORIGIN 0.0 0.0 0.0
SPACING 1.0 1.0 1.0
POINT_DATA 16384
SCALARS density double 1
LOOKUP_TABLE default
1.00635564e+00
1.00635189e+00
1.00634436e+00
1.00632707e+00
1.00630333e+00
1.00627537e+00
1.00624139e+00
1.00620129e+00
1.00615614e+00
1.00610576e+00
1.00604962e+00
1.00598789e+00
1.00592075e+00
1.00584805e+00
1.00576974e+00
1.00568596e+00
1.00559680e+00
1.00550232e+00
1.00540268e+00
1.00529809e+00
1.00518877e+00
1.00507497e+00
1.00495701e+00
1.00483523e+00
1.00470998e+00
1.00458166e+00
1.00445070e+00
1.00431752e+00
1.00418257e+00
1.00404630e+00
1.00390914e+00
1.00377155e+00
1.00363394e+00
1.00349671e+00
1.00336026e+00
1.00322493e+00
1.00309104e+00
1.00295887e+00
1.00282868e+00
1.00270068e+00
1.00257503e+00
1.00245187e+00
1.00233130e+00
1.00221337e+00
1.00209812e+00
1.00198554e+00
1.00187561e+00
1.00176826e+00
1.00166342e+00
1.00156100e+00
1.00146087e+00
1.00136291e+00
1.00126700e+00
1.00117297e+00
1.00108067e+00
1.00098995e+00
1.00090065e+00
1.00081259e+00
1.00072561e+00
1.00063955e+00
1.00055422e+00
1.00046948e+00
1.00038514e+00
1.00030104e+00
1.00021702e+00
1.00013292e+00
1.00004858e+00
9.99963841e-01
9.99878545e-01
9.99792543e-01
9.99705687e-01
9.99617832e-01
9.99528840e-01
9.99438578e-01
9.99346920e-01
9.99253749e-01
9.99158959e-01
9.99062458e-01
9.98964169e-01
9.98864032e-01
9.98762008e-01
9.98658079e-01
9.98552253e-01
9.98444562e-01
9.98335060e-01
9.98223831e-01
9.98110979e-01
9.97996628e-01
9.97880923e-01
9.97764019e-01
9.97646083e-01
9.97527285e-01
9.97407793e-01
9.97287772e-01
9.97167376e-01
9.97046746e-01
9.96926010e-01
9.96805280e-01
9.96684650e-01
9.96564206e-01
9.96444021e-01
9.96324165e-01
9.96204709e-01
9.96085728e-01
9.95967317e-01
9.95849585e-01
9.95732671e-01
9.95616749e-01
9.95502030e-01
9.95388761e-01
9.95277229e-01
9.95167789e-01
9.95060827e-01
9.94956721e-01
9.94855937e-01
9.94759051e-01
9.94666512e-01
9.94578672e-01
9.94496293e-01
9.94420200e-01
9.94350272e-01
9.94286789e-01
9.94231761e-01
9.94185554e-01
9.94145749e-01
9.94115633e-01
9.94100732e-01
9.94092883e-01
1.00635094e+00
1.00634450e+00
1.00633436e+00
1.00631744e+00
1.00629432e+00
1.00626618e+00
1.00623238e+00
1.00619286e+00
1.00614792e+00
1.00609763e+00
1.00604176e+00
1.00598032e+00
1.00591335e+00
1.00584082e+00
1.00576275e+00
1.00567918e+00
1.00559020e+00
1.00549593e+00
1.00539650e+00
1.00529212e+00
1.00518301e+00
1.00506944e+00
1.00495171e+00
1.00483015e+00
1.00470515e+00
1.00457708e+00
1.00444638e+00
1.00431346e+00
1.00417877e+00
1.00404276e+00
1.00390587e+00
1.00376854e+00
1.00363118e+00
1.00349421e+00
1.00335799e+00
1.00322289e+00
1.00308921e+00
1.00295723e+00
1.00282722e+00
1.00269937e+00
1.00257386e+00
1.00245081e+00
1.00233034e+00
1.00221249e+00
1.00209730e+00
1.00198477e+00
1.00187487e+00
1.00176754e+00
1.00166271e+00
1.00156029e+00
1.00146017e+00
1.00136222e+00
1.00126630e+00
1.00117228e+00
1.00107999e+00
1.00098929e+00
1.00090001e+00
1.00081198e+00
1.00072505e+00
1.00063903e+00
1.00055377e+00
1.00046909e+00
1.00038483e+00
1.00030082e+00
1.00021689e+00
1.00013289e+00
1.00004865e+00
9.99964020e-01
9.99878836e-01
9.99792949e-01
9.99706210e-01
9.99618474e-01
9.99529602e-01
9.99439460e-01
9.99347923e-01
9.99254874e-01
9.99160207e-01
9.99063830e-01
9.98965666e-01
9.98865656e-01
9.98763758e-01
9.98659956e-01
9.98554255e-01
9.98446685e-01
9.98337299e-01
9.98226177e-01
9.98113421e-01
9.97999152e-01
9.97883511e-01
9.97766652e-01
9.97648738e-01
9.97529937e-01
9.97410418e-01
9.97290346e-01
9.97169876e-01
9.97049152e-01
9.96928307e-01
9.96807457e-01
9.96686706e-01
9.96566145e-01
9.96445857e-01
9.96325919e-01
9.96206412e-01
9.96087421e-01
9.95969046e-01
9.95851404e-01
9.95734643e-01
9.95618937e-01
9.95504498e-01
9.95391578e-01
9.95280470e-01
9.95171510e-01
9.95065072e-01
9.94961567e-01
9.94861453e-01
9.94765213e-01
9.94673325e-01
9.94586304e-01
9.94504737e-01
9.94429171e-01
9.94359927e-01
9.94297622e-01
9.94243144e-01
9.94196849e-01
9.94158205e-01
9.94129228e-01
9.94111152e-01
9.94099741e-01
1.00634345e+00
1.00633454e+00
1.00632047e+00
1.00630443e+00
1.00628282e+00
1.00625397e+00
1.00621998e+00
1.00618128e+00
1.00613674e+00
1.00608643e+00
1.00603086e+00
1.00596982e+00
1.00590309e+00
1.00583078e+00
1.00575299e+00
1.00566969e+00
1.00558095e+00
1.00548691e+00
1.00538773e+00
1.00528359e+00
1.00517471e+00
1.00506136e+00
1.00494386e+00
1.00482254e+00
1.00469777e+00
1.00456994e+00
1.00443947e+00
1.00430679e+00
1.00417235e+00
1.00403658e+00
1.00389994e+00
1.00376285e+00
1.00362574e+00
1.00348901e+00
1.00335303e+00
1.00321816e+00
1.00308470e+00
1.00295293e+00
1.00282312e+00
1.00269545e+00
1.00257011e+00
1.00244723e+00
1.00232690e+00
1.00220918e+00
1.00209412e+00
1.00198170e+00
1.00187191e+00
1.00176468e+00
1.00165996e+00
1.00155764e+00
1.00145762e+00
1.00135978e+00
1.00126398e+00
1.00117009e+00
1.00107794e+00
1.00098739e+00
1.00089827e+00
1.00081042e+00
1.00072368e+00
1.00063787e+00
1.00055282e+00
1.00046837e+00
1.00038435e+00
1.00030059e+00
1.00021693e+00
1.00013319e+00
1.00004923e+00
9.99964870e-01
9.99879962e-01
9.99794350e-01
9.99707884e-01
9.99620417e-01
9.99531809e-01
9.99441926e-01
9.99350640e-01
9.99257833e-01
9.99163400e-01
9.99067247e-01
9.98969295e-01
9.98869484e-01
9.98767772e-01
9.98664141e-01
9.98558593e-01
9.98451157e-01
9.98341884e-01
9.98230852e-01
9.98118159e-01
9.98003927e-01
9.97888293e-01
9.97771410e-01
9.97653443e-01
9.97534559e-01
9.97414929e-01
9.97294721e-01
9.97174095e-01
9.97053202e-01
9.96932179e-01
9.96811152e-01
9.96690233e-01
9.96569523e-01
9.96449114e-01
9.96329095e-01
9.96209555e-01
9.96090588e-01
9.95972302e-01
9.95854821e-01
9.95738299e-01
9.95622911e-01
9.95508868e-01
9.95396427e-01
9.95285883e-01
9.95177549e-01
9.95071792e-01
9.94969056e-01
9.94869769e-01
9.94774314e-01
9.94683254e-01
9.94597253e-01
9.94516580e-01
9.94441522e-01
9.94373257e-01
9.94312462e-01
9.94258097e-01
9.94211124e-01
9.94174895e-01
9.94147599e-01
9.94124315e-01
9.94109956e-01
1.00632868e+00
1.00632051e+00
1.00630687e+00
1.00628928e+00
1.00626669e+00
1.00623872e+00
1.00620530e+00
1.00616637e+00
1.00612198e+00
1.00607220e+00
1.00601690e+00
1.00595602e+00
1.00588959e+00
1.00581762e+00
1.00574008e+00
1.00565704e+00
1.00556859e+00
1.00547483e+00
1.00537592e+00
1.00527204e+00
1.00516343e+00
1.00505036e+00
1.00493313e+00
1.00481209e+00
1.00468759e+00
1.00456004e+00
1.00442985e+00
1.00429746e+00
1.00416330e+00
1.00402782e+00
1.00389147e+00
1.00375466e+00
1.00361784e+00
1.00348138e+00
1.00334567e+00
1.00321106e+00
1.00307785e+00
1.00294633e+00
1.00281675e+00
1.00268931e+00
1.00256418e+00
1.00244149e+00
1.00232135e+00
1.00220382e+00
1.00208894e+00
1.00197670e+00
1.00186708e+00
1.00176003e+00
1.00165549e+00
1.00155336e+00
1.00145354e+00
1.00135591e+00
1.00126033e+00
1.00116667e+00
1.00107478e+00
1.00098451e+00
1.00089568e+00
1.00080814e+00
1.00072172e+00
1.00063626e+00
1.00055157e+00
1.00046750e+00
1.00038387e+00
1.00030051e+00
1.00021725e+00
1.00013393e+00
1.00005038e+00
9.99966436e-01
9.99881941e-01
9.99796738e-01
9.99710673e-01
9.99623598e-01
9.99535369e-01
9.99445851e-01
9.99354913e-01
9.99262436e-01
9.99168313e-01
9.99072448e-01
9.98974761e-01
9.98875190e-01
9.98773692e-01
9.98670247e-01
9.98564856e-01
9.98457546e-01
9.98348368e-01
9.98237396e-01
9.98124731e-01
9.98010490e-01
9.97894814e-01
9.97777855e-01
9.97659779e-01
9.97540756e-01
9.97420962e-01
9.97300568e-01
9.97179741e-01
9.97058639e-01
9.96937408e-01
9.96816184e-01
9.96695087e-01
9.96574231e-01
9.96453718e-01
9.96333648e-01
9.96214119e-01
9.96095235e-01
9.95977112e-01
9.95859882e-01
9.95743699e-01
9.95628745e-01
9.95515235e-01
9.95403415e-01
9.95293571e-01
9.95186034e-01
9.95081157e-01
9.94979329e-01
9.94880992e-01
9.94786612e-01
9.94696621e-01
9.94611517e-01
9.94531877e-01
9.94458148e-01
9.94390690e-01
9.94330150e-01
9.94277104e-01
9.94231807e-01
9.94194637e-01
9.94165640e-01
9.94143476e-01
9.94130345e-01
1.00630975e+00
1.00630166e+00
1.00628942e+00
1.00627090e+00
1.00624764e+00
1.00622028e+00
1.00618710e+00
1.00614806e+00
1.00610398e+00
1.00605462e+00
1.00599954e+00
1.00593889e+00
1.00587281e+00
1.00580115e+00
1.00572390e+00
1.00564117e+00
1.00555304e+00
1.00545959e+00
1.00536099e+00
1.00525744e+00
1.00514915e+00
1.00503640e+00
1.00491950e+00
1.00479879e+00
1.00467462e+00
1.00454741e+00
1.00441757e+00
1.00428552e+00
1.00415170e+00
1.00401657e+00
1.00388056e+00
1.00374410e+00
1.00360761e+00
1.00347149e+00
1.00333611e+00
1.00320181e+00
1.00306890e+00
1.00293768e+00
1.00280837e+00
1.00268120e+00
1.00255633e+00
1.00243389e+00
1.00231400e+00
1.00219670e+00
1.00208205e+00
1.00197004e+00
1.00186065e+00
1.00175384e+00
1.00164955e+00
1.00154768e+00
1.00144813e+00
1.00135079e+00
1.00125553e+00
1.00116220e+00
1.00107066e+00
1.00098076e+00
1.00089234e+00
1.00080522e+00
1.00071925e+00
1.00063424e+00
1.00055004e+00
1.00046647e+00
1.00038336e+00
1.00030052e+00
1.00021780e+00
1.00013502e+00
1.00005201e+00
9.99968609e-01
9.99884649e-01
9.99799972e-01
9.99714421e-01
9.99627844e-01
9.99540095e-01
9.99451035e-01
9.99360531e-01
9.99268462e-01
9.99174717e-01
9.99079199e-01
9.98981827e-01
9.98882536e-01
9.98781283e-01
9.98678045e-01
9.98572823e-01
9.98465643e-01
9.98356553e-01
9.98245629e-01
9.98132969e-01
9.98018694e-01
9.97902942e-01
9.97785869e-01
9.97667643e-01
9.97548440e-01
9.97428437e-01
9.97307815e-01
9.97186748e-01
9.97065402e-01
9.96943935e-01
9.96822491e-01
9.96701205e-01
9.96580202e-01
9.96459597e-01
9.96339501e-01
9.96220024e-01
9.96101280e-01
9.95983394e-01
9.95866506e-01
9.95750772e-01
9.95636377e-01
9.95523539e-01
9.95412500e-01
9.95303533e-01
9.95196967e-01
9.95093160e-01
9.94992460e-01
9.94895277e-01
9.94802134e-01
9.94713446e-01
9.94629515e-01
9.94550995e-01
9.94478643e-01
9.94412400e-01
9.94352430e-01
9.94300319e-01
9.94256508e-01
9.94219023e-01
9.94189093e-01
9.94169235e-01
9.94156513e-01
1.00628855e+00
1.00627987e+00
1.00626670e+00
1.00624888e+00
1.00622618e+00
1.00619814e+00
1.00616487e+00
1.00612654e+00
1.00608276e+00
1.00603341e+00
1.00597866e+00
1.00591848e+00
1.00585269e+00
1.00578131e+00
1.00570444e+00
1.00562209e+00
1.00553430e+00
1.00544122e+00
1.00534299e+00
1.00523981e+00
1.00513190e+00
1.00501954e+00
1.00490303e+00
1.00478270e+00
1.00465894e+00
1.00453213e+00
1.00440269e+00
1.00427104e+00
1.00413764e+00
1.00400291e+00
1.00386731e+00
1.00373125e+00
1.00359515e+00
1.00345942e+00
1.00332441e+00
1.00319048e+00
1.00305793e+00
1.00292705e+00
1.00279808e+00
1.00267123e+00
1.00254666e+00
1.00242453e+00
1.00230492e+00
1.00218791e+00
1.00207354e+00
1.00196182e+00
1.00185272e+00
1.00174622e+00
1.00164223e+00
1.00154069e+00
1.00144149e+00
1.00134451e+00
1.00124964e+00
1.00115672e+00
1.00106563e+00
1.00097620e+00
1.00088827e+00
1.00080167e+00
1.00071625e+00
1.00063182e+00
1.00054822e+00
1.00046526e+00
1.00038277e+00
1.00030059e+00
1.00021852e+00
1.00013639e+00
1.00005404e+00
9.99971297e-01
9.99887986e-01
9.99803945e-01
9.99719015e-01
9.99633039e-01
9.99545867e-01
9.99457356e-01
9.99367371e-01
9.99275787e-01
9.99182492e-01
9.99087384e-01
9.98990381e-01
9.98891416e-01
9.98790444e-01
9.98687440e-01
9.98582405e-01
9.98475363e-01
9.98366362e-01
9.98255479e-01
9.98142810e-01
9.98028479e-01
9.97912625e-01
9.97795408e-01
9.97676999e-01
9.97557578e-01
9.97437333e-01
9.97316449e-01
9.97195111e-01
9.97073495e-01
9.96951771e-01
9.96830097e-01
9.96708621e-01
9.96587480e-01
9.96466805e-01
9.96346719e-01
9.96227345e-01
9.96108809e-01
9.95991243e-01
9.95874793e-01
9.95759625e-01
9.95645923e-01
9.95533897e-01
9.95423796e-01
9.95315891e-01
9.95210476e-01
9.95107897e-01
9.95008545e-01
9.94912782e-01
9.94820991e-01
9.94733692e-01
9.94651370e-01
9.94574291e-01
9.94502917e-01
9.94438002e-01
9.94379850e-01
9.94328392e-01
9.94284344e-01
9.94248274e-01
9.94219791e-01
9.94198990e-01
9.94185667e-01
1.00626286e+00
1.00625409e+00
1.00624054e+00
1.00622315e+00
1.00620065e+00
1.00617248e+00
1.00613949e+00
1.00610147e+00
1.00605785e+00
1.00600880e+00
1.00595447e+00
1.00589462e+00
1.00582916e+00
1.00575819e+00
1.00568174e+00
1.00559977e+00
1.00551239e+00
1.00541974e+00
1.00532194e+00
1.00521919e+00
1.00511173e+00
1.00499981e+00
1.00488375e+00
1.00476389e+00
1.00464058e+00
1.00451424e+00
1.00438527e+00
1.00425409e+00
1.00412116e+00
1.00398690e+00
1.00385176e+00
1.00371616e+00
1.00358052e+00
1.00344522e+00
1.00331065e+00
1.00317714e+00
1.00304500e+00
1.00291451e+00
1.00278592e+00
1.00265943e+00
1.00253523e+00
1.00241344e+00
1.00229417e+00
1.00217750e+00
1.00206347e+00
1.00195208e+00
1.00184333e+00
1.00173718e+00
1.00163357e+00
1.00153242e+00
1.00143363e+00
1.00133709e+00
1.00124268e+00
1.00115026e+00
1.00105969e+00
1.00097082e+00
1.00088348e+00
1.00079750e+00
1.00071272e+00
1.00062897e+00
1.00054607e+00
1.00046383e+00
1.00038209e+00
1.00030065e+00
1.00021935e+00
1.00013799e+00
1.00005641e+00
9.99974433e-01
9.99891879e-01
9.99808582e-01
9.99724376e-01
9.99639100e-01
9.99552601e-01
9.99464730e-01
9.99375349e-01
9.99284328e-01
9.99191553e-01
9.99096919e-01
9.99000340e-01
9.98901749e-01
9.98801098e-01
9.98698360e-01
9.98593535e-01
9.98486645e-01
9.98377742e-01
9.98266898e-01
9.98154214e-01
9.98039814e-01
9.97923842e-01
9.97806459e-01
9.97687843e-01
9.97568181e-01
9.97447668e-01
9.97326499e-01
9.97204869e-01
9.97082968e-01
9.96960978e-01
9.96839073e-01
9.96717413e-01
9.96596154e-01
9.96475438e-01
9.96355405e-01
9.96236190e-01
9.96117931e-01
9.96000770e-01
9.95884859e-01
9.95770369e-01
9.95657487e-01
9.95546420e-01
9.95437406e-01
9.95330718e-01
9.95226644e-01
9.95125487e-01
9.95027625e-01
9.94933457e-01
9.94843309e-01
9.94757574e-01
9.94676830e-01
9.94601454e-01
9.94531595e-01
9.94467899e-01
9.94411126e-01
9.94360983e-01
9.94317547e-01
9.94282341e-01
9.94254984e-01
9.94233988e-01
9.94220782e-01
1.00623275e+00
1.00622441e+00
1.00621144e+00
1.00619369e+00
1.00617099e+00
1.00614350e+00
1.00611080e+00
1.00607268e+00
1.00602940e+00
1.00598090e+00
1.00592686e+00
1.00586730e+00
1.00580231e+00
1.00573182e+00
1.00565576e+00
1.00557424e+00
1.00548736e+00
1.00539519e+00
1.00529787e+00
1.00519562e+00
1.00508867e+00
1.00497727e+00
1.00486173e+00
1.00474239e+00
1.00461962e+00
1.00449380e+00
1.00436537e+00
1.00423473e+00
1.00410233e+00
1.00396860e+00
1.00383399e+00
1.00369891e+00
1.00356377e+00
1.00342898e+00
1.00329489e+00
1.00316185e+00
1.00303017e+00
1.00290012e+00
1.00277196e+00
1.00264589e+00
1.00252209e+00
1.00240069e+00
1.00228182e+00
1.00216553e+00
1.00205188e+00
1.00194089e+00
1.00183254e+00
1.00172680e+00
1.00162362e+00
1.00152291e+00
1.00142460e+00
1.00132857e+00
1.00123469e+00
1.00114284e+00
1.00105288e+00
1.00096464e+00
1.00087797e+00
1.00079270e+00
1.00070867e+00
1.00062568e+00
1.00054358e+00
1.00046216e+00
1.00038126e+00
1.00030068e+00
1.00022025e+00
1.00013977e+00
1.00005906e+00
9.99977955e-01
9.99896262e-01
9.99813809e-01
9.99730426e-01
9.99645947e-01
9.99560212e-01
9.99473068e-01
9.99384373e-01
9.99293993e-01
9.99201807e-01
9.99107711e-01
9.99011613e-01
9.98913445e-01
9.98813155e-01
9.98710717e-01
9.98606128e-01
9.98499411e-01
9.98390616e-01
9.98279819e-01
9.98167120e-01
9.98052647e-01
9.97936547e-01
9.97818987e-01
9.97700151e-01
9.97580234e-01
9.97459439e-01
9.97337974e-01
9.97216045e-01
9.97093856e-01
9.96971604e-01
9.96849477e-01
9.96727654e-01
9.96606304e-01
9.96485588e-01
9.96365659e-01
9.96246667e-01
9.96128760e-01
9.96012093e-01
9.95896825e-01
9.95783126e-01
9.95671187e-01
9.95561220e-01
9.95453446e-01
9.95348119e-01
9.95245539e-01
9.95146005e-01
9.95049814e-01
9.94957342e-01
9.94869023e-01
9.94785166e-01
9.94706079e-01
9.94632333e-01
9.94564399e-01
9.94502328e-01
9.94446498e-01
9.94397712e-01
9.94356017e-01
9.94321258e-01
9.94293990e-01
9.94274189e-01
9.94261770e-01
1.00619929e+00
1.00619096e+00
1.00617826e+00
1.00616057e+00
1.00613810e+00
1.00611086e+00
1.00607830e+00
1.00604052e+00
1.00599767e+00
1.00594946e+00
1.00589578e+00
1.00583671e+00
1.00577219e+00
1.00570213e+00
1.00562657e+00
1.00554559e+00
1.00545923e+00
1.00536759e+00
1.00527084e+00
1.00516916e+00
1.00506278e+00
1.00495196e+00
1.00483701e+00
1.00471827e+00
1.00459610e+00
1.00447090e+00
1.00434306e+00
1.00421303e+00
1.00408123e+00
1.00394810e+00
1.00381408e+00
1.00367958e+00
1.00354501e+00
1.00341077e+00
1.00327722e+00
1.00314471e+00
1.00301354e+00
1.00288398e+00
1.00275630e+00
1.00263069e+00
1.00250734e+00
1.00238638e+00
1.00226794e+00
1.00215209e+00
1.00203887e+00
1.00192831e+00
1.00182041e+00
1.00171514e+00
1.00161244e+00
1.00151224e+00
1.00141447e+00
1.00131900e+00
1.00122572e+00
1.00113451e+00
1.00104522e+00
1.00095769e+00
1.00087177e+00
1.00078729e+00
1.00070408e+00
1.00062195e+00
1.00054073e+00
1.00046023e+00
1.00038026e+00
1.00030064e+00
1.00022116e+00
1.00014166e+00
1.00006193e+00
9.99981787e-01
9.99901050e-01
9.99819536e-01
9.99737069e-01
9.99653476e-01
9.99568592e-01
9.99482258e-01
9.99394327e-01
9.99304660e-01
9.99213133e-01
9.99119636e-01
9.99024077e-01
9.98926380e-01
9.98826496e-01
9.98724395e-01
9.98620073e-01
9.98513553e-01
9.98404886e-01
9.98294148e-01
9.98181444e-01
9.98066902e-01
9.97950676e-01
9.97832938e-01
9.97713881e-01
9.97593707e-01
9.97472630e-01
9.97350870e-01
9.97228648e-01
9.97106181e-01
9.96983681e-01
9.96861356e-01
9.96739399e-01
9.96617999e-01
9.96497331e-01
9.96377566e-01
9.96258867e-01
9.96141395e-01
9.96025313e-01
9.95910789e-01
9.95797999e-01
9.95687128e-01
9.95578385e-01
9.95471998e-01
9.95368198e-01
9.95267251e-01
9.95169468e-01
9.95075151e-01
9.94984585e-01
9.94898152e-01
9.94816271e-01
9.94739207e-01
9.94667275e-01
9.94601032e-01
9.94540785e-01
9.94486570e-01
9.94438977e-01
9.94398547e-01
9.94364873e-01
9.94338258e-01
9.94319208e-01
9.94307071e-01
1.00616238e+00
1.00615400e+00
1.00614118e+00
1.00612390e+00
1.00610179e+00
1.00607452e+00
1.00604225e+00
1.00600500e+00
1.00596244e+00
1.00591454e+00
1.00586138e+00
1.00580283e+00
1.00573876e+00
1.00566922e+00
1.00559425e+00
1.00551384e+00
1.00542805e+00
1.00533703e+00
1.00524091e+00
1.00513986e+00
1.00503413e+00
1.00492397e+00
1.00480969e+00
1.00469163e+00
1.00457013e+00
1.00444561e+00
1.00431846e+00
1.00418910e+00
1.00405797e+00
1.00392551e+00
1.00379214e+00
1.00365828e+00
1.00352434e+00
1.00339072e+00
1.00325777e+00
1.00312583e+00
1.00299522e+00
1.00286621e+00
1.00273905e+00
1.00261395e+00
1.00249109e+00
1.00237062e+00
1.00225266e+00
1.00213728e+00
1.00202454e+00
1.00191447e+00
1.00180707e+00
1.00170230e+00
1.00160014e+00
1.00150050e+00
1.00140331e+00
1.00130846e+00
1.00121585e+00
1.00112533e+00
1.00103677e+00
1.00095002e+00
1.00086492e+00
1.00078130e+00
1.00069898e+00
1.00061778e+00
1.00053752e+00
1.00045802e+00
1.00037906e+00
1.00030048e+00
1.00022205e+00
1.00014361e+00
1.00006493e+00
9.99985847e-01
9.99906153e-01
9.99825664e-01
9.99744196e-01
9.99661571e-01
9.99577617e-01
9.99492171e-01
9.99405077e-01
9.99316193e-01
9.99225390e-01
9.99132553e-01
9.99037586e-01
9.98940413e-01
9.98840979e-01
9.98739254e-01
9.98635233e-01
9.98528940e-01
9.98420426e-01
9.98309768e-01
9.98197075e-01
9.98082480e-01
9.97966140e-01
9.97848237e-01
9.97728968e-01
9.97608549e-01
9.97487204e-01
9.97365165e-01
9.97242669e-01
9.97119948e-01
9.96997232e-01
9.96874745e-01
9.96752699e-01
9.96631301e-01
9.96510743e-01
9.96391211e-01
9.96272884e-01
9.96155936e-01
9.96040538e-01
9.95926864e-01
9.95815097e-01
9.95705421e-01
9.95598034e-01
9.95493157e-01
9.95391029e-01
9.95291884e-01
9.95195982e-01
9.95103649e-01
9.95015184e-01
9.94930836e-01
9.94850970e-01
9.94776022e-01
9.94706215e-01
9.94641765e-01
9.94583218e-01
9.94530927e-01
9.94484822e-01
9.94445318e-01
9.94412923e-01
9.94387481e-01
9.94368727e-01
9.94356783e-01
1.00612154e+00
1.00611334e+00
1.00610071e+00
1.00608364e+00
1.00606170e+00
1.00603473e+00
1.00600287e+00
1.00596591e+00
1.00592372e+00
1.00587635e+00
1.00582369e+00
1.00576560e+00
1.00570209e+00
1.00563317e+00
1.00555880e+00
1.00547901e+00
1.00539390e+00
1.00530356e+00
1.00520813e+00
1.00510780e+00
1.00500280e+00
1.00489338e+00
1.00477985e+00
1.00466254e+00
1.00454181e+00
1.00441804e+00
1.00429164e+00
1.00416304e+00
1.00403266e+00
1.00390093e+00
1.00376828e+00
1.00363513e+00
1.00350189e+00
1.00336893e+00
1.00323664e+00
1.00310533e+00
1.00297533e+00
1.00284691e+00
1.00272033e+00
1.00259579e+00
1.00247347e+00
1.00235353e+00
1.00223609e+00
1.00212123e+00
1.00200902e+00
1.00189947e+00
1.00179260e+00
1.00168840e+00
1.00158681e+00
1.00148778e+00
1.00139122e+00
1.00129704e+00
1.00120513e+00
1.00111536e+00
1.00102760e+00
1.00094168e+00
1.00085745e+00
1.00077474e+00
1.00069338e+00
1.00061318e+00
1.00053395e+00
1.00045551e+00
1.00037764e+00
1.00030016e+00
1.00022286e+00
1.00014554e+00
1.00006801e+00
9.99990049e-01
9.99911473e-01
9.99832084e-01
9.99751691e-01
9.99670108e-01
9.99587157e-01
9.99502667e-01
9.99416479e-01
9.99328442e-01
9.99238424e-01
9.99146305e-01
9.99051985e-01
9.98955384e-01
9.98856447e-01
9.98755141e-01
9.98651460e-01
9.98545429e-01
9.98437098e-01
9.98326550e-01
9.98213895e-01
9.98099271e-01
9.97982842e-01
9.97864795e-01
9.97745340e-01
9.97624701e-01
9.97503116e-01
9.97380831e-01
9.97258095e-01
9.97135160e-01
9.97012274e-01
9.96889676e-01
9.96767600e-01
9.96646268e-01
9.96525893e-01
9.96406675e-01
9.96288808e-01
9.96172478e-01
9.96057868e-01
9.95945156e-01
9.95834524e-01
9.95726164e-01
9.95620267e-01
9.95517035e-01
9.95416693e-01
9.95319484e-01
9.95225639e-01
9.95135409e-01
9.95049112e-01
9.94967033e-01
9.94889404e-01
9.94816566e-01
9.94748901e-01
9.94686599e-01
9.94629895e-01
9.94579258e-01
9.94534855e-01
9.94496757e-01
9.94465417e-01
9.94440891e-01
9.94422846e-01
9.94411410e-01
1.00607706e+00
1.00606908e+00
1.00605676e+00
1.00603979e+00
1.00601805e+00
1.00599154e+00
1.00596001e+00
1.00592336e+00
1.00588168e+00
1.00583484e+00
1.00578266e+00
1.00572514e+00
1.00566228e+00
1.00559400e+00
1.00552029e+00
1.00544122e+00
1.00535685e+00
1.00526726e+00
1.00517260e+00
1.00507307e+00
1.00496888e+00
1.00486029e+00
1.00474759e+00
1.00463111e+00
1.00451122e+00
1.00438829e+00
1.00426274e+00
1.00413497e+00
1.00400541e+00
1.00387449e+00
1.00374263e+00
1.00361026e+00
1.00347777e+00
1.00334555e+00
1.00321396e+00
1.00308335e+00
1.00295401e+00
1.00282624e+00
1.00270027e+00
1.00257633e+00
1.00245460e+00
1.00233524e+00
1.00221837e+00
1.00210407e+00
1.00199241e+00
1.00188344e+00
1.00177715e+00
1.00167354e+00
1.00157257e+00
1.00147418e+00
1.00137830e+00
1.00128483e+00
1.00119367e+00
1.00110469e+00
1.00101776e+00
1.00093272e+00
1.00084941e+00
1.00076767e+00
1.00068732e+00
1.00060816e+00
1.00053002e+00
1.00045269e+00
1.00037597e+00
1.00029965e+00
1.00022354e+00
1.00014741e+00
1.00007107e+00
9.99994309e-01
9.99916916e-01
9.99838692e-01
9.99759438e-01
9.99678961e-01
9.99597076e-01
9.99513605e-01
9.99428382e-01
9.99341252e-01
9.99252076e-01
9.99160729e-01
9.99067108e-01
9.98971130e-01
9.98872736e-01
9.98771892e-01
9.98668594e-01
9.98562864e-01
9.98454756e-01
9.98344354e-01
9.98231772e-01
9.98117154e-01
9.98000671e-01
9.97882519e-01
9.97762916e-01
9.97642098e-01
9.97520316e-01
9.97397830e-01
9.97274907e-01
9.97151815e-01
9.97028818e-01
9.96906178e-01
9.96784144e-01
9.96662958e-01
9.96542850e-01
9.96424038e-01
9.96306729e-01
9.96191120e-01
9.96077405e-01
9.95965768e-01
9.95856392e-01
9.95749462e-01
9.95645174e-01
9.95543721e-01
9.95445297e-01
9.95350128e-01
9.95258456e-01
9.95170494e-01
9.95086476e-01
9.95006714e-01
9.94931470e-01
9.94860931e-01
9.94795414e-01
9.94735286e-01
9.94680669e-01
9.94631747e-01
9.94588960e-01
9.94552471e-01
9.94522268e-01
9.94498560e-01
9.94481384e-01
9.94470500e-01
1.00602918e+00
1.00602130e+00
1.00600916e+00
1.00599246e+00
1.00597106e+00
1.00594485e+00
1.00591367e+00
1.00587753e+00
1.00583636e+00
1.00579000e+00
1.00573841e+00
1.00568156e+00
1.00561936e+00
1.00555176e+00
1.00547881e+00
1.00540053e+00
1.00531695e+00
1.00522820e+00
1.00513441e+00
1.00503576e+00
1.00493247e+00
1.00482478e+00
1.00471301e+00
1.00459746e+00
1.00447849e+00
1.00435649e+00
1.00423185e+00
1.00410499e+00
1.00397633e+00
1.00384629e+00
1.00371530e+00
1.00358378e+00
1.00345211e+00
1.00332069e+00
1.00318987e+00
1.00306000e+00
1.00293138e+00
1.00280430e+00
1.00267901e+00
1.00255572e+00
1.00243462e+00
1.00231588e+00
1.00219961e+00
1.00208591e+00
1.00197486e+00
1.00186649e+00
1.00176081e+00
1.00165783e+00
1.00155752e+00
1.00145981e+00
1.00136464e+00
1.00127192e+00
1.00118154e+00
1.00109339e+00
1.00100733e+00
1.00092320e+00
1.00084085e+00
1.00076012e+00
1.00068081e+00
1.00060274e+00
1.00052573e+00
1.00044955e+00
1.00037402e+00
1.00029892e+00
1.00022403e+00
1.00014915e+00
1.00007406e+00
9.99998543e-01
9.99922386e-01
9.99845380e-01
9.99767319e-01
9.99688003e-01
9.99607238e-01
9.99524841e-01
9.99440637e-01
9.99354466e-01
9.99266183e-01
9.99175659e-01
9.99082787e-01
9.98987480e-01
9.98889676e-01
9.98789342e-01
9.98686470e-01
9.98581086e-01
9.98473245e-01
9.98363033e-01
9.98250571e-01
9.98136005e-01
9.98019516e-01
9.97901308e-01
9.97781609e-01
9.97660667e-01
9.97538747e-01
9.97416124e-01
9.97293081e-01
9.97169904e-01
9.97046875e-01
9.96924273e-01
9.96802369e-01
9.96681422e-01
9.96561679e-01
9.96443373e-01
9.96326728e-01
9.96211952e-01
9.96099243e-01
9.95988794e-01
9.95880792e-01
9.95775417e-01
9.95672849e-01
9.95573283e-01
9.95476906e-01
9.95383903e-01
9.95294487e-01
9.95208890e-01
9.95127307e-01
9.95049952e-01
9.94977105e-01
9.94909003e-01
9.94845811e-01
9.94787809e-01
9.94735282e-01
9.94688343e-01
9.94647203e-01
9.94612152e-01
9.94583256e-01
9.94560582e-01
9.94544124e-01
9.94533661e-01
1.00597783e+00
1.00597009e+00
1.00595813e+00
1.00594174e+00
1.00592067e+00
1.00589476e+00
1.00586404e+00
1.00582842e+00
1.00578774e+00
1.00574196e+00
1.00569105e+00
1.00563488e+00
1.00557338e+00
1.00550658e+00
1.00543446e+00
1.00535701e+00
1.00527432e+00
1.00518650e+00
1.00509366e+00
1.00499597e+00
1.00489366e+00
1.00478698e+00
1.00467621e+00
1.00456167e+00
1.00444372e+00
1.00432274e+00
1.00419910e+00
1.00407324e+00
1.00394555e+00
1.00381648e+00
1.00368643e+00
1.00355581e+00
1.00342503e+00
1.00329447e+00
1.00316449e+00
1.00303542e+00
1.00290758e+00
1.00278124e+00
1.00265667e+00
1.00253407e+00
1.00241365e+00
1.00229557e+00
1.00217994e+00
1.00206689e+00
1.00195647e+00
1.00184874e+00
1.00174372e+00
1.00164141e+00
1.00154177e+00
1.00144478e+00
1.00135035e+00
1.00125840e+00
1.00116884e+00
1.00108154e+00
1.00099637e+00
1.00091319e+00
1.00083183e+00
1.00075213e+00
1.00067389e+00
1.00059695e+00
1.00052108e+00
1.00044610e+00
1.00037179e+00
1.00029793e+00
1.00022432e+00
1.00015071e+00
1.00007691e+00
1.00000268e+00
9.99927794e-01
9.99852048e-01
9.99775223e-01
9.99697111e-01
9.99617511e-01
9.99536232e-01
9.99453092e-01
9.99367927e-01
9.99280583e-01
9.99190929e-01
9.99098851e-01
9.99004261e-01
9.98907095e-01
9.98807317e-01
9.98704921e-01
9.98599932e-01
9.98492408e-01
9.98382439e-01
9.98270149e-01
9.98155693e-01
9.98039257e-01
9.97921055e-01
9.97801326e-01
9.97680331e-01
9.97558348e-01
9.97435667e-01
9.97312588e-01
9.97189413e-01
9.97066445e-01
9.96943980e-01
9.96822308e-01
9.96701705e-01
9.96582435e-01
9.96464749e-01
9.96348881e-01
9.96235053e-01
9.96123469e-01
9.96014326e-01
9.95907811e-01
9.95804105e-01
9.95703379e-01
9.95605806e-01
9.95511570e-01
9.95420847e-01
9.95333802e-01
9.95250634e-01
9.95171557e-01
9.95096739e-01
9.95026367e-01
9.94960700e-01
9.94899930e-01
9.94844185e-01
9.94793722e-01
9.94748777e-01
9.94709417e-01
9.94675820e-01
9.94648218e-01
9.94626627e-01
9.94610890e-01
9.94600888e-01
1.00592304e+00
1.00591549e+00
1.00590380e+00
1.00588767e+00
1.00586691e+00
1.00584144e+00
1.00581119e+00
1.00577606e+00
1.00573596e+00
1.00569085e+00
1.00564062e+00
1.00558517e+00
1.00552449e+00
1.00545854e+00
1.00538729e+00
1.00531078e+00
1.00522907e+00
1.00514224e+00
1.00505042e+00
1.00495380e+00
1.00485257e+00
1.00474697e+00
1.00463730e+00
1.00452388e+00
1.00440703e+00
1.00428715e+00
1.00416461e+00
1.00403982e+00
1.00391320e+00
1.00378516e+00
1.00365612e+00
1.00352649e+00
1.00339667e+00
1.00326703e+00
1.00313794e+00
1.00300973e+00
1.00288271e+00
1.00275718e+00
1.00263337e+00
1.00251152e+00
1.00239182e+00
1.00227444e+00
1.00215950e+00
1.00204712e+00
1.00193738e+00
1.00183033e+00
1.00172599e+00
1.00162437e+00
1.00152545e+00
1.00142919e+00
1.00133553e+00
1.00124438e+00
1.00115566e+00
1.00106923e+00
1.00098498e+00
1.00090276e+00
1.00082240e+00
1.00074375e+00
1.00066661e+00
1.00059080e+00
1.00051611e+00
1.00044233e+00
1.00036926e+00
1.00029668e+00
1.00022435e+00
1.00015205e+00
1.00007955e+00
1.00000663e+00
9.99933056e-01
9.99858600e-01
9.99783042e-01
9.99706167e-01
9.99627765e-01
9.99547640e-01
9.99465602e-01
9.99381479e-01
9.99295115e-01
9.99206371e-01
9.99115131e-01
9.99021303e-01
9.98924820e-01
9.98825647e-01
9.98723777e-01
9.98619236e-01
9.98512085e-01
9.98402418e-01
9.98290363e-01
9.98176083e-01
9.98059771e-01
9.97941651e-01
9.97821972e-01
9.97701009e-01
9.97579052e-01
9.97456407e-01
9.97333391e-01
9.97210324e-01
9.97087524e-01
9.96965308e-01
9.96843982e-01
9.96723841e-01
9.96605166e-01
9.96488220e-01
9.96373252e-01
9.96260492e-01
9.96150153e-01
9.96042436e-01
9.95937524e-01
9.95835594e-01
9.95736818e-01
9.95641350e-01
9.95549347e-01
9.95460979e-01
9.95376402e-01
9.95295760e-01
9.95219230e-01
9.95147000e-01
9.95079211e-01
9.95016022e-01
9.94957652e-01
9.94904256e-01
9.94855948e-01
9.94812932e-01
9.94775372e-01
9.94743358e-01
9.94717025e-01
9.94696444e-01
9.94681520e-01
9.94672054e-01
1.00586498e+00
1.00585763e+00
1.00584620e+00
1.00583036e+00
1.00580996e+00
1.00578494e+00
1.00575517e+00
1.00572059e+00
1.00568114e+00
1.00563671e+00
1.00558720e+00
1.00553257e+00
1.00547277e+00
1.00540772e+00
1.00533743e+00
1.00526194e+00
1.00518128e+00
1.00509553e+00
1.00500484e+00
1.00490936e+00
1.00480930e+00
1.00470489e+00
1.00459641e+00
1.00448418e+00
1.00436854e+00
1.00424984e+00
1.00412848e+00
1.00400485e+00
1.00387937e+00
1.00375245e+00
1.00362450e+00
1.00349593e+00
1.00336713e+00
1.00323848e+00
1.00311034e+00
1.00298305e+00
1.00285692e+00
1.00273223e+00
1.00260924e+00
1.00248818e+00
1.00236925e+00
1.00225261e+00
1.00213840e+00
1.00202674e+00
1.00191770e+00
1.00181136e+00
1.00170773e+00
1.00160684e+00
1.00150866e+00
1.00141316e+00
1.00132028e+00
1.00122995e+00
1.00114208e+00
1.00105654e+00
1.00097322e+00
1.00089197e+00
1.00081263e+00
1.00073503e+00
1.00065900e+00
1.00058433e+00
1.00051082e+00
1.00043827e+00
1.00036645e+00
1.00029513e+00
1.00022410e+00