# vtk DataFile Version 2.0
LBM Flow Field - Timestep 2540
ASCII
DATASET STRUCTURED_POINTS
DIMENSIONS 128 128 1
ORIGIN 0.0 0.0 0.0
SPACING 1.0 1.0 1.0
POINT_DATA 16384
SCALARS density double 1
LOOKUP_TABLE default
9.98681828e-01
9.98703933e-01
9.98730249e-01
9.98742979e-01
9.98759993e-01
9.98782347e-01
9.98806609e-01
9.98832602e-01
9.98861483e-01
9.98892702e-01
9.98925766e-01
9.98960546e-01
9.98996893e-01
9.99034488e-01
9.99073066e-01
9.99112388e-01
9.99152204e-01
9.99192260e-01
9.99232325e-01
9.99272178e-01
9.99311614e-01
9.99350447e-01
9.99388513e-01
9.99425669e-01
9.99461795e-01
9.99496797e-01
9.99530604e-01
9.99563168e-01
9.99594467e-01
9.99624500e-01
9.99653288e-01
9.99680871e-01
9.99707310e-01
9.99732678e-01
9.99757066e-01
9.99780572e-01
9.99803306e-01
9.99825382e-01
9.99846919e-01
9.99868035e-01
9.99888846e-01
9.99909463e-01
9.99929992e-01
9.99950525e-01
9.99971147e-01
9.99991927e-01
1.00001292e+00
1.00003417e+00
1.00005569e+00
1.00007749e+00
1.00009956e+00
1.00012188e+00
1.00014441e+00
1.00016708e+00
1.00018984e+00
1.00021260e+00
1.00023529e+00
1.00025782e+00
1.00028009e+00
1.00030202e+00
1.00032352e+00
1.00034451e+00
1.00036492e+00
1.00038468e+00
1.00040376e+00
1.00042211e+00
1.00043972e+00
1.00045660e+00
1.00047276e+00
1.00048825e+00
1.00050313e+00
1.00051748e+00
1.00053139e+00
1.00054497e+00
1.00055837e+00
1.00057171e+00
1.00058515e+00
1.00059885e+00
1.00061299e+00
1.00062773e+00
1.00064325e+00
1.00065973e+00
1.00067733e+00
1.00069622e+00
1.00071655e+00
1.00073848e+00
1.00076212e+00
1.00078761e+00
1.00081504e+00
1.00084451e+00
1.00087608e+00
1.00090981e+00
1.00094572e+00
1.00098383e+00
1.00102413e+00
1.00106660e+00
1.00111118e+00
1.00115780e+00
1.00120638e+00
1.00125681e+00
1.00130895e+00
1.00136266e+00
1.00141778e+00
1.00147411e+00
1.00153146e+00
1.00158961e+00
1.00164833e+00
1.00170737e+00
1.00176646e+00
1.00182535e+00
1.00188376e+00
1.00194139e+00
1.00199797e+00
1.00205319e+00
1.00210677e+00
1.00215842e+00
1.00220787e+00
1.00225480e+00
1.00229903e+00
1.00234033e+00
1.00237836e+00
1.00241262e+00
1.00244396e+00
1.00247221e+00
1.00249460e+00
1.00251164e+00
1.00253973e+00
1.00256270e+00
9.98704410e-01
9.98716244e-01
9.98737109e-01
9.98751703e-01
9.98770320e-01
9.98791540e-01
9.98815600e-01
9.98841754e-01
9.98870466e-01
9.98901298e-01
9.98934137e-01
9.98968676e-01
9.99004725e-01
9.99042007e-01
9.99080288e-01
9.99119304e-01
9.99158813e-01
9.99198568e-01
9.99238342e-01
9.99277914e-01
9.99317085e-01
9.99355670e-01
9.99393508e-01
9.99430456e-01
9.99466397e-01
9.99501235e-01
9.99534900e-01
9.99567344e-01
9.99598543e-01
9.99628495e-01
9.99657219e-01
9.99684755e-01
9.99711157e-01
9.99736499e-01
9.99760867e-01
9.99784358e-01
9.99807078e-01
9.99829138e-01
9.99850655e-01
9.99871743e-01
9.99892516e-01
9.99913084e-01
9.99933550e-01
9.99954005e-01
9.99974533e-01
9.99995201e-01
1.00001607e+00
1.00003717e+00
1.00005852e+00
1.00008015e+00
1.00010203e+00
1.00012414e+00
1.00014644e+00
1.00016889e+00
1.00019141e+00
1.00021394e+00
1.00023638e+00
1.00025867e+00
1.00028070e+00
1.00030239e+00
1.00032366e+00
1.00034442e+00
1.00036461e+00
1.00038418e+00
1.00040306e+00
1.00042124e+00
1.00043869e+00
1.00045543e+00
1.00047146e+00
1.00048685e+00
1.00050163e+00
1.00051590e+00
1.00052974e+00
1.00054328e+00
1.00055664e+00
1.00056995e+00
1.00058337e+00
1.00059707e+00
1.00061121e+00
1.00062595e+00
1.00064148e+00
1.00065797e+00
1.00067558e+00
1.00069447e+00
1.00071481e+00
1.00073672e+00
1.00076035e+00
1.00078582e+00
1.00081322e+00
1.00084263e+00
1.00087414e+00
1.00090779e+00
1.00094361e+00
1.00098161e+00
1.00102178e+00
1.00106410e+00
1.00110851e+00
1.00115494e+00
1.00120331e+00
1.00125350e+00
1.00130539e+00
1.00135883e+00
1.00141366e+00
1.00146968e+00
1.00152670e+00
1.00158451e+00
1.00164286e+00
1.00170153e+00
1.00176025e+00
1.00181875e+00
1.00187677e+00
1.00193401e+00
1.00199020e+00
1.00204503e+00
1.00209825e+00
1.00214953e+00
1.00219864e+00
1.00224527e+00
1.00228921e+00
1.00233014e+00
1.00236798e+00
1.00240227e+00
1.00243340e+00
1.00246064e+00
1.00248444e+00
1.00250298e+00
1.00252627e+00
1.00253987e+00
9.98732632e-01
9.98738913e-01
9.98746483e-01
9.98765034e-01
9.98785448e-01
9.98805083e-01
9.98828336e-01
9.98854785e-01
9.98883224e-01
9.98913608e-01
9.98946117e-01
9.98980361e-01
9.99016040e-01
9.99052951e-01
9.99090867e-01
9.99129515e-01
9.99168651e-01
9.99208042e-01
9.99247461e-01
9.99286690e-01
9.99325532e-01
9.99363806e-01
9.99401351e-01
9.99438026e-01
9.99473715e-01
9.99508324e-01
9.99541780e-01
9.99574036e-01
9.99605066e-01
9.99634867e-01
9.99663456e-01
9.99690869e-01
9.99717161e-01
9.99742401e-01
9.99766672e-01
9.99790068e-01
9.99812693e-01
9.99834655e-01
9.99856067e-01
9.99877043e-01
9.99897694e-01
9.99918128e-01
9.99938446e-01
9.99958738e-01
9.99979088e-01
9.99999563e-01
1.00002022e+00
1.00004109e+00
1.00006221e+00
1.00008358e+00
1.00010520e+00
1.00012704e+00
1.00014906e+00
1.00017121e+00
1.00019344e+00
1.00021567e+00
1.00023782e+00
1.00025981e+00
1.00028155e+00
1.00030296e+00
1.00032396e+00
1.00034446e+00
1.00036440e+00
1.00038373e+00
1.00040239e+00
1.00042036e+00
1.00043762e+00
1.00045418e+00
1.00047006e+00
1.00048530e+00
1.00049995e+00
1.00051411e+00
1.00052786e+00
1.00054131e+00
1.00055459e+00
1.00056784e+00
1.00058121e+00
1.00059486e+00
1.00060895e+00
1.00062366e+00
1.00063915e+00
1.00065560e+00
1.00067317e+00
1.00069202e+00
1.00071230e+00
1.00073416e+00
1.00075772e+00
1.00078310e+00
1.00081041e+00
1.00083972e+00
1.00087110e+00
1.00090460e+00
1.00094025e+00
1.00097806e+00
1.00101801e+00
1.00106009e+00
1.00110424e+00
1.00115039e+00
1.00119844e+00
1.00124830e+00
1.00129983e+00
1.00135288e+00
1.00140729e+00
1.00146288e+00
1.00151945e+00
1.00157678e+00
1.00163465e+00
1.00169282e+00
1.00175102e+00
1.00180901e+00
1.00186649e+00
1.00192321e+00
1.00197888e+00
1.00203320e+00
1.00208590e+00
1.00213670e+00
1.00218533e+00
1.00223153e+00
1.00227504e+00
1.00231550e+00
1.00235296e+00
1.00238733e+00
1.00241771e+00
1.00244357e+00
1.00246869e+00
1.00249080e+00
1.00250205e+00
1.00251083e+00
9.98749401e-01
9.98757333e-01
9.98768382e-01
9.98784701e-01
9.98801801e-01
9.98822212e-01
9.98845786e-01
9.98871455e-01
9.98899332e-01
9.98929517e-01
9.98961641e-01
9.98995415e-01
9.99030669e-01
9.99067168e-01
9.99104641e-01
9.99142847e-01
9.99181550e-01
9.99220514e-01
9.99259512e-01
9.99298333e-01
9.99336783e-01
9.99374682e-01
9.99411870e-01
9.99448209e-01
9.99483582e-01
9.99517895e-01
9.99551077e-01
9.99583077e-01
9.99613871e-01
9.99643452e-01
9.99671835e-01
9.99699055e-01
9.99725163e-01
9.99750226e-01
9.99774325e-01
9.99797550e-01
9.99820003e-01
9.99841790e-01
9.99863020e-01
9.99883806e-01
9.99904257e-01
9.99924478e-01
9.99944570e-01
9.99964624e-01
9.99984719e-01
1.00000493e+00
1.00002530e+00
1.00004588e+00
1.00006669e+00
1.00008774e+00
1.00010902e+00
1.00013052e+00
1.00015220e+00
1.00017401e+00
1.00019588e+00
1.00021776e+00
1.00023957e+00
1.00026122e+00
1.00028263e+00
1.00030371e+00
1.00032439e+00
1.00034459e+00
1.00036425e+00
1.00038331e+00
1.00040171e+00
1.00041945e+00
1.00043649e+00
1.00045285e+00
1.00046855e+00
1.00048362e+00
1.00049813e+00
1.00051216e+00
1.00052579e+00
1.00053913e+00
1.00055232e+00
1.00056549e+00
1.00057879e+00
1.00059237e+00
1.00060640e+00
1.00062104e+00
1.00063647e+00
1.00065285e+00
1.00067035e+00
1.00068911e+00
1.00070930e+00
1.00073105e+00
1.00075449e+00
1.00077974e+00
1.00080688e+00
1.00083601e+00
1.00086719e+00
1.00090047e+00
1.00093586e+00
1.00097339e+00
1.00101304e+00
1.00105479e+00
1.00109857e+00
1.00114432e+00
1.00119195e+00
1.00124135e+00
1.00129239e+00
1.00134493e+00
1.00139881e+00
1.00145383e+00
1.00150981e+00
1.00156654e+00
1.00162379e+00
1.00168131e+00
1.00173886e+00
1.00179619e+00
1.00185302e+00
1.00190907e+00
1.00196407e+00
1.00201775e+00
1.00206982e+00
1.00212000e+00
1.00216802e+00
1.00221362e+00
1.00225659e+00
1.00229665e+00
1.00233345e+00
1.00236706e+00
1.00239754e+00
1.00242388e+00
1.00244592e+00
1.00246616e+00
1.00248053e+00
1.00249079e+00
9.98771690e-01
9.98780638e-01
9.98793294e-01
9.98806270e-01
9.98822793e-01
9.98843976e-01
9.98866737e-01
9.98891559e-01
9.98919169e-01
9.98948986e-01
9.98980537e-01
9.99013793e-01
9.99048568e-01
9.99084550e-01
9.99121495e-01
9.99159183e-01
9.99197373e-01
9.99235828e-01
9.99274328e-01
9.99312667e-01
9.99350650e-01
9.99388101e-01
9.99424861e-01
9.99460794e-01
9.99495783e-01
9.99529735e-01
9.99562576e-01
9.99594257e-01
9.99624751e-01
9.99654048e-01
9.99682164e-01
9.99709128e-01
9.99734991e-01
9.99759816e-01
9.99783680e-01
9.99806672e-01
9.99828890e-01
9.99850437e-01
9.99871421e-01
9.99891952e-01
9.99912136e-01
9.99932079e-01
9.99951879e-01
9.99971626e-01
9.99991400e-01
1.00001127e+00
1.00003129e+00
1.00005151e+00
1.00007194e+00
1.00009261e+00
1.00011350e+00
1.00013459e+00
1.00015586e+00
1.00017726e+00
1.00019873e+00
1.00022021e+00
1.00024161e+00
1.00026287e+00
1.00028389e+00
1.00030461e+00
1.00032493e+00
1.00034480e+00
1.00036413e+00
1.00038288e+00
1.00040101e+00
1.00041848e+00
1.00043528e+00
1.00045142e+00
1.00046692e+00
1.00048181e+00
1.00049616e+00
1.00051004e+00
1.00052354e+00
1.00053678e+00
1.00054986e+00
1.00056294e+00
1.00057615e+00
1.00058965e+00
1.00060360e+00
1.00061817e+00
1.00063352e+00
1.00064981e+00
1.00066720e+00
1.00068586e+00
1.00070593e+00
1.00072753e+00
1.00075081e+00
1.00077587e+00
1.00080280e+00
1.00083169e+00
1.00086261e+00
1.00089558e+00
1.00093065e+00
1.00096782e+00
1.00100707e+00
1.00104838e+00
1.00109169e+00
1.00113694e+00
1.00118403e+00
1.00123286e+00
1.00128329e+00
1.00133519e+00
1.00138839e+00
1.00144271e+00
1.00149797e+00
1.00155394e+00
1.00161041e+00
1.00166715e+00
1.00172390e+00
1.00178041e+00
1.00183643e+00
1.00189167e+00
1.00194586e+00
1.00199874e+00
1.00205001e+00
1.00209943e+00
1.00214672e+00
1.00219159e+00
1.00223381e+00
1.00227328e+00
1.00230963e+00
1.00234233e+00
1.00237186e+00
1.00239870e+00
1.00242022e+00
1.00243738e+00
1.00245288e+00
1.00246397e+00
9.98800177e-01
9.98807642e-01
9.98818569e-01
9.98832133e-01
9.98849358e-01
9.98868828e-01
9.98890654e-01
9.98915534e-01
9.98942679e-01
9.98971705e-01
9.99002697e-01
9.99035453e-01
9.99069622e-01
9.99104982e-01
9.99141335e-01
9.99178429e-01
9.99216020e-01
9.99253887e-01
9.99291814e-01
9.99329593e-01
9.99367035e-01
9.99403964e-01
9.99440226e-01
9.99475684e-01
9.99510222e-01
9.99543745e-01
9.99576181e-01
9.99607480e-01
9.99637610e-01
9.99666564e-01
9.99694350e-01
9.99720999e-01
9.99746556e-01
9.99771083e-01
9.99794653e-01
9.99817352e-01
9.99839274e-01
9.99860521e-01
9.99881198e-01
9.99901412e-01
9.99921268e-01
9.99940870e-01
9.99960314e-01
9.99979692e-01
9.99999081e-01
1.00001855e+00
1.00003816e+00
1.00005795e+00
1.00007795e+00
1.00009816e+00
1.00011860e+00
1.00013923e+00
1.00016004e+00
1.00018097e+00
1.00020198e+00
1.00022300e+00
1.00024395e+00
1.00026477e+00
1.00028537e+00
1.00030567e+00
1.00032560e+00
1.00034509e+00
1.00036407e+00
1.00038249e+00
1.00040030e+00
1.00041748e+00
1.00043402e+00
1.00044992e+00
1.00046520e+00
1.00047990e+00
1.00049407e+00
1.00050780e+00
1.00052116e+00
1.00053427e+00
1.00054724e+00
1.00056022e+00
1.00057334e+00
1.00058674e+00
1.00060061e+00
1.00061508e+00
1.00063032e+00
1.00064651e+00
1.00066378e+00
1.00068230e+00
1.00070221e+00
1.00072364e+00
1.00074671e+00
1.00077154e+00
1.00079821e+00
1.00082681e+00
1.00085739e+00
1.00089001e+00
1.00092467e+00
1.00096139e+00
1.00100016e+00
1.00104095e+00
1.00108369e+00
1.00112833e+00
1.00117477e+00
1.00122290e+00
1.00127261e+00
1.00132374e+00
1.00137613e+00
1.00142962e+00
1.00148400e+00
1.00153908e+00
1.00159463e+00
1.00165043e+00
1.00170623e+00
1.00176178e+00
1.00181682e+00
1.00187110e+00
1.00192433e+00
1.00197626e+00
1.00202660e+00
1.00207509e+00
1.00212149e+00
1.00216556e+00
1.00220695e+00
1.00224547e+00
1.00228113e+00
1.00231356e+00
1.00234207e+00
1.00236727e+00
1.00238922e+00
1.00240666e+00
1.00242059e+00
1.00243026e+00
9.98831298e-01
9.98838365e-01
9.98848303e-01
9.98862026e-01
9.98878390e-01
9.98896888e-01
9.98918642e-01
9.98942977e-01
9.98969241e-01
9.98997676e-01
9.99028137e-01
9.99060204e-01
9.99093669e-01
9.99128372e-01
9.99164057e-01
9.99200467e-01
9.99237385e-01
9.99274593e-01
9.99311871e-01
9.99349018e-01
9.99385847e-01
9.99422187e-01
9.99457881e-01
9.99492797e-01
9.99526817e-01
9.99559849e-01
9.99591818e-01
9.99622671e-01
9.99652379e-01
9.99680928e-01
9.99708327e-01
9.99734602e-01
9.99759795e-01
9.99783965e-01
9.99807183e-01
9.99829530e-01
9.99851099e-01
9.99871988e-01
9.99892299e-01
9.99912136e-01
9.99931605e-01
9.99950806e-01
9.99969835e-01
9.99988782e-01
1.00000773e+00
1.00002674e+00
1.00004587e+00
1.00006518e+00
1.00008468e+00
1.00010439e+00
1.00012431e+00
1.00014443e+00
1.00016472e+00
1.00018513e+00
1.00020563e+00
1.00022614e+00
1.00024659e+00
1.00026693e+00
1.00028706e+00
1.00030691e+00
1.00032641e+00
1.00034548e+00
1.00036408e+00
1.00038213e+00
1.00039961e+00
1.00041648e+00
1.00043274e+00
1.00044838e+00
1.00046342e+00
1.00047791e+00
1.00049189e+00
1.00050545e+00
1.00051866e+00
1.00053163e+00
1.00054448e+00
1.00055734e+00
1.00057035e+00
1.00058366e+00
1.00059741e+00
1.00061178e+00
1.00062690e+00
1.00064296e+00
1.00066009e+00
1.00067844e+00
1.00069816e+00
1.00071938e+00
1.00074221e+00
1.00076676e+00
1.00079312e+00
1.00082137e+00
1.00085157e+00
1.00088375e+00
1.00091794e+00
1.00095414e+00
1.00099234e+00
1.00103251e+00
1.00107459e+00
1.00111851e+00
1.00116420e+00
1.00121152e+00
1.00126038e+00
1.00131062e+00
1.00136208e+00
1.00141460e+00
1.00146798e+00
1.00152202e+00
1.00157652e+00
1.00163123e+00
1.00168593e+00
1.00174038e+00
1.00179431e+00
1.00184747e+00
1.00189959e+00
1.00195042e+00
1.00199970e+00
1.00204715e+00
1.00209250e+00
1.00213555e+00
1.00217609e+00
1.00221373e+00
1.00224829e+00
1.00227993e+00
1.00230813e+00
1.00233226e+00
1.00235320e+00
1.00237056e+00
1.00238353e+00
1.00239273e+00
9.98864945e-01
9.98871998e-01
9.98882040e-01
9.98894868e-01
9.98910298e-01
9.98928785e-01
9.98949973e-01
9.98973276e-01
9.98998961e-01
9.99026878e-01
9.99056558e-01
9.99087843e-01
9.99120611e-01
9.99154587e-01
9.99189507e-01
9.99225167e-01
9.99261351e-01
9.99297827e-01
9.99334387e-01
9.99370835e-01
9.99406985e-01
9.99442668e-01
9.99477732e-01
9.99512042e-01
9.99545483e-01
9.99577962e-01
9.99609403e-01
9.99639754e-01
9.99668979e-01
9.99697067e-01
9.99724021e-01
9.99749865e-01
9.99774638e-01
9.99798396e-01
9.99821205e-01
9.99843145e-01
9.99864304e-01
9.99884777e-01
9.99904665e-01
9.99924070e-01
9.99943094e-01
9.99961837e-01
9.99980394e-01
9.99998854e-01
1.00001730e+00
1.00003579e+00
1.00005440e+00
1.00007316e+00
1.00009211e+00
1.00011126e+00
1.00013062e+00
1.00015017e+00
1.00016988e+00
1.00018974e+00
1.00020967e+00
1.00022963e+00
1.00024954e+00
1.00026935e+00
1.00028897e+00
1.00030833e+00
1.00032737e+00
1.00034600e+00
1.00036418e+00
1.00038185e+00
1.00039896e+00
1.00041550e+00
1.00043145e+00
1.00044681e+00
1.00046160e+00
1.00047586e+00
1.00048964e+00
1.00050301e+00
1.00051606e+00
1.00052889e+00
1.00054160e+00
1.00055434e+00
1.00056723e+00
1.00058041e+00
1.00059405e+00
1.00060828e+00
1.00062327e+00
1.00063917e+00
1.00065613e+00
1.00067430e+00
1.00069380e+00
1.00071476e+00
1.00073731e+00
1.00076154e+00
1.00078755e+00
1.00081539e+00
1.00084514e+00
1.00087682e+00
1.00091046e+00
1.00094607e+00
1.00098362e+00
1.00102309e+00
1.00106441e+00
1.00110753e+00
1.00115235e+00
1.00119877e+00
1.00124666e+00
1.00129589e+00
1.00134630e+00
1.00139772e+00
1.00144997e+00
1.00150285e+00
1.00155615e+00
1.00160965e+00
1.00166312e+00
1.00171632e+00
1.00176900e+00
1.00182091e+00
1.00187180e+00
1.00192140e+00
1.00196946e+00
1.00201574e+00
1.00205997e+00
1.00210188e+00
1.00214130e+00
1.00217805e+00
1.00221172e+00
1.00224216e+00
1.00226953e+00
1.00229332e+00
1.00231324e+00
1.00232968e+00
1.00234250e+00
1.00235150e+00
9.98902234e-01
9.98908920e-01
9.98918546e-01
9.98930700e-01
9.98945754e-01
9.98963712e-01
9.98983984e-01
9.99006685e-01
9.99031810e-01
9.99058884e-01
9.99087741e-01
9.99118303e-01
9.99150287e-01
9.99183425e-01
9.99217532e-01
9.99252392e-01
9.99287768e-01
9.99323445e-01
9.99359225e-01
9.99394911e-01
9.99430319e-01
9.99465284e-01
9.99499656e-01
9.99533301e-01
9.99566105e-01
9.99597973e-01
9.99628830e-01
9.99658621e-01
9.99687310e-01
9.99714881e-01
9.99741337e-01
9.99766696e-01
9.99790996e-01
9.99814288e-01
9.99836635e-01
9.99858115e-01
9.99878811e-01
9.99898816e-01
9.99918228e-01
9.99937147e-01
9.99955673e-01
9.99973905e-01
9.99991936e-01
1.00000986e+00
1.00002775e+00
1.00004567e+00
1.00006370e+00
1.00008187e+00
1.00010021e+00
1.00011875e+00
1.00013749e+00
1.00015643e+00
1.00017553e+00
1.00019477e+00
1.00021410e+00
1.00023346e+00
1.00025280e+00
1.00027204e+00
1.00029112e+00
1.00030996e+00
1.00032850e+00
1.00034666e+00
1.00036439e+00
1.00038164e+00
1.00039838e+00
1.00041456e+00
1.00043018e+00
1.00044524e+00
1.00045977e+00
1.00047379e+00
1.00048735e+00
1.00050052e+00
1.00051340e+00
1.00052606e+00
1.00053863e+00
1.00055122e+00
1.00056398e+00
1.00057703e+00
1.00059053e+00
1.00060462e+00
1.00061945e+00
1.00063518e+00
1.00065194e+00
1.00066988e+00
1.00068913e+00
1.00070982e+00
1.00073204e+00
1.00075591e+00
1.00078151e+00
1.00080890e+00
1.00083814e+00
1.00086926e+00
1.00090229e+00
1.00093723e+00
1.00097405e+00
1.00101273e+00
1.00105321e+00
1.00109543e+00
1.00113929e+00
1.00118469e+00
1.00123152e+00
1.00127963e+00
1.00132887e+00
1.00137908e+00
1.00143008e+00
1.00148167e+00
1.00153366e+00
1.00158581e+00
1.00163792e+00
1.00168974e+00
1.00174104e+00
1.00179158e+00
1.00184109e+00
1.00188935e+00
1.00193608e+00
1.00198104e+00
1.00202402e+00
1.00206475e+00
1.00210296e+00
1.00213852e+00
1.00217127e+00
1.00220079e+00
1.00222702e+00
1.00225003e+00
1.00226936e+00
1.00228500e+00
1.00229724e+00
1.00230579e+00
9.98942580e-01
9.98948711e-01
9.98957751e-01
9.98969571e-01
9.98984155e-01
9.99001253e-01
9.99020876e-01
9.99043024e-01
9.99067291e-01
9.99093507e-01
9.99121625e-01
9.99151362e-01
9.99182450e-01
9.99214724e-01
9.99247977e-01
9.99281962e-01
9.99316467e-01
9.99351291e-01
9.99386232e-01
9.99421095e-01
9.99455703e-01
9.99489894e-01
9.99523517e-01
9.99556440e-01
9.99588552e-01
9.99619755e-01
9.99649974e-01
9.99679153e-01
9.99707253e-01
9.99734256e-01
9.99760162e-01
9.99784986e-01
9.99808763e-01
9.99831538e-01
9.99853375e-01
9.99874344e-01
9.99894528e-01
9.99914016e-01
9.99932902e-01
9.99951286e-01
9.99969265e-01
9.99986936e-01
1.00000439e+00
1.00002173e+00
1.00003901e+00
1.00005632e+00
1.00007372e+00
1.00009125e+00
1.00010894e+00
1.00012683e+00
1.00014491e+00
1.00016319e+00
1.00018164e+00
1.00020022e+00
1.00021891e+00
1.00023764e+00
1.00025636e+00
1.00027501e+00
1.00029351e+00
1.00031180e+00
1.00032981e+00
1.00034747e+00
1.00036474e+00
1.00038155e+00
1.00039788e+00
1.00041368e+00
1.00042896e+00
1.00044371e+00
1.00045795e+00
1.00047171e+00
1.00048504e+00
1.00049801e+00
1.00051069e+00
1.00052318e+00
1.00053559e+00
1.00054803e+00
1.00056064e+00
1.00057354e+00
1.00058689e+00
1.00060081e+00
1.00061547e+00
1.00063100e+00
1.00064755e+00
1.00066524e+00
1.00068421e+00
1.00070457e+00
1.00072644e+00
1.00074990e+00
1.00077504e+00
1.00080193e+00
1.00083061e+00
1.00086111e+00
1.00089346e+00
1.00092766e+00
1.00096369e+00
1.00100150e+00
1.00104106e+00
1.00108229e+00
1.00112510e+00
1.00116939e+00
1.00121505e+00
1.00126194e+00
1.00130991e+00
1.00135879e+00
1.00140843e+00
1.00145862e+00
1.00150916e+00
1.00155986e+00
1.00161048e+00
1.00166081e+00
1.00171061e+00
1.00175965e+00
1.00180768e+00
1.00185446e+00
1.00189975e+00
1.00194331e+00
1.00198489e+00
1.00202431e+00
1.00206131e+00
1.00209563e+00
1.00212716e+00
1.00215574e+00
1.00218103e+00
1.00220299e+00
1.00222160e+00
1.00223666e+00
1.00224824e+00
1.00225617e+00
9.98985470e-01
9.98991220e-01
9.98999779e-01
9.99011084e-01
9.99025002e-01
9.99041456e-01
9.99060480e-01
9.99081803e-01
9.99105216e-01
9.99130677e-01
9.99157941e-01
9.99186743e-01
9.99216933e-01
9.99248312e-01
9.99280632e-01
9.99313684e-01
9.99347273e-01
9.99381190e-01
9.99415234e-01
9.99449220e-01
9.99482975e-01
9.99516337e-01
9.99549158e-01
9.99581309e-01
9.99612676e-01
9.99643163e-01
9.99672694e-01
9.99701211e-01
9.99728674e-01
9.99755061e-01
9.99780369e-01
9.99804611e-01
9.99827817e-01
9.99850031e-01
9.99871310e-01
9.99891723e-01
9.99911349e-01
9.99930274e-01
9.99948591e-01
9.99966394e-01
9.99983781e-01
1.00000085e+00
1.00001769e+00
1.00003439e+00
1.00005103e+00
1.00006768e+00
1.00008441e+00
1.00010125e+00
1.00011826e+00
1.00013546e+00
1.00015284e+00
1.00017042e+00
1.00018817e+00
1.00020608e+00
1.00022409e+00
1.00024216e+00
1.00026023e+00
1.00027825e+00
1.00029615e+00
1.00031386e+00
1.00033132e+00
1.00034846e+00
1.00036523e+00
1.00038159e+00
1.00039748e+00
1.00041290e+00
1.00042782e+00
1.00044224e+00
1.00045618e+00
1.00046967e+00
1.00048275e+00
1.00049550e+00
1.00050798e+00
1.00052029e+00
1.00053252e+00
1.00054480e+00
1.00055724e+00
1.00056998e+00
1.00058316e+00
1.00059691e+00
1.00061137e+00
1.00062668e+00
1.00064298e+00
1.00066039e+00
1.00067905e+00
1.00069906e+00
1.00072053e+00
1.00074355e+00
1.00076820e+00
1.00079453e+00
1.00082259e+00
1.00085243e+00
1.00088404e+00
1.00091743e+00
1.00095259e+00
1.00098947e+00
1.00102802e+00
1.00106818e+00
1.00110985e+00
1.00115295e+00
1.00119734e+00
1.00124291e+00
1.00128951e+00
1.00133697e+00
1.00138513e+00
1.00143381e+00
1.00148281e+00
1.00153193e+00
1.00158097e+00
1.00162969e+00
1.00167788e+00
1.00172531e+00
1.00177174e+00
1.00181694e+00
1.00186068e+00
1.00190274e+00
1.00194286e+00
1.00198084e+00
1.00201649e+00
1.00204958e+00
1.00207986e+00
1.00210727e+00
1.00213160e+00
1.00215263e+00
1.00217035e+00
1.00218470e+00
1.00219564e+00
1.00220308e+00
9.99030743e-01
9.99036093e-01
9.99044213e-01
9.99054930e-01
9.99068223e-01
9.99084083e-01
9.99102347e-01
9.99122830e-01
9.99145474e-01
9.99170081e-01
9.99196395e-01
9.99224277e-01
9.99253541e-01
9.99283944e-01
9.99315283e-01
9.99347370e-01
9.99379993e-01
9.99412947e-01
9.99446045e-01
9.99479107e-01
9.99511959e-01
9.99544443e-01
9.99576414e-01
9.99607743e-01
9.99638318e-01
9.99668043e-01
9.99696840e-01
9.99724649e-01
9.99751428e-01
9.99777154e-01
9.99801820e-01
9.99825436e-01
9.99848029e-01
9.99869638e-01
9.99890317e-01
9.99910132e-01
9.99929159e-01
9.99947480e-01
9.99965186e-01
9.99982369e-01
9.99999125e-01
1.00001555e+00
1.00003173e+00
1.00004776e+00
1.00006372e+00
1.00007968e+00
1.00009570e+00
1.00011183e+00
1.00012812e+00
1.00014458e+00
1.00016124e+00
1.00017809e+00
1.00019512e+00
1.00021230e+00
1.00022961e+00
1.00024699e+00
1.00026439e+00
1.00028176e+00
1.00029903e+00
1.00031614e+00
1.00033303e+00
1.00034963e+00
1.00036589e+00
1.00038177e+00
1.00039723e+00
1.00041224e+00
1.00042678e+00
1.00044086e+00
1.00045449e+00
1.00046769e+00
1.00048052e+00
1.00049304e+00
1.00050530e+00
1.00051741e+00
1.00052946e+00
1.00054156e+00
1.00055383e+00
1.00056639e+00
1.00057938e+00
1.00059293e+00
1.00060717e+00
1.00062225e+00
1.00063828e+00
1.00065540e+00
1.00067371e+00
1.00069334e+00
1.00071438e+00
1.00073692e+00
1.00076102e+00
1.00078675e+00
1.00081416e+00
1.00084326e+00
1.00087408e+00
1.00090661e+00
1.00094084e+00
1.00097671e+00
1.00101419e+00
1.00105320e+00
1.00109366e+00
1.00113547e+00
1.00117852e+00
1.00122268e+00
1.00126781e+00
1.00131375e+00
1.00136035e+00
1.00140742e+00
1.00145477e+00
1.00150222e+00
1.00154956e+00
1.00159657e+00
1.00164305e+00
1.00168877e+00
1.00173350e+00
1.00177703e+00
1.00181913e+00
1.00185957e+00
1.00189816e+00
1.00193464e+00
1.00196883e+00
1.00200057e+00
1.00202962e+00
1.00205581e+00
1.00207904e+00
1.00209913e+00
1.00211598e+00
1.00212956e+00
1.00213987e+00
1.00214677e+00
9.99078209e-01
9.99083110e-01
9.99090722e-01
9.99100893e-01
9.99113595e-01
9.99128755e-01
9.99146234e-01
9.99165948e-01
9.99187750e-01
9.99211417e-01
9.99236804e-01
9.99263744e-01
9.99292007e-01
9.99321396e-01
9.99351732e-01
9.99382805e-01
9.99414410e-01
9.99446361e-01
9.99478472e-01
9.99510564e-01
9.99542467e-01
9.99574029e-01
9.99605105e-01
9.99635569e-01
9.99665308e-01
9.99694227e-01
9.99722247e-01
9.99749306e-01
9.99775361e-01
9.99800384e-01
9.99824368e-01
9.99847318e-01
9.99869257e-01
9.99890222e-01
9.99910263e-01
9.99929443e-01
9.99947833e-01
9.99965515e-01
9.99982574e-01
9.99999102e-01
1.00001519e+00
1.00003094e+00
1.00004643e+00
1.00006176e+00
1.00007700e+00
1.00009223e+00
1.00010752e+00
1.00012291e+00
1.00013844e+00
1.00015415e+00
1.00017006e+00
1.00018615e+00
1.00020243e+00
1.00021888e+00
1.00023546e+00
1.00025213e+00
1.00026884e+00
1.00028554e+00
1.00030216e+00
1.00031866e+00
1.00033495e+00
1.00035100e+00
1.00036674e+00
1.00038213e+00
1.00039713e+00
1.00041172e+00
1.00042588e+00
1.00043960e+00
1.00045291e+00
1.00046582e+00
1.00047838e+00
1.00049065e+00
1.00050270e+00
1.00051460e+00
1.00052645e+00
1.00053836e+00
1.00055044e+00
1.00056281e+00
1.00057560e+00
1.00058893e+00
1.00060294e+00
1.00061775e+00
1.00063349e+00
1.00065028e+00
1.00066824e+00
1.00068745e+00
1.00070803e+00
1.00073004e+00
1.00075357e+00
1.00077866e+00
1.00080536e+00
1.00083369e+00
1.00086366e+00
1.00089527e+00
1.00092850e+00
1.00096331e+00
1.00099964e+00
1.00103744e+00
1.00107661e+00
1.00111707e+00
1.00115869e+00
1.00120136e+00
1.00124494e+00
1.00128928e+00
1.00133422e+00
1.00137959e+00
1.00142521e+00
1.00147089e+00
1.00151644e+00
1.00156166e+00
1.00160633e+00
1.00165025e+00
1.00169320e+00
1.00173496e+00
1.00177533e+00
1.00181409e+00
1.00185103e+00
1.00188596e+00
1.00191865e+00
1.00194894e+00
1.00197667e+00
1.00200165e+00
1.00202372e+00
1.00204280e+00
1.00205876e+00
1.00207156e+00
1.00208120e+00
1.00208753e+00
9.99127508e-01
9.99131956e-01
9.99139066e-01
9.99148699e-01
9.99160774e-01
9.99175212e-01
9.99191940e-01
9.99210845e-01
9.99231741e-01
9.99254485e-01
9.99278929e-01
9.99304862e-01
9.99332094e-01
9.99360455e-01
9.99389744e-01
9.99419758e-01
9.99450313e-01
9.99481225e-01
9.99512307e-01
9.99543388e-01
9.99574304e-01
9.99604903e-01
9.99635045e-01
9.99664604e-01
9.99693468e-01
9.99721541e-01
9.99748744e-01
9.99775015e-01
9.99800307e-01
9.99824591e-01
9.99847856e-01
9.99870103e-01
9.99891354e-01
9.99911640e-01
9.99931009e-01
9.99949520e-01
9.99967242e-01
9.99984251e-01
1.00000063e+00
1.00001648e+00
1.00003187e+00
1.00004691e+00
1.00006169e+00
1.00007629e+00
1.00009079e+00
1.00010527e+00
1.00011980e+00
1.00013442e+00
1.00014918e+00
1.00016412e+00
1.00017924e+00
1.00019457e+00
1.00021009e+00
1.00022578e+00
1.00024161e+00
1.00025756e+00
1.00027356e+00
1.00028958e+00
1.00030554e+00
1.00032140e+00
1.00033710e+00
1.00035258e+00
1.00036779e+00
1.00038268e+00
1.00039722e+00
1.00041137e+00
1.00042513e+00
1.00043850e+00
1.00045147e+00
1.00046408e+00
1.00047637e+00
1.00048839e+00
1.00050020e+00
1.00051188e+00
1.00052352e+00
1.00053523e+00
1.00054711e+00
1.00055927e+00
1.00057185e+00
1.00058495e+00
1.00059871e+00
1.00061324e+00
1.00062867e+00
1.00064511e+00
1.00066267e+00
1.00068144e+00
1.00070152e+00
1.00072299e+00
1.00074590e+00
1.00077031e+00
1.00079626e+00
1.00082377e+00
1.00085285e+00
1.00088350e+00
1.00091568e+00
1.00094936e+00
1.00098450e+00
1.00102101e+00
1.00105884e+00
1.00109786e+00
1.00113799e+00
1.00117910e+00
1.00122105e+00
1.00126371e+00
1.00130692e+00
1.00135051e+00
1.00139431e+00
1.00143815e+00
1.00148183e+00
1.00152517e+00
1.00156795e+00
1.00160999e+00
1.00165107e+00
1.00169100e+00
1.00172956e+00
1.00176656e+00
1.00180180e+00
1.00183508e+00
1.00186622e+00
1.00189504e+00
1.00192137e+00
1.00194507e+00
1.00196598e+00
1.00198400e+00
1.00199904e+00
1.00201105e+00
1.00202001e+00
1.00202577e+00
9.99178341e-01
9.99182360e-01
9.99188974e-01
9.99198042e-01
9.99209475e-01
9.99223212e-01
9.99239172e-01
9.99257219e-01
9.99277218e-01
9.99299034e-01
9.99322483e-01
9.99347385e-01
9.99373579e-01
9.99400875e-01
9.99429078e-01
9.99458008e-01
9.99487483e-01
9.99517318e-01
9.99547336e-01
9.99577373e-01
9.99607267e-01
9.99636868e-01
9.99666039e-01
9.99694657e-01
9.99722610e-01
9.99749803e-01
9.99776155e-01
9.99801602e-01
9.99826097e-01
9.99849608e-01
9.99872120e-01
9.99893633e-01
9.99914163e-01
9.99933740e-01
9.99952408e-01
9.99970221e-01
9.99987246e-01
1.00000356e+00
1.00001924e+00
1.00003437e+00
1.00004905e+00
1.00006336e+00
1.00007740e+00
1.00009125e+00
1.00010499e+00
1.00011871e+00
1.00013245e+00
1.00014629e+00
1.00016027e+00
1.00017441e+00
1.00018875e+00
1.00020329e+00
1.00021803e+00
1.00023296e+00
1.00024804e+00
1.00026325e+00
1.00027854e+00
1.00029386e+00
1.00030916e+00
1.00032439e+00
1.00033948e+00
1.00035438e+00
1.00036905e+00
1.00038343e+00
1.00039750e+00
1.00041122e+00
1.00042458e+00
1.00043758e+00
1.00045021e+00
1.00046252e+00
1.00047452e+00
1.00048628e+00
1.00049784e+00
1.00050930e+00
1.00052072e+00
1.00053222e+00
1.00054389e+00
1.00055583e+00
1.00056818e+00
1.00058103e+00
1.00059452e+00
1.00060875e+00
1.00062385e+00
1.00063992e+00
1.00065706e+00
1.00067537e+00
1.00069493e+00
1.00071581e+00
1.00073807e+00
1.00076177e+00
1.00078694e+00
1.00081359e+00
1.00084173e+00
1.00087136e+00
1.00090245e+00
1.00093496e+00
1.00096884e+00
1.00100402e+00
1.00104043e+00
1.00107797e+00
1.00111654e+00
1.00115602e+00
1.00119629e+00
1.00123720e+00
1.00127860e+00
1.00132034e+00
1.00136226e+00
1.00140418e+00
1.00144592e+00
1.00148730e+00
1.00152813e+00
1.00156822e+00
1.00160737e+00
1.00164539e+00
1.00168208e+00
1.00171726e+00
1.00175073e+00
1.00178231e+00
1.00181184e+00
1.00183914e+00
1.00186404e+00
1.00188642e+00
1.00190613e+00
1.00192308e+00
1.00193717e+00
1.00194838e+00
1.00195663e+00
1.00196182e+00
9.99230428e-01
9.99234014e-01
9.99240136e-01
9.99248639e-01
9.99259436e-01
9.99272464e-01
9.99287630e-01
9.99304823e-01
9.99323923e-01
9.99344774e-01
9.99367210e-01
9.99391079e-01
9.99416205e-01
9.99442404e-01
9.99469503e-01
9.99497326e-01
9.99525689e-01
9.99554418e-01
9.99583346e-01
9.99612307e-01
9.99641147e-01
9.99669719e-01
9.99697889e-01
9.99725534e-01
9.99752545e-01
9.99778825e-01
9.99804294e-01
9.99828888e-01
9.99852555e-01
9.99875263e-01
9.99896994e-01
9.99917744e-01
9.99937526e-01
9.99956367e-01
9.99974308e-01
9.99991399e-01
1.00000770e+00
1.00002329e+00
1.00003825e+00
1.00005265e+00
1.00006659e+00
1.00008016e+00
1.00009345e+00
1.00010654e+00
1.00011951e+00
1.00013244e+00
1.00014540e+00
1.00015845e+00
1.00017163e+00
1.00018498e+00
1.00019852e+00
1.00021227e+00
1.00022623e+00
1.00024038e+00
1.00025471e+00
1.00026918e+00
1.00028375e+00
1.00029838e+00
1.00031301e+00
1.00032760e+00
1.00034208e+00
1.00035641e+00
1.00037053e+00
1.00038441e+00
1.00039800e+00