# vtk DataFile Version 2.0
LBM Flow Field - Timestep 1340
ASCII
DATASET STRUCTURED_POINTS
DIMENSIONS 128 128 1
ORIGIN 0.0 0.0 0.0
SPACING 1.0 1.0 1.0
POINT_DATA 16384
SCALARS density double 1
LOOKUP_TABLE default
1.00571898e+00
1.00571007e+00
1.00569037e+00
1.00564761e+00
1.00559015e+00
1.00552262e+00
1.00544226e+00
1.00534975e+00
1.00524818e+00
1.00513823e+00
1.00502009e+00
1.00489518e+00
1.00476486e+00
1.00462990e+00
1.00449117e+00
1.00434970e+00
1.00420633e+00
1.00406174e+00
1.00391662e+00
1.00377159e+00
1.00362716e+00
1.00348378e+00
1.00334182e+00
1.00320162e+00
1.00306345e+00
1.00292754e+00
1.00279409e+00
1.00266325e+00
1.00253517e+00
1.00240998e+00
1.00228777e+00
1.00216864e+00
1.00205270e+00
1.00194001e+00
1.00183067e+00
1.00172474e+00
1.00162229e+00
1.00152339e+00
1.00142809e+00
1.00133643e+00
1.00124845e+00
1.00116415e+00
1.00108355e+00
1.00100661e+00
1.00093331e+00
1.00086359e+00
1.00079736e+00
1.00073453e+00
1.00067499e+00
1.00061858e+00
1.00056517e+00
1.00051459e+00
1.00046665e+00
1.00042119e+00
1.00037800e+00
1.00033690e+00
1.00029770e+00
1.00026021e+00
1.00022425e+00
1.00018966e+00
1.00015628e+00
1.00012394e+00
1.00009253e+00
1.00006192e+00
1.00003198e+00
1.00000262e+00
9.99973744e-01
9.99945253e-01
9.99917063e-01
9.99889083e-01
9.99861222e-01
9.99833376e-01
9.99805435e-01
9.99777272e-01
9.99748741e-01
9.99719676e-01
9.99689891e-01
9.99659171e-01
9.99627280e-01
9.99593956e-01
9.99558914e-01
9.99521846e-01
9.99482428e-01
9.99440322e-01
9.99395181e-01
9.99346653e-01
9.99294389e-01
9.99238051e-01
9.99177312e-01
9.99111870e-01
9.99041447e-01
9.98965798e-01
9.98884714e-01
9.98798025e-01
9.98705607e-01
9.98607378e-01
9.98503305e-01
9.98393404e-01
9.98277740e-01
9.98156433e-01
9.98029655e-01
9.97897639e-01
9.97760676e-01
9.97619120e-01
9.97473399e-01
9.97324009e-01
9.97171518e-01
9.97016578e-01
9.96859920e-01
9.96702338e-01
9.96544695e-01
9.96387951e-01
9.96233103e-01
9.96081121e-01
9.95933072e-01
9.95790146e-01
9.95653312e-01
9.95523374e-01
9.95401617e-01
9.95289299e-01
9.95186497e-01
9.95093778e-01
9.95013532e-01
9.94946168e-01
9.94889636e-01
9.94847931e-01
9.94825162e-01
9.94813212e-01
1.00571167e+00
1.00569763e+00
1.00567317e+00
1.00563158e+00
1.00557589e+00
1.00550828e+00
1.00542864e+00
1.00533765e+00
1.00523696e+00
1.00512766e+00
1.00501056e+00
1.00488670e+00
1.00475722e+00
1.00462310e+00
1.00448527e+00
1.00434461e+00
1.00420197e+00
1.00405809e+00
1.00391364e+00
1.00376921e+00
1.00362535e+00
1.00348248e+00
1.00334102e+00
1.00320127e+00
1.00306354e+00
1.00292804e+00
1.00279498e+00
1.00266453e+00
1.00253684e+00
1.00241202e+00
1.00229018e+00
1.00217143e+00
1.00205586e+00
1.00194354e+00
1.00183456e+00
1.00172898e+00
1.00162687e+00
1.00152830e+00
1.00143330e+00
1.00134192e+00
1.00125418e+00
1.00117010e+00
1.00108967e+00
1.00101287e+00
1.00093966e+00
1.00086999e+00
1.00080377e+00
1.00074091e+00
1.00068128e+00
1.00062476e+00
1.00057119e+00
1.00052041e+00
1.00047225e+00
1.00042653e+00
1.00038305e+00
1.00034164e+00
1.00030211e+00
1.00026428e+00
1.00022797e+00
1.00019301e+00
1.00015925e+00
1.00012654e+00
1.00009475e+00
1.00006375e+00
1.00003344e+00
1.00000370e+00
9.99974448e-01
9.99945586e-01
9.99917026e-01
9.99888679e-01
9.99860451e-01
9.99832240e-01
9.99803932e-01
9.99775400e-01
9.99746498e-01
9.99717060e-01
9.99686898e-01
9.99655798e-01
9.99623525e-01
9.99589818e-01
9.99554393e-01
9.99516945e-01
9.99477154e-01
9.99434683e-01
9.99389190e-01
9.99340327e-01
9.99287752e-01
9.99231128e-01
9.99170137e-01
9.99104480e-01
9.99033885e-01
9.98958112e-01
9.98876957e-01
9.98790257e-01
9.98697888e-01
9.98599777e-01
9.98495892e-01
9.98386255e-01
9.98270934e-01
9.98150052e-01
9.98023785e-01
9.97892365e-01
9.97756085e-01
9.97615301e-01
9.97470433e-01
9.97321976e-01
9.97170495e-01
9.97016631e-01
9.96861098e-01
9.96704684e-01
9.96548250e-01
9.96392715e-01
9.96239050e-01
9.96088262e-01
9.95941404e-01
9.95799534e-01
9.95663664e-01
9.95534802e-01
9.95414022e-01
9.95302282e-01
9.95200190e-01
9.95108668e-01
9.95028943e-01
9.94961595e-01
9.94906277e-01
9.94865054e-01
9.94838643e-01
9.94823769e-01
1.00570239e+00
1.00568448e+00
1.00565258e+00
1.00561345e+00
1.00556072e+00
1.00549198e+00
1.00541221e+00
1.00532298e+00
1.00522325e+00
1.00511427e+00
1.00499800e+00
1.00487516e+00
1.00474645e+00
1.00461306e+00
1.00447605e+00
1.00433618e+00
1.00419425e+00
1.00405108e+00
1.00390732e+00
1.00376356e+00
1.00362032e+00
1.00347807e+00
1.00333720e+00
1.00319805e+00
1.00306089e+00
1.00292597e+00
1.00279350e+00
1.00266364e+00
1.00253654e+00
1.00241233e+00
1.00229111e+00
1.00217298e+00
1.00205803e+00
1.00194634e+00
1.00183798e+00
1.00173302e+00
1.00163151e+00
1.00153351e+00
1.00143905e+00
1.00134818e+00
1.00126091e+00
1.00117724e+00
1.00109717e+00
1.00102068e+00
1.00094771e+00
1.00087822e+00
1.00081211e+00
1.00074928e+00
1.00068963e+00
1.00063302e+00
1.00057930e+00
1.00052831e+00
1.00047988e+00
1.00043384e+00
1.00039000e+00
1.00034819e+00
1.00030821e+00
1.00026991e+00
1.00023310e+00
1.00019762e+00
1.00016332e+00
1.00013007e+00
1.00009772e+00
1.00006617e+00
1.00003529e+00
1.00000500e+00
9.99975197e-01
9.99945789e-01
9.99916693e-01
9.99887819e-01
9.99859074e-01
9.99830357e-01
9.99801554e-01
9.99772539e-01
9.99743166e-01
9.99713268e-01
9.99682658e-01
9.99651123e-01
9.99618428e-01
9.99584312e-01
9.99548494e-01
9.99510671e-01
9.99470524e-01
9.99427721e-01
9.99381921e-01
9.99332782e-01
9.99279964e-01
9.99223137e-01
9.99161986e-01
9.99096218e-01
9.99025567e-01
9.98949796e-01
9.98868709e-01
9.98782146e-01
9.98689991e-01
9.98592171e-01
9.98488663e-01
9.98379489e-01
9.98264722e-01
9.98144484e-01
9.98018954e-01
9.97888362e-01
9.97753000e-01
9.97613218e-01
9.97469432e-01
9.97322126e-01
9.97171858e-01
9.97019254e-01
9.96865010e-01
9.96709908e-01
9.96554796e-01
9.96400553e-01
9.96248130e-01
9.96098580e-01
9.95952911e-01
9.95812043e-01
9.95677116e-01
9.95549352e-01
9.95429405e-01
9.95317949e-01
9.95216679e-01
9.95126581e-01
9.95046710e-01
9.94978449e-01
9.94925371e-01
9.94885495e-01
9.94854540e-01
9.94836862e-01
1.00568259e+00
1.00566669e+00
1.00563605e+00
1.00559439e+00
1.00553994e+00
1.00547311e+00
1.00539465e+00
1.00530523e+00
1.00520600e+00
1.00509821e+00
1.00498270e+00
1.00486043e+00
1.00473254e+00
1.00460000e+00
1.00446372e+00
1.00432457e+00
1.00418341e+00
1.00404096e+00
1.00389790e+00
1.00375484e+00
1.00361230e+00
1.00347074e+00
1.00333057e+00
1.00319211e+00
1.00305567e+00
1.00292148e+00
1.00278976e+00
1.00266067e+00
1.00253437e+00
1.00241097e+00
1.00229059e+00
1.00217333e+00
1.00205925e+00
1.00194843e+00
1.00184095e+00
1.00173685e+00
1.00163619e+00
1.00153901e+00
1.00144533e+00
1.00135519e+00
1.00126859e+00
1.00118554e+00
1.00110601e+00
1.00102997e+00
1.00095738e+00
1.00088816e+00
1.00082225e+00
1.00075953e+00
1.00069989e+00
1.00064321e+00
1.00058933e+00
1.00053810e+00
1.00048935e+00
1.00044292e+00
1.00039864e+00
1.00035632e+00
1.00031579e+00
1.00027688e+00
1.00023944e+00
1.00020330e+00
1.00016832e+00
1.00013436e+00
1.00010131e+00
1.00006904e+00
1.00003745e+00
1.00000645e+00
9.99975947e-01
9.99945852e-01
9.99916083e-01
9.99886554e-01
9.99857172e-01
9.99827839e-01
9.99798441e-01
9.99768852e-01
9.99738927e-01
9.99708500e-01
9.99677384e-01
9.99645367e-01
9.99612213e-01
9.99577665e-01
9.99541441e-01
9.99503240e-01
9.99462747e-01
9.99419632e-01
9.99373558e-01
9.99324187e-01
9.99271184e-01
9.99214224e-01
9.99152997e-01
9.99087216e-01
9.99016620e-01
9.98940979e-01
9.98860101e-01
9.98773831e-01
9.98682056e-01
9.98584709e-01
9.98481768e-01
9.98373257e-01
9.98259248e-01
9.98139865e-01
9.98015283e-01
9.97885729e-01
9.97751488e-01
9.97612905e-01
9.97470387e-01
9.97324407e-01
9.97175508e-01
9.97024306e-01
9.96871486e-01
9.96717803e-01
9.96564080e-01
9.96411212e-01
9.96260132e-01
9.96111809e-01
9.95967277e-01
9.95827578e-01
9.95693690e-01
9.95566633e-01
9.95447478e-01
9.95337114e-01
9.95236294e-01
9.95145997e-01
9.95067106e-01
9.95000284e-01
9.94946059e-01
9.94904044e-01
9.94873326e-01
9.94857033e-01
1.00565831e+00
1.00564280e+00
1.00561523e+00
1.00557200e+00
1.00551670e+00
1.00545132e+00
1.00537347e+00
1.00528409e+00
1.00518571e+00
1.00507893e+00
1.00496406e+00
1.00484250e+00
1.00471549e+00
1.00458379e+00
1.00444826e+00
1.00430992e+00
1.00416956e+00
1.00402790e+00
1.00388561e+00
1.00374333e+00
1.00360158e+00
1.00346081e+00
1.00332144e+00
1.00318381e+00
1.00304822e+00
1.00291491e+00
1.00278410e+00
1.00265596e+00
1.00253064e+00
1.00240827e+00
1.00228894e+00
1.00217274e+00
1.00205976e+00
1.00195005e+00
1.00184368e+00
1.00174068e+00
1.00164109e+00
1.00154495e+00
1.00145227e+00
1.00136306e+00
1.00127733e+00
1.00119506e+00
1.00111622e+00
1.00104078e+00
1.00096868e+00
1.00089985e+00
1.00083420e+00
1.00077164e+00
1.00071205e+00
1.00065529e+00
1.00060124e+00
1.00054974e+00
1.00050063e+00
1.00045375e+00
1.00040893e+00
1.00036600e+00
1.00032481e+00
1.00028519e+00
1.00024698e+00
1.00021004e+00
1.00017424e+00
1.00013944e+00
1.00010554e+00
1.00007241e+00
1.00003997e+00
1.00000812e+00
9.99976779e-01
9.99945866e-01
9.99915299e-01
9.99884994e-01
9.99854863e-01
9.99824808e-01
9.99794716e-01
9.99764464e-01
9.99733905e-01
9.99702875e-01
9.99671188e-01
9.99638631e-01
9.99604970e-01
9.99569949e-01
9.99533287e-01
9.99494686e-01
9.99453834e-01
9.99410403e-01
9.99364061e-01
9.99314475e-01
9.99261315e-01
9.99204262e-01
9.99143011e-01
9.99077283e-01
9.99006821e-01
9.98931403e-01
9.98850840e-01
9.98764984e-01
9.98673725e-01
9.98576999e-01
9.98474786e-01
9.98367110e-01
9.98254044e-01
9.98135708e-01
9.98012274e-01
9.97883963e-01
9.97751054e-01
9.97613881e-01
9.97472842e-01
9.97328397e-01
9.97181073e-01
9.97031469e-01
9.96880259e-01
9.96728175e-01
9.96576014e-01
9.96424663e-01
9.96275055e-01
9.96128105e-01
9.95984812e-01
9.95846313e-01
9.95713561e-01
9.95587355e-01
9.95468915e-01
9.95359505e-01
9.95259376e-01
9.95169083e-01
9.95090709e-01
9.95024845e-01
9.94969666e-01
9.94926650e-01
9.94898318e-01
9.94882044e-01
1.00563309e+00
1.00561666e+00
1.00558761e+00
1.00554587e+00
1.00549194e+00
1.00542554e+00
1.00534776e+00
1.00525994e+00
1.00516236e+00
1.00505586e+00
1.00494186e+00
1.00482138e+00
1.00469516e+00
1.00456423e+00
1.00442963e+00
1.00429219e+00
1.00415268e+00
1.00401189e+00
1.00387050e+00
1.00372910e+00
1.00358824e+00
1.00344839e+00
1.00330997e+00
1.00317331e+00
1.00303872e+00
1.00290646e+00
1.00277674e+00
1.00264973e+00
1.00252558e+00
1.00240442e+00
1.00228634e+00
1.00217143e+00
1.00205975e+00
1.00195136e+00
1.00184630e+00
1.00174461e+00
1.00164630e+00
1.00155140e+00
1.00145990e+00
1.00137181e+00
1.00128710e+00
1.00120577e+00
1.00112776e+00
1.00105304e+00
1.00098153e+00
1.00091316e+00
1.00084785e+00
1.00078549e+00
1.00072597e+00
1.00066916e+00
1.00061492e+00
1.00056312e+00
1.00051360e+00
1.00046621e+00
1.00042078e+00
1.00037717e+00
1.00033522e+00
1.00029478e+00
1.00025570e+00
1.00021785e+00
1.00018110e+00
1.00014533e+00
1.00011044e+00
1.00007633e+00
1.00004290e+00
1.00001008e+00
9.99977775e-01
9.99945920e-01
9.99914436e-01
9.99883242e-01
9.99852253e-01
9.99821371e-01
9.99790488e-01
9.99759479e-01
9.99728201e-01
9.99696490e-01
9.99664158e-01
9.99630996e-01
9.99596770e-01
9.99561224e-01
9.99524080e-01
9.99485044e-01
9.99443804e-01
9.99400039e-01
9.99353420e-01
9.99303620e-01
9.99250315e-01
9.99193192e-01
9.99131955e-01
9.99066328e-01
9.98996064e-01
9.98920946e-01
9.98840792e-01
9.98755458e-01
9.98664840e-01
9.98568875e-01
9.98467544e-01
9.98360873e-01
9.98248932e-01
9.98131838e-01
9.98009756e-01
9.97882902e-01
9.97751544e-01
9.97616006e-01
9.97476669e-01
9.97333982e-01
9.97188456e-01
9.97040668e-01
9.96891265e-01
9.96740975e-01
9.96590581e-01
9.96440912e-01
9.96292885e-01
9.96147482e-01
9.96005644e-01
9.95868333e-01
9.95736665e-01
9.95611696e-01
9.95494192e-01
9.95385098e-01
9.95285657e-01
9.95196608e-01
9.95118247e-01
9.95051501e-01
9.94997203e-01
9.94955244e-01
9.94925718e-01
9.94908799e-01
1.00560266e+00
1.00558620e+00
1.00555658e+00
1.00551586e+00
1.00546245e+00
1.00539606e+00
1.00531912e+00
1.00523210e+00
1.00513504e+00
1.00502937e+00
1.00491641e+00
1.00479679e+00
1.00467142e+00
1.00454148e+00
1.00440788e+00
1.00427138e+00
1.00413284e+00
1.00399304e+00
1.00385265e+00
1.00371226e+00
1.00357243e+00
1.00343364e+00
1.00329629e+00
1.00316076e+00
1.00302734e+00
1.00289629e+00
1.00276783e+00
1.00264213e+00
1.00251934e+00
1.00239958e+00
1.00228294e+00
1.00216951e+00
1.00205932e+00
1.00195244e+00
1.00184889e+00
1.00174868e+00
1.00165183e+00
1.00155834e+00
1.00146819e+00
1.00138136e+00
1.00129784e+00
1.00121756e+00
1.00114050e+00
1.00106659e+00
1.00099576e+00
1.00092793e+00
1.00086301e+00
1.00080089e+00
1.00074146e+00
1.00068460e+00
1.00063017e+00
1.00057805e+00
1.00052808e+00
1.00048013e+00
1.00043404e+00
1.00038967e+00
1.00034688e+00
1.00030553e+00
1.00026548e+00
1.00022662e+00
1.00018882e+00
1.00015198e+00
1.00011600e+00
1.00008079e+00
1.00004627e+00
1.00001236e+00
9.99978991e-01
9.99946089e-01
9.99913584e-01
9.99881400e-01
9.99849454e-01
9.99817652e-01
9.99785888e-01
9.99754037e-01
9.99721957e-01
9.99689486e-01
9.99656437e-01
9.99622601e-01
9.99587747e-01
9.99551619e-01
9.99513943e-01
9.99474426e-01
9.99432762e-01
9.99388633e-01
9.99341718e-01
9.99291694e-01
9.99238244e-01
9.99181063e-01
9.99119863e-01
9.99054376e-01
9.98984363e-01
9.98909613e-01
9.98829952e-01
9.98745239e-01
9.98655377e-01
9.98560304e-01
9.98460003e-01
9.98354498e-01
9.98243857e-01
9.98128193e-01
9.98007662e-01
9.97882472e-01
9.97752879e-01
9.97619195e-01
9.97481784e-01
9.97341076e-01
9.97197564e-01
9.97051809e-01
9.96904431e-01
9.96756127e-01
9.96607676e-01
9.96459890e-01
9.96313630e-01
9.96169865e-01
9.96029596e-01
9.95893725e-01
9.95763243e-01
9.95639345e-01
9.95522935e-01
9.95414651e-01
9.95315706e-01
9.95227305e-01
9.95149452e-01
9.95082637e-01
9.95028764e-01
9.94987514e-01
9.94957503e-01
9.94940547e-01
1.00556701e+00
1.00555137e+00
1.00552292e+00
1.00548176e+00
1.00542819e+00
1.00536325e+00
1.00528709e+00
1.00520018e+00
1.00510404e+00
1.00499963e+00
1.00488748e+00
1.00476868e+00
1.00464445e+00
1.00451561e+00
1.00438300e+00
1.00424756e+00
1.00411015e+00
1.00397146e+00
1.00383217e+00
1.00369293e+00
1.00355428e+00
1.00341669e+00
1.00328059e+00
1.00314633e+00
1.00301424e+00
1.00288457e+00
1.00275754e+00
1.00263332e+00
1.00251206e+00
1.00239388e+00
1.00227886e+00
1.00216707e+00
1.00205855e+00
1.00195335e+00
1.00185146e+00
1.00175290e+00
1.00165766e+00
1.00156572e+00
1.00147705e+00
1.00139162e+00
1.00130938e+00
1.00123028e+00
1.00115426e+00
1.00108124e+00
1.00101116e+00
1.00094392e+00
1.00087942e+00
1.00081757e+00
1.00075825e+00
1.00070135e+00
1.00064673e+00
1.00059426e+00
1.00054382e+00
1.00049527e+00
1.00044847e+00
1.00040330e+00
1.00035961e+00
1.00031728e+00
1.00027620e+00
1.00023624e+00
1.00019732e+00
1.00015932e+00
1.00012217e+00
1.00008578e+00
1.00005008e+00
1.00001500e+00
9.99980475e-01
9.99946442e-01
9.99912833e-01
9.99879577e-01
9.99846593e-01
9.99813792e-01
9.99781067e-01
9.99748298e-01
9.99715344e-01
9.99682041e-01
9.99648206e-01
9.99613630e-01
9.99578084e-01
9.99541315e-01
9.99503052e-01
9.99463005e-01
9.99420873e-01
9.99376344e-01
9.99329102e-01
9.99278833e-01
9.99225229e-01
9.99167992e-01
9.99106843e-01
9.99041523e-01
9.98971802e-01
9.98897477e-01
9.98818380e-01
9.98734378e-01
9.98645375e-01
9.98551315e-01
9.98452180e-01
9.98347992e-01
9.98238815e-01
9.98124756e-01
9.98005965e-01
9.97882635e-01
9.97755011e-01
9.97623387e-01
9.97488115e-01
9.97349601e-01
9.97208313e-01
9.97064793e-01
9.96919647e-01
9.96773536e-01
9.96627196e-01
9.96481457e-01
9.96337175e-01
9.96195214e-01
9.96056561e-01
9.95922281e-01
9.95793276e-01
9.95670438e-01
9.95554957e-01
9.95447880e-01
9.95349746e-01
9.95261404e-01
9.95184140e-01
9.95118416e-01
9.95064332e-01
9.95022611e-01
9.94993507e-01
9.94977242e-01
1.00552791e+00
1.00551232e+00
1.00548443e+00
1.00544354e+00
1.00539062e+00
1.00532640e+00
1.00525074e+00
1.00516475e+00
1.00506971e+00
1.00496614e+00
1.00485495e+00
1.00473736e+00
1.00461429e+00
1.00448654e+00
1.00435511e+00
1.00422092e+00
1.00408473e+00
1.00394726e+00
1.00380926e+00
1.00367132e+00
1.00353398e+00
1.00339775e+00
1.00326305e+00
1.00313024e+00
1.00299964e+00
1.00287151e+00
1.00274607e+00
1.00262349e+00
1.00250393e+00
1.00238748e+00
1.00227423e+00
1.00216423e+00
1.00205753e+00
1.00195414e+00
1.00185406e+00
1.00175727e+00
1.00166376e+00
1.00157349e+00
1.00148640e+00
1.00140246e+00
1.00132159e+00
1.00124374e+00
1.00116882e+00
1.00109676e+00
1.00102747e+00
1.00096086e+00
1.00089682e+00
1.00083526e+00
1.00077606e+00
1.00071911e+00
1.00066429e+00
1.00061147e+00
1.00056054e+00
1.00051137e+00
1.00046383e+00
1.00041781e+00
1.00037318e+00
1.00032983e+00
1.00028767e+00
1.00024657e+00
1.00020647e+00
1.00016726e+00
1.00012888e+00
1.00009126e+00
1.00005432e+00
1.00001801e+00
9.99982276e-01
9.99947052e-01
9.99912279e-01
9.99877889e-01
9.99843806e-01
9.99809943e-01
9.99776196e-01
9.99742445e-01
9.99708551e-01
9.99674353e-01
9.99639668e-01
9.99604289e-01
9.99567988e-01
9.99530517e-01
9.99491607e-01
9.99450975e-01
9.99408323e-01
9.99363348e-01
9.99315741e-01
9.99265197e-01
9.99211416e-01
9.99154111e-01
9.99093012e-01
9.99027873e-01
9.98958470e-01
9.98884611e-01
9.98806135e-01
9.98722916e-01
9.98634861e-01
9.98541917e-01
9.98444067e-01
9.98341330e-01
9.98233766e-01
9.98121474e-01
9.98004593e-01
9.97883307e-01
9.97757843e-01
9.97628478e-01
9.97495543e-01
9.97359426e-01
9.97220573e-01
9.97079491e-01
9.96936766e-01
9.96793049e-01
9.96649037e-01
9.96505508e-01
9.96363335e-01
9.96223398e-01
9.96086582e-01
9.95953907e-01
9.95826432e-01
9.95705030e-01
9.95590640e-01
9.95484441e-01
9.95387273e-01
9.95299683e-01
9.95222805e-01
9.95157587e-01
9.95103898e-01
9.95062353e-01
9.95033712e-01
9.95017454e-01
1.00548495e+00
1.00546928e+00
1.00544130e+00
1.00540133e+00
1.00534928e+00
1.00528530e+00
1.00521047e+00
1.00512578e+00
1.00503162e+00
1.00492897e+00
1.00481909e+00
1.00470279e+00
1.00458087e+00
1.00445441e+00
1.00432437e+00
1.00419153e+00
1.00405668e+00
1.00392063e+00
1.00378406e+00
1.00364757e+00
1.00351173e+00
1.00337702e+00
1.00324389e+00
1.00311269e+00
1.00298374e+00
1.00285731e+00
1.00273362e+00
1.00261284e+00
1.00249511e+00
1.00238054e+00
1.00226919e+00
1.00216113e+00
1.00205636e+00
1.00195489e+00
1.00185671e+00
1.00176180e+00
1.00167010e+00
1.00158157e+00
1.00149614e+00
1.00141374e+00
1.00133431e+00
1.00125774e+00
1.00118397e+00
1.00111290e+00
1.00104443e+00
1.00097847e+00
1.00091491e+00
1.00085365e+00
1.00079458e+00
1.00073758e+00
1.00068256e+00
1.00062939e+00
1.00057795e+00
1.00052814e+00
1.00047985e+00
1.00043296e+00
1.00038737e+00
1.00034299e+00
1.00029971e+00
1.00025746e+00
1.00021615e+00
1.00017571e+00
1.00013608e+00
1.00009719e+00
1.00005898e+00
1.00002142e+00
9.99984436e-01
9.99947987e-01
9.99912013e-01
9.99876451e-01
9.99841228e-01
9.99806259e-01
9.99771442e-01
9.99736660e-01
9.99701774e-01
9.99666624e-01
9.99631030e-01
9.99594787e-01
9.99557670e-01
9.99519434e-01
9.99479816e-01
9.99438537e-01
9.99395308e-01
9.99349832e-01
9.99301810e-01
9.99250947e-01
9.99196955e-01
9.99139557e-01
9.99078496e-01
9.99013535e-01
9.98944462e-01
9.98871095e-01
9.98793282e-01
9.98710902e-01
9.98623868e-01
9.98532129e-01
9.98435667e-01
9.98334501e-01
9.98228683e-01
9.98118304e-01
9.98003492e-01
9.97884416e-01
9.97761289e-01
9.97634369e-01
9.97503962e-01
9.97370434e-01
9.97234210e-01
9.97095773e-01
9.96955667e-01
9.96814521e-01
9.96673032e-01
9.96531930e-01
9.96392024e-01
9.96254235e-01
9.96119480e-01
9.95988629e-01
9.95862712e-01
9.95742842e-01
9.95629870e-01
9.95524621e-01
9.95428286e-01
9.95341796e-01
9.95265555e-01
9.95200438e-01
9.95147407e-01
9.95106570e-01
9.95077784e-01
9.95061466e-01
1.00543712e+00
1.00542181e+00
1.00539431e+00
1.00535490e+00
1.00530342e+00
1.00524031e+00
1.00516658e+00
1.00508280e+00
1.00498970e+00
1.00488843e+00
1.00477987e+00
1.00466482e+00
1.00454433e+00
1.00441940e+00
1.00429082e+00
1.00415946e+00
1.00402619e+00
1.00389173e+00
1.00375675e+00
1.00362189e+00
1.00348771e+00
1.00335471e+00
1.00322331e+00
1.00309388e+00
1.00296675e+00
1.00284218e+00
1.00272039e+00
1.00260155e+00
1.00248579e+00
1.00237322e+00
1.00226389e+00
1.00215785e+00
1.00205511e+00
1.00195565e+00
1.00185946e+00
1.00176647e+00
1.00167664e+00
1.00158990e+00
1.00150617e+00
1.00142535e+00
1.00134737e+00
1.00127212e+00
1.00119951e+00
1.00112943e+00
1.00106179e+00
1.00099648e+00
1.00093340e+00
1.00087244e+00
1.00081349e+00
1.00075646e+00
1.00070122e+00
1.00064769e+00
1.00059575e+00
1.00054530e+00
1.00049625e+00
1.00044850e+00
1.00040196e+00
1.00035654e+00
1.00031215e+00
1.00026874e+00
1.00022623e+00
1.00018456e+00
1.00014367e+00
1.00010352e+00
1.00006405e+00
1.00002522e+00
9.99986989e-01
9.99949306e-01
9.99912120e-01
9.99875371e-01
9.99838987e-01
9.99802887e-01
9.99766970e-01
9.99731119e-01
9.99695199e-01
9.99659051e-01
9.99622496e-01
9.99585333e-01
9.99547340e-01
9.99508276e-01
9.99467885e-01
9.99425894e-01
9.99382022e-01
9.99335983e-01
9.99287489e-01
9.99236254e-01
9.99182005e-01
9.99124477e-01
9.99063426e-01
9.98998628e-01
9.98929883e-01
9.98857020e-01
9.98779894e-01
9.98698394e-01
9.98612438e-01
9.98521976e-01
9.98426990e-01
9.98327495e-01
9.98223539e-01
9.98115203e-01
9.98002602e-01
9.97885891e-01
9.97765264e-01
9.97640958e-01
9.97513261e-01
9.97382508e-01
9.97249097e-01
9.97113491e-01
9.96976208e-01
9.96837831e-01
9.96699030e-01
9.96560546e-01
9.96423145e-01
9.96287666e-01
9.96155063e-01
9.96026274e-01
9.95902192e-01
9.95783854e-01
9.95672331e-01
9.95568461e-01
9.95473129e-01
9.95387433e-01
9.95312077e-01
9.95247628e-01
9.95195006e-01
9.95154575e-01
9.95126170e-01
9.95110164e-01
1.00538479e+00
1.00536991e+00
1.00534312e+00
1.00530416e+00
1.00525336e+00
1.00519141e+00
1.00511870e+00
1.00503593e+00
1.00494423e+00
1.00484440e+00
1.00473719e+00
1.00462366e+00
1.00450483e+00
1.00438149e+00
1.00425455e+00
1.00412492e+00
1.00399339e+00
1.00386067e+00
1.00372748e+00
1.00359445e+00
1.00346212e+00
1.00333099e+00
1.00320150e+00
1.00307402e+00
1.00294887e+00
1.00282631e+00
1.00270655e+00
1.00258978e+00
1.00247612e+00
1.00236565e+00
1.00225844e+00
1.00215451e+00
1.00205386e+00
1.00195647e+00
1.00186230e+00
1.00177128e+00
1.00168335e+00
1.00159841e+00
1.00151637e+00
1.00143714e+00
1.00136060e+00
1.00128666e+00
1.00121520e+00
1.00114611e+00
1.00107928e+00
1.00101462e+00
1.00095200e+00
1.00089133e+00
1.00083250e+00
1.00077541e+00
1.00071997e+00
1.00066608e+00
1.00061364e+00
1.00056257e+00
1.00051277e+00
1.00046417e+00
1.00041669e+00
1.00037025e+00
1.00032479e+00
1.00028025e+00
1.00023656e+00
1.00019369e+00
1.00015158e+00
1.00011019e+00
1.00006948e+00
1.00002941e+00
9.99989954e-01
9.99951056e-01
9.99912671e-01
9.99874741e-01
9.99837197e-01
9.99799959e-01
9.99762929e-01
9.99725990e-01
9.99689007e-01
9.99651824e-01
9.99614265e-01
9.99576131e-01
9.99537205e-01
9.99497252e-01
9.99456022e-01
9.99413251e-01
9.99368669e-01
9.99321998e-01
9.99272965e-01
9.99221298e-01
9.99166736e-01
9.99109031e-01
9.99047952e-01
9.98983289e-01
9.98914856e-01
9.98842494e-01
9.98766068e-01
9.98685474e-01
9.98600636e-01
9.98511507e-01
9.98418068e-01
9.98320331e-01
9.98218337e-01
9.98112156e-01
9.98001891e-01
9.97887682e-01
9.97769702e-01
9.97648166e-01
9.97523340e-01
9.97395537e-01
9.97265121e-01
9.97132522e-01
9.96998241e-01
9.96862836e-01
9.96726922e-01
9.96591215e-01
9.96456501e-01
9.96323574e-01
9.96193299e-01
9.96066672e-01
9.95944650e-01
9.95828107e-01
9.95718089e-01
9.95615686e-01
9.95521673e-01
9.95436870e-01
9.95362364e-01
9.95298857e-01
9.95246740e-01
9.95206621e-01
9.95178815e-01
9.95163203e-01
1.00532825e+00
1.00531366e+00
1.00528740e+00
1.00524920e+00
1.00519936e+00
1.00513837e+00
1.00506676e+00
1.00498542e+00
1.00489518e+00
1.00479679e+00
1.00469121e+00
1.00457946e+00
1.00446235e+00
1.00434079e+00
1.00421574e+00
1.00408802e+00
1.00395840e+00
1.00382764e+00
1.00369644e+00
1.00356542e+00
1.00343512e+00
1.00330605e+00
1.00317864e+00
1.00305327e+00
1.00293025e+00
1.00280985e+00
1.00269227e+00
1.00257769e+00
1.00246622e+00
1.00235795e+00
1.00225292e+00
1.00215116e+00
1.00205265e+00
1.00195736e+00
1.00186523e+00
1.00177619e+00
1.00169014e+00
1.00160699e+00
1.00152664e+00
1.00144896e+00
1.00137384e+00
1.00130117e+00
1.00123083e+00
1.00116269e+00
1.00109665e+00
1.00103259e+00
1.00097042e+00
1.00091002e+00
1.00085129e+00
1.00079415e+00
1.00073850e+00
1.00068425e+00
1.00063133e+00
1.00057965e+00
1.00052913e+00
1.00047971e+00
1.00043133e+00
1.00038392e+00
1.00033742e+00
1.00029180e+00
1.00024699e+00
1.00020297e+00
1.00015969e+00
1.00011712e+00
1.00007523e+00
1.00003398e+00
9.99993338e-01
9.99953267e-01
9.99913719e-01
9.99874639e-01
9.99835958e-01
9.99797596e-01
9.99759456e-01
9.99721423e-01
9.99683363e-01
9.99645120e-01
9.99606523e-01
9.99567375e-01
9.99527466e-01
9.99486566e-01
9.99444433e-01
9.99400814e-01
9.99355450e-01
9.99308078e-01
9.99258436e-01
9.99206269e-01
9.99151332e-01
9.99093393e-01
9.99032238e-01
9.98967672e-01
9.98899525e-01
9.98827648e-01
9.98751919e-01
9.98672244e-01
9.98588550e-01
9.98500793e-01
9.98408956e-01
9.98313045e-01
9.98213094e-01
9.98109163e-01
9.98001342e-01
9.97889752e-01
9.97774549e-01
9.97655926e-01
9.97534120e-01
9.97409419e-01
9.97282165e-01
9.97152752e-01
9.97021643e-01
9.96889379e-01
9.96756557e-01
9.96623833e-01
9.96491959e-01
9.96361763e-01
9.96234075e-01
9.96109788e-01
9.95989912e-01
9.95875414e-01
9.95767189e-01
9.95666265e-01
9.95573656e-01
9.95490145e-01
9.95416587e-01
9.95353865e-01
9.95302519e-01
9.95263032e-01
9.95235670e-01
9.95220306e-01
1.00526732e+00
1.00525310e+00
1.00522740e+00
1.00519009e+00
1.00514125e+00
1.00508131e+00
1.00501106e+00
1.00493124e+00
1.00484251e+00
1.00474580e+00
1.00464210e+00
1.00453220e+00
1.00441700e+00
1.00429749e+00
1.00417451e+00
1.00404886e+00
1.00392137e+00
1.00379278e+00
1.00366377e+00
1.00353494e+00
1.00340687e+00
1.00328005e+00
1.00315490e+00
1.00303180e+00
1.00291107e+00
1.00279295e+00
1.00267767e+00
1.00256538e+00
1.00245620e+00
1.00235019e+00
1.00224741e+00
1.00214786e+00
1.00205151e+00
1.00195833e+00
1.00186823e+00
1.00178114e+00
1.00169695e+00
1.00161556e+00
1.00153684e+00
1.00146066e+00
1.00138691e+00
1.00131545e+00
1.00124617e+00
1.00117893e+00
1.00111363e+00
1.00105014e+00
1.00098837e+00
1.00092822e+00
1.00086958e+00
1.00081237e+00
1.00075651e+00
1.00070192e+00
1.00064853e+00
1.00059626e+00
1.00054506e+00
1.00049487e+00
1.00044564e+00
1.00039732e+00
1.00034985e+00
1.00030322e+00
1.00025737e+00
1.00021227e+00
1.00016790e+00
1.00012423e+00
1.00008123e+00
1.00003888e+00
9.99997129e-01
9.99955953e-01
9.99915303e-01
9.99875123e-01
9.99835348e-01
9.99795896e-01
9.99756669e-01
9.99717553e-01
9.99678415e-01
9.99639102e-01
9.99599442e-01
9.99559247e-01
9.99518311e-01
9.99476411e-01
9.99433317e-01
9.99388785e-01
9.99342570e-01
9.99294423e-01
9.99244100e-01
9.99191363e-01
9.99135984e-01
9.99077749e-01
9.99016463e-01
9.98951948e-01
9.98884049e-01
9.98812633e-01
9.98737588e-01
9.98658829e-01
9.98576291e-01
9.98489933e-01
9.98399735e-01
9.98305701e-01
9.98207857e-01
9.98106253e-01
9.98000964e-01
9.97892094e-01
9.97779778e-01
9.97664188e-01
9.97545536e-01
9.97424079e-01
9.97300131e-01
9.97174064e-01
9.97046303e-01
9.96917346e-01
9.96787778e-01
9.96658238e-01
9.96529415e-01
9.96402108e-01
9.96277182e-01
9.96155492e-01
9.96037956e-01
9.95925607e-01
9.95819403e-01
9.95720223e-01
9.95629095e-01
9.95546993e-01
9.95474631e-01
9.95412799e-01
9.95362289e-01
9.95323549e-01
9.95296668e-01
9.95281648e-01
1.00520200e+00
1.00518829e+00
1.00516333e+00
1.00512686e+00
1.00507905e+00
1.00502044e+00
1.00495166e+00
1.00487338e+00
1.00478640e+00
1.00469162e+00
1.00458987e+00
1.00448200e+00
1.00436899e+00
1.00425170e+00
1.00413095e+00
1.00400761e+00
1.00388247e+00
1.00375624e+00
1.00362960e+00
1.00350318e+00
1.00337752e+00
1.00325312e+00
1.00313040e+00
1.00300973e+00
1.00289142e+00
1.00277573e+00
1.00266285e+00
1.00255294e+00
1.00244612e+00
1.00234244e+00
1.00224194e+00
1.00214461e+00
1.00205043e+00
1.00195934e+00
1.00187125e+00
1.00178607e+00
1.00170368e+00
1.00162398e+00
1.00154682e+00
1.00147208e+00
1.00139962e+00
1.00132931e+00
1.00126101e+00
1.00119461e+00
1.00112998e+00
1.00106701e+00
1.00100560e+00
1.00094566e+00
1.00088708e+00
1.00082979e+00
1.00077372e+00
1.00071880e+00
1.00066496e+00
1.00061215e+00
1.00056032e+00
1.00050941e+00
1.00045940e+00
1.00041023e+00
1.00036188e+00
1.00031432e+00
1.00026752e+00
1.00022146e+00
1.00017610e+00
1.00013143e+00
1.00008743e+00
1.00004406e+00
1.00000130e+00
9.99959108e-01
9.99917438e-01
9.99876233e-01
9.99835427e-01
9.99794936e-01
9.99754663e-01
9.99714492e-01
9.99674291e-01
9.99633908e-01
9.99593177e-01
9.99551912e-01
9.99509914e-01
9.99466971e-01
9.99422862e-01
9.99377357e-01
9.99330225e-01
9.99281235e-01
9.99230160e-01
9.99176781e-01
9.99120891e-01
9.99062296e-01
9.99000820e-01
9.98936304e-01
9.98868610e-01
9.98797620e-01
9.98723236e-01
9.98645381e-01
9.98563997e-01
9.98479047e-01
9.98390511e-01
9.98298388e-01
9.98202698e-01
9.98103478e-01
9.98000790e-01
9.97894721e-01
9.97785384e-01
9.97672927e-01
9.97557541e-01
9.97439453e-01
9.97318945e-01
9.97196358e-01
9.97072098e-01
9.96946624e-01
9.96820474e-01
9.96694274e-01
9.96568705e-01
9.96444499e-01
9.96322490e-01
9.96203578e-01
9.96088646e-01
9.95978629e-01
9.95874555e-01
9.95777372e-01
9.95687970e-01
9.95607319e-01
9.95536297e-01
9.95475629e-01
9.95426009e-01
9.95387991e-01
9.95361776e-01
9.95347234e-01
1.00513259e+00
1.00511941e+00
1.00509523e+00
1.00505969e+00
1.00501305e+00
1.00495585e+00
1.00488862e+00
1.00481207e+00
1.00472704e+00
1.00463429e+00
1.00453467e+00
1.00442909e+00
1.00431843e+00
1.00420352e+00
1.00408524e+00
1.00396443e+00
1.00384182e+00
1.00371815e+00
1.00359409e+00
1.00347026e+00
1.00334720e+00
1.00322538e+00
1.00310525e+00
1.00298715e+00
1.00287140e+00
1.00275824e+00
1.00264786e+00
1.00254042e+00
1.00243601e+00
1.00233470e+00
1.00223650e+00
1.00214140e+00
1.00204937e+00
1.00196033e+00
1.00187420e+00
1.00179087e+00
1.00171022e+00
1.00163213e+00
1.00155645e+00
1.00148305e+00
1.00141179e+00
1.00134253e+00
1.00127514e+00
1.00120949e+00
1.00114547e+00
1.00108296e+00
1.00102186e+00
1.00096208e+00
1.00090354e+00
1.00084616e+00
1.00078988e+00
1.00073464e+00
1.00068038e+00
1.00062707e+00
1.00057465e+00
1.00052310e+00
1.00047238e+00
1.00042246e+00
1.00037333e+00
1.00032495e+00
1.00027731e+00
1.00023039e+00
1.00018417e+00
1.00013862e+00
1.00009373e+00