# vtk DataFile Version 2.0
LBM Flow Field - Timestep 1670
ASCII
DATASET STRUCTURED_POINTS
DIMENSIONS 128 128 1
ORIGIN 0.0 0.0 0.0
SPACING 1.0 1.0 1.0
POINT_DATA 16384
SCALARS density double 1
LOOKUP_TABLE default
1.00091627e+00
1.00092764e+00
1.00094264e+00
1.00095824e+00
1.00097841e+00
1.00100247e+00
1.00103047e+00
1.00106234e+00
1.00109784e+00
1.00113686e+00
1.00117930e+00
1.00122486e+00
1.00127319e+00
1.00132404e+00
1.00137705e+00
1.00143184e+00
1.00148801e+00
1.00154512e+00
1.00160274e+00
1.00166039e+00
1.00171758e+00
1.00177383e+00
1.00182863e+00
1.00188149e+00
1.00193192e+00
1.00197944e+00
1.00202359e+00
1.00206393e+00
1.00210004e+00
1.00213154e+00
1.00215808e+00
1.00217934e+00
1.00219505e+00
1.00220496e+00
1.00220888e+00
1.00220665e+00
1.00219816e+00
1.00218333e+00
1.00216214e+00
1.00213459e+00
1.00210075e+00
1.00206072e+00
1.00201464e+00
1.00196268e+00
1.00190508e+00
1.00184209e+00
1.00177399e+00
1.00170111e+00
1.00162379e+00
1.00154237e+00
1.00145722e+00
1.00136872e+00
1.00127721e+00
1.00118307e+00
1.00108662e+00
1.00098820e+00
1.00088811e+00
1.00078663e+00
1.00068404e+00
1.00058057e+00
1.00047648e+00
1.00037198e+00
1.00026732e+00
1.00016271e+00
1.00005842e+00
9.99954687e-01
9.99851796e-01
9.99750046e-01
9.99649759e-01
9.99551282e-01
9.99454986e-01
9.99361260e-01
9.99270509e-01
9.99183147e-01
9.99099590e-01
9.99020252e-01
9.98945531e-01
9.98875807e-01
9.98811432e-01
9.98752721e-01
9.98699946e-01
9.98653333e-01
9.98613055e-01
9.98579228e-01
9.98551908e-01
9.98531093e-01
9.98516720e-01
9.98508667e-01
9.98506755e-01
9.98510752e-01
9.98520374e-01
9.98535296e-01
9.98555148e-01
9.98579531e-01
9.98608013e-01
9.98640144e-01
9.98675457e-01
9.98713477e-01
9.98753724e-01
9.98795725e-01
9.98839014e-01
9.98883140e-01
9.98927673e-01
9.98972208e-01
9.99016365e-01
9.99059799e-01
9.99102199e-01
9.99143289e-01
9.99182831e-01
9.99220626e-01
9.99256513e-01
9.99290363e-01
9.99322088e-01
9.99351635e-01
9.99378980e-01
9.99404112e-01
9.99427064e-01
9.99447890e-01
9.99466645e-01
9.99483385e-01
9.99498238e-01
9.99511289e-01
9.99522874e-01
9.99533047e-01
9.99541466e-01
9.99548161e-01
9.99558657e-01
9.99567923e-01
1.00092814e+00
1.00093753e+00
1.00095168e+00
1.00096718e+00
1.00098767e+00
1.00101171e+00
1.00103971e+00
1.00107150e+00
1.00110702e+00
1.00114599e+00
1.00118828e+00
1.00123365e+00
1.00128181e+00
1.00133242e+00
1.00138516e+00
1.00143965e+00
1.00149549e+00
1.00155225e+00
1.00160948e+00
1.00166672e+00
1.00172348e+00
1.00177928e+00
1.00183363e+00
1.00188602e+00
1.00193598e+00
1.00198303e+00
1.00202672e+00
1.00206660e+00
1.00210228e+00
1.00213336e+00
1.00215951e+00
1.00218041e+00
1.00219578e+00
1.00220540e+00
1.00220907e+00
1.00220663e+00
1.00219797e+00
1.00218301e+00
1.00216174e+00
1.00213416e+00
1.00210033e+00
1.00206034e+00
1.00201435e+00
1.00196251e+00
1.00190506e+00
1.00184224e+00
1.00177433e+00
1.00170165e+00
1.00162452e+00
1.00154329e+00
1.00145833e+00
1.00136998e+00
1.00127862e+00
1.00118458e+00
1.00108822e+00
1.00098984e+00
1.00088977e+00
1.00078829e+00
1.00068566e+00
1.00058214e+00
1.00047799e+00
1.00037342e+00
1.00026869e+00
1.00016403e+00
1.00005968e+00
9.99955919e-01
9.99853014e-01
9.99751270e-01
9.99651011e-01
9.99552583e-01
9.99456352e-01
9.99362706e-01
9.99272042e-01
9.99184769e-01
9.99101297e-01
9.99022032e-01
9.98947366e-01
9.98877670e-01
9.98813291e-01
9.98754536e-01
9.98701676e-01
9.98654930e-01
9.98614468e-01
9.98580406e-01
9.98552800e-01
9.98531648e-01
9.98516890e-01
9.98508406e-01
9.98506023e-01
9.98509513e-01
9.98518600e-01
9.98532963e-01
9.98552241e-01
9.98576039e-01
9.98603937e-01
9.98635488e-01
9.98670235e-01
9.98707706e-01
9.98747432e-01
9.98788941e-01
9.98831774e-01
9.98875484e-01
9.98919645e-01
9.98963851e-01
9.99007728e-01
9.99050929e-01
9.99093144e-01
9.99134095e-01
9.99173545e-01
9.99211290e-01
9.99247167e-01
9.99281046e-01
9.99312836e-01
9.99342477e-01
9.99369937e-01
9.99395213e-01
9.99418336e-01
9.99439340e-01
9.99458287e-01
9.99475244e-01
9.99490387e-01
9.99503690e-01
9.99515459e-01
9.99525649e-01
9.99534806e-01
9.99541706e-01
9.99550832e-01
9.99557431e-01
1.00094544e+00
1.00095390e+00
1.00096564e+00
1.00098184e+00
1.00100201e+00
1.00102597e+00
1.00105400e+00
1.00108566e+00
1.00112103e+00
1.00115992e+00
1.00120204e+00
1.00124717e+00
1.00129508e+00
1.00134542e+00
1.00139783e+00
1.00145196e+00
1.00150741e+00
1.00156375e+00
1.00162053e+00
1.00167729e+00
1.00173356e+00
1.00178884e+00
1.00184265e+00
1.00189450e+00
1.00194390e+00
1.00199040e+00
1.00203353e+00
1.00207288e+00
1.00210802e+00
1.00213860e+00
1.00216427e+00
1.00218471e+00
1.00219967e+00
1.00220891e+00
1.00221223e+00
1.00220949e+00
1.00220057e+00
1.00218540e+00
1.00216397e+00
1.00213627e+00
1.00210236e+00
1.00206234e+00
1.00201634e+00
1.00196454e+00
1.00190715e+00
1.00184441e+00
1.00177660e+00
1.00170403e+00
1.00162700e+00
1.00154588e+00
1.00146100e+00
1.00137273e+00
1.00128142e+00
1.00118741e+00
1.00109104e+00
1.00099265e+00
1.00089252e+00
1.00079096e+00
1.00068824e+00
1.00058461e+00
1.00048033e+00
1.00037564e+00
1.00027078e+00
1.00016600e+00
1.00006154e+00
9.99957667e-01
9.99854672e-01
9.99752854e-01
9.99652534e-01
9.99554057e-01
9.99457786e-01
9.99364104e-01
9.99273404e-01
9.99186089e-01
9.99102561e-01
9.99023220e-01
9.98948450e-01
9.98878619e-01
9.98814064e-01
9.98755090e-01
9.98701961e-01
9.98654896e-01
9.98614063e-01
9.98579574e-01
9.98551489e-01
9.98529807e-01
9.98514470e-01
9.98505365e-01
9.98502321e-01
9.98505119e-01
9.98513488e-01
9.98527115e-01
9.98545647e-01
9.98568698e-01
9.98595854e-01
9.98626678e-01
9.98660719e-01
9.98697514e-01
9.98736598e-01
9.98777507e-01
9.98819786e-01
9.98862993e-01
9.98906703e-01
9.98950516e-01
9.98994056e-01
9.99036978e-01
9.99078970e-01
9.99119755e-01
9.99159091e-01
9.99196773e-01
9.99232632e-01
9.99266539e-01
9.99298395e-01
9.99328132e-01
9.99355717e-01
9.99381150e-01
9.99404443e-01
9.99425625e-01
9.99444775e-01
9.99461952e-01
9.99477284e-01
9.99490892e-01
9.99502813e-01
9.99512876e-01
9.99522220e-01
9.99530428e-01
9.99536193e-01
9.99541524e-01
1.00096630e+00
1.00097449e+00
1.00098629e+00
1.00100236e+00
1.00102191e+00
1.00104570e+00
1.00107358e+00
1.00110515e+00
1.00114032e+00
1.00117895e+00
1.00122081e+00
1.00126566e+00
1.00131321e+00
1.00136316e+00
1.00141515e+00
1.00146882e+00
1.00152377e+00
1.00157957e+00
1.00163578e+00
1.00169195e+00
1.00174759e+00
1.00180223e+00
1.00185538e+00
1.00190656e+00
1.00195529e+00
1.00200112e+00
1.00204359e+00
1.00208229e+00
1.00211681e+00
1.00214678e+00
1.00217186e+00
1.00219176e+00
1.00220621e+00
1.00221497e+00
1.00221787e+00
1.00221474e+00
1.00220548e+00
1.00219002e+00
1.00216833e+00
1.00214042e+00
1.00210634e+00
1.00206620e+00
1.00202011e+00
1.00196825e+00
1.00191083e+00
1.00184808e+00
1.00178028e+00
1.00170772e+00
1.00163072e+00
1.00154962e+00
1.00146476e+00
1.00137649e+00
1.00128517e+00
1.00119113e+00
1.00109472e+00
1.00099625e+00
1.00089604e+00
1.00079438e+00
1.00069153e+00
1.00058777e+00
1.00048335e+00
1.00037852e+00
1.00027351e+00
1.00016858e+00
1.00006399e+00
9.99959988e-01
9.99856873e-01
9.99754942e-01
9.99654516e-01
9.99555937e-01
9.99459565e-01
9.99365775e-01
9.99274957e-01
9.99187506e-01
9.99103820e-01
9.99024288e-01
9.98949292e-01
9.98879191e-01
9.98814317e-01
9.98754972e-01
9.98701415e-01
9.98653863e-01
9.98612482e-01
9.98577387e-01
9.98548636e-01
9.98526234e-01
9.98510126e-01
9.98500203e-01
9.98496302e-01
9.98498210e-01
9.98505665e-01
9.98518361e-01
9.98535955e-01
9.98558069e-01
9.98584298e-01
9.98614214e-01
9.98647374e-01
9.98683324e-01
9.98721605e-01
9.98761761e-01
9.98803341e-01
9.98845909e-01
9.98889045e-01
9.98932348e-01
9.98975447e-01
9.99017997e-01
9.99059686e-01
9.99100234e-01
9.99139396e-01
9.99176967e-01
9.99212772e-01
9.99246676e-01
9.99278574e-01
9.99308399e-01
9.99336109e-01
9.99361691e-01
9.99385153e-01
9.99406532e-01
9.99425897e-01
9.99443299e-01
9.99458793e-01
9.99472543e-01
9.99484734e-01
9.99495115e-01
9.99503746e-01
9.99511642e-01
9.99517728e-01
9.99523206e-01
1.00099355e+00
1.00100137e+00
1.00101267e+00
1.00102811e+00
1.00104761e+00
1.00107123e+00
1.00109873e+00
1.00113008e+00
1.00116500e+00
1.00120326e+00
1.00124477e+00
1.00128922e+00
1.00133631e+00
1.00138574e+00
1.00143719e+00
1.00149026e+00
1.00154457e+00
1.00159969e+00
1.00165519e+00
1.00171061e+00
1.00176548e+00
1.00181932e+00
1.00187166e+00
1.00192202e+00
1.00196993e+00
1.00201494e+00
1.00205661e+00
1.00209451e+00
1.00212826e+00
1.00215749e+00
1.00218187e+00
1.00220110e+00
1.00221491e+00
1.00222309e+00
1.00222545e+00
1.00222183e+00
1.00221213e+00
1.00219628e+00
1.00217425e+00
1.00214605e+00
1.00211174e+00
1.00207139e+00
1.00202514e+00
1.00197316e+00
1.00191564e+00
1.00185283e+00
1.00178498e+00
1.00171239e+00
1.00163537e+00
1.00155425e+00
1.00146937e+00
1.00138108e+00
1.00128971e+00
1.00119563e+00
1.00109914e+00
1.00100059e+00
1.00090027e+00
1.00079849e+00
1.00069551e+00
1.00059161e+00
1.00048704e+00
1.00038205e+00
1.00027689e+00
1.00017181e+00
1.00006707e+00
9.99962930e-01
9.99859681e-01
9.99757620e-01
9.99657066e-01
9.99558357e-01
9.99461849e-01
9.99367911e-01
9.99276926e-01
9.99189281e-01
9.99105366e-01
9.99025566e-01
9.98950252e-01
9.98879778e-01
9.98814472e-01
9.98754628e-01
9.98700504e-01
9.98652314e-01
9.98610224e-01
9.98574349e-01
9.98544750e-01
9.98521435e-01
9.98504355e-01
9.98493408e-01
9.98488437e-01
9.98489238e-01
9.98495558e-01
9.98507102e-01
9.98523535e-01
9.98544492e-01
9.98569577e-01
9.98598372e-01
9.98630444e-01
9.98665349e-01
9.98702636e-01
9.98741856e-01
9.98782567e-01
9.98824336e-01
9.98866749e-01
9.98909409e-01
9.98951945e-01
9.98994015e-01
9.99035305e-01
9.99075534e-01
9.99114455e-01
9.99151857e-01
9.99187564e-01
9.99221431e-01
9.99253349e-01
9.99283244e-01
9.99311069e-01
9.99336795e-01
9.99360435e-01
9.99382016e-01
9.99401569e-01
9.99419177e-01
9.99434927e-01
9.99448815e-01
9.99460982e-01
9.99471670e-01
9.99480378e-01
9.99487564e-01
9.99493702e-01
9.99498870e-01
1.00102610e+00
1.00103357e+00
1.00104467e+00
1.00105971e+00
1.00107896e+00
1.00110230e+00
1.00112948e+00
1.00116043e+00
1.00119495e+00
1.00123284e+00
1.00127386e+00
1.00131776e+00
1.00136427e+00
1.00141308e+00
1.00146384e+00
1.00151617e+00
1.00156970e+00
1.00162399e+00
1.00167862e+00
1.00173313e+00
1.00178707e+00
1.00183996e+00
1.00189132e+00
1.00194070e+00
1.00198763e+00
1.00203166e+00
1.00207236e+00
1.00210932e+00
1.00214215e+00
1.00217050e+00
1.00219404e+00
1.00221246e+00
1.00222553e+00
1.00223301e+00
1.00223472e+00
1.00223051e+00
1.00222027e+00
1.00220394e+00
1.00218149e+00
1.00215292e+00
1.00211828e+00
1.00207766e+00
1.00203119e+00
1.00197903e+00
1.00192137e+00
1.00185844e+00
1.00179051e+00
1.00171786e+00
1.00164078e+00
1.00155962e+00
1.00147470e+00
1.00138635e+00
1.00129494e+00
1.00120078e+00
1.00110422e+00
1.00100558e+00
1.00090516e+00
1.00080326e+00
1.00070015e+00
1.00059611e+00
1.00049140e+00
1.00038626e+00
1.00028095e+00
1.00017573e+00
1.00007084e+00
9.99966561e-01
9.99863173e-01
9.99760975e-01
9.99660281e-01
9.99561424e-01
9.99464753e-01
9.99370633e-01
9.99279437e-01
9.99191546e-01
9.99107341e-01
9.99027198e-01
9.98951482e-01
9.98880539e-01
9.98814690e-01
9.98754227e-01
9.98699403e-01
9.98650430e-01
9.98607475e-01
9.98570652e-01
9.98540028e-01
9.98515613e-01
9.98497366e-01
9.98485191e-01
9.98478941e-01
9.98478421e-01
9.98483389e-01
9.98493560e-01
9.98508614e-01
9.98528193e-01
9.98551917e-01
9.98579378e-01
9.98610155e-01
9.98643813e-01
9.98679912e-01
9.98718012e-01
9.98757678e-01
9.98798485e-01
9.98840022e-01
9.98881899e-01
9.98923746e-01
9.98965220e-01
9.99006009e-01
9.99045831e-01
9.99084435e-01
9.99121604e-01
9.99157157e-01
9.99190946e-01
9.99222853e-01
9.99252792e-01
9.99280709e-01
9.99306575e-01
9.99330384e-01
9.99352153e-01
9.99371908e-01
9.99389704e-01
9.99405645e-01
9.99419762e-01
9.99431983e-01
9.99442563e-01
9.99451476e-01
9.99458629e-01
9.99464485e-01
9.99469165e-01
1.00106399e+00
1.00107132e+00
1.00108227e+00
1.00109698e+00
1.00111582e+00
1.00113879e+00
1.00116562e+00
1.00119612e+00
1.00123015e+00
1.00126752e+00
1.00130793e+00
1.00135118e+00
1.00139700e+00
1.00144504e+00
1.00149496e+00
1.00154642e+00
1.00159901e+00
1.00165231e+00
1.00170591e+00
1.00175936e+00
1.00181219e+00
1.00186396e+00
1.00191418e+00
1.00196241e+00
1.00200819e+00
1.00205108e+00
1.00209066e+00
1.00212652e+00
1.00215829e+00
1.00218561e+00
1.00220816e+00
1.00222566e+00
1.00223785e+00
1.00224451e+00
1.00224546e+00
1.00224056e+00
1.00222969e+00
1.00221279e+00
1.00218983e+00
1.00216082e+00
1.00212580e+00
1.00208485e+00
1.00203810e+00
1.00198571e+00
1.00192786e+00
1.00186479e+00
1.00179673e+00
1.00172399e+00
1.00164684e+00
1.00156561e+00
1.00148063e+00
1.00139224e+00
1.00130076e+00
1.00120654e+00
1.00110991e+00
1.00101118e+00
1.00091066e+00
1.00080865e+00
1.00070543e+00
1.00060126e+00
1.00049642e+00
1.00039115e+00
1.00028570e+00
1.00018034e+00
1.00007532e+00
9.99970909e-01
9.99867386e-01
9.99765049e-01
9.99664207e-01
9.99565188e-01
9.99468336e-01
9.99374005e-01
9.99282562e-01
9.99194378e-01
9.99109826e-01
9.99029274e-01
9.98953077e-01
9.98881575e-01
9.98815082e-01
9.98753886e-01
9.98698235e-01
9.98648342e-01
9.98604371e-01
9.98566441e-01
9.98534620e-01
9.98508926e-01
9.98489323e-01
9.98475724e-01
9.98467993e-01
9.98465944e-01
9.98469349e-01
9.98477935e-01
9.98491393e-01
9.98509383e-01
9.98531533e-01
9.98557451e-01
9.98586727e-01
9.98618940e-01
9.98653660e-01
9.98690457e-01
9.98728904e-01
9.98768585e-01
9.98809094e-01
9.98850045e-01
9.98891071e-01
9.98931833e-01
9.98972016e-01
9.99011335e-01
9.99049539e-01
9.99086406e-01
9.99121746e-01
9.99155405e-01
9.99187260e-01
9.99217213e-01
9.99245199e-01
9.99271183e-01
9.99295143e-01
9.99317082e-01
9.99337041e-01
9.99355043e-01
9.99371113e-01
9.99385377e-01
9.99397827e-01
9.99408396e-01
9.99417234e-01
9.99424408e-01
9.99430139e-01
9.99434730e-01
1.00110738e+00
1.00111452e+00
1.00112513e+00
1.00113963e+00
1.00115817e+00
1.00118065e+00
1.00120700e+00
1.00123701e+00
1.00127046e+00
1.00130714e+00
1.00134687e+00
1.00138936e+00
1.00143432e+00
1.00148145e+00
1.00153041e+00
1.00158083e+00
1.00163232e+00
1.00168448e+00
1.00173688e+00
1.00178909e+00
1.00184066e+00
1.00189112e+00
1.00194004e+00
1.00198695e+00
1.00203141e+00
1.00207300e+00
1.00211130e+00
1.00214590e+00
1.00217646e+00
1.00220261e+00
1.00222404e+00
1.00224048e+00
1.00225167e+00
1.00225740e+00
1.00225748e+00
1.00225178e+00
1.00224019e+00
1.00222264e+00
1.00219910e+00
1.00216957e+00
1.00213410e+00
1.00209276e+00
1.00204569e+00
1.00199302e+00
1.00193495e+00
1.00187170e+00
1.00180350e+00
1.00173064e+00
1.00165341e+00
1.00157211e+00
1.00148707e+00
1.00139862e+00
1.00130709e+00
1.00121282e+00
1.00111613e+00
1.00101733e+00
1.00091673e+00
1.00081463e+00
1.00071131e+00
1.00060705e+00
1.00050209e+00
1.00039671e+00
1.00029115e+00
1.00018568e+00
1.00008054e+00
9.99976005e-01
9.99872357e-01
9.99769885e-01
9.99668895e-01
9.99569709e-01
9.99472660e-01
9.99378097e-01
9.99286376e-01
9.99197860e-01
9.99112912e-01
9.99031888e-01
9.98955139e-01
9.98882994e-01
9.98815762e-01
9.98753725e-01
9.98697130e-01
9.98646186e-01
9.98601058e-01
9.98561868e-01
9.98528689e-01
9.98501544e-01
9.98480405e-01
9.98465195e-01
9.98455788e-01
9.98452013e-01
9.98453651e-01
9.98460446e-01
9.98472102e-01
9.98488293e-01
9.98508664e-01
9.98532836e-01
9.98560413e-01
9.98590986e-01
9.98624138e-01
9.98659450e-01
9.98696506e-01
9.98734896e-01
9.98774222e-01
9.98814104e-01
9.98854177e-01
9.98894104e-01
9.98933570e-01
9.98972289e-01
9.99010004e-01
9.99046490e-01
9.99081552e-01
9.99115025e-01
9.99146776e-01
9.99176703e-01
9.99204727e-01
9.99230797e-01
9.99254887e-01
9.99276990e-01
9.99297117e-01
9.99315302e-01
9.99331554e-01
9.99345928e-01
9.99358492e-01
9.99369173e-01
9.99378011e-01
9.99385161e-01
9.99390848e-01
9.99395410e-01
1.00115612e+00
1.00116310e+00
1.00117343e+00
1.00118762e+00
1.00120575e+00
1.00122775e+00
1.00125356e+00
1.00128295e+00
1.00131571e+00
1.00135164e+00
1.00139054e+00
1.00143212e+00
1.00147609e+00
1.00152217e+00
1.00157000e+00
1.00161923e+00
1.00166946e+00
1.00172031e+00
1.00177134e+00
1.00182214e+00
1.00187226e+00
1.00192125e+00
1.00196868e+00
1.00201410e+00
1.00205708e+00
1.00209719e+00
1.00213404e+00
1.00216723e+00
1.00219642e+00
1.00222125e+00
1.00224142e+00
1.00225667e+00
1.00226673e+00
1.00227141e+00
1.00227053e+00
1.00226393e+00
1.00225152e+00
1.00223324e+00
1.00220904e+00
1.00217893e+00
1.00214295e+00
1.00210118e+00
1.00205374e+00
1.00200076e+00
1.00194244e+00
1.00187899e+00
1.00181064e+00
1.00173766e+00
1.00166033e+00
1.00157897e+00
1.00149388e+00
1.00140539e+00
1.00131383e+00
1.00121952e+00
1.00112279e+00
1.00102395e+00
1.00092331e+00
1.00082115e+00
1.00071777e+00
1.00061343e+00
1.00050840e+00
1.00040294e+00
1.00029730e+00
1.00019173e+00
1.00008650e+00
9.99981872e-01
9.99878118e-01
9.99775526e-01
9.99674397e-01
9.99575044e-01
9.99477794e-01
9.99382986e-01
9.99290966e-01
9.99202087e-01
9.99116701e-01
9.99035156e-01
9.98957792e-01
9.98884931e-01
9.98816876e-01
9.98753902e-01
9.98696253e-01
9.98644138e-01
9.98597722e-01
9.98557131e-01
9.98522440e-01
9.98493681e-01
9.98470835e-01
9.98453835e-01
9.98442567e-01
9.98436872e-01
9.98436548e-01
9.98441352e-01
9.98451005e-01
9.98465196e-01
9.98483585e-01
9.98505811e-01
9.98531491e-01
9.98560231e-01
9.98591628e-01
9.98625274e-01
9.98660765e-01
9.98697699e-01
9.98735686e-01
9.98774351e-01
9.98813335e-01
9.98852301e-01
9.98890934e-01
9.98928947e-01
9.98966079e-01
9.99002099e-01
9.99036806e-01
9.99070029e-01
9.99101621e-01
9.99131470e-01
9.99159490e-01
9.99185614e-01
9.99209804e-01
9.99232044e-01
9.99252320e-01
9.99270652e-01
9.99287080e-01
9.99301598e-01
9.99314230e-01
9.99324998e-01
9.99333898e-01
9.99341030e-01
9.99346671e-01
9.99351139e-01
1.00121017e+00
1.00121696e+00
1.00122708e+00
1.00124082e+00
1.00125846e+00
1.00127998e+00
1.00130516e+00
1.00133380e+00
1.00136577e+00
1.00140085e+00
1.00143877e+00
1.00147930e+00
1.00152216e+00
1.00156703e+00
1.00161357e+00
1.00166143e+00
1.00171024e+00
1.00175959e+00
1.00180908e+00
1.00185829e+00
1.00190678e+00
1.00195412e+00
1.00199988e+00
1.00204363e+00
1.00208494e+00
1.00212341e+00
1.00215864e+00
1.00219025e+00
1.00221791e+00
1.00224128e+00
1.00226005e+00
1.00227397e+00
1.00228278e+00
1.00228629e+00
1.00228433e+00
1.00227674e+00
1.00226343e+00
1.00224433e+00
1.00221940e+00
1.00218865e+00
1.00215211e+00
1.00210987e+00
1.00206202e+00
1.00200872e+00
1.00195013e+00
1.00188646e+00
1.00181795e+00
1.00174485e+00
1.00166745e+00
1.00158604e+00
1.00150092e+00
1.00141242e+00
1.00132085e+00
1.00122654e+00
1.00112981e+00
1.00103097e+00
1.00093032e+00
1.00082815e+00
1.00072474e+00
1.00062038e+00
1.00051531e+00
1.00040981e+00
1.00030413e+00
1.00019852e+00
1.00009323e+00
9.99988536e-01
9.99884704e-01
9.99782015e-01
9.99680764e-01
9.99581257e-01
9.99483811e-01
9.99388754e-01
9.99296424e-01
9.99207161e-01
9.99121307e-01
9.99039200e-01
9.98961169e-01
9.98887529e-01
9.98818576e-01
9.98754579e-01
9.98695779e-01
9.98642384e-01
9.98594560e-01
9.98552435e-01
9.98516091e-01
9.98485566e-01
9.98460852e-01
9.98441893e-01
9.98428587e-01
9.98420791e-01
9.98418316e-01
9.98420937e-01
9.98428392e-01
9.98440387e-01
9.98456599e-01
9.98476683e-01
9.98500273e-01
9.98526991e-01
9.98556447e-01
9.98588248e-01
9.98622000e-01
9.98657311e-01
9.98693801e-01
9.98731100e-01
9.98768853e-01
9.98806725e-01
9.98844403e-01
9.98881597e-01
9.98918044e-01
9.98953507e-01
9.98987775e-01
9.99020670e-01
9.99052040e-01
9.99081754e-01
9.99109716e-01
9.99135851e-01
9.99160102e-01
9.99182437e-01
9.99202841e-01
9.99221310e-01
9.99237860e-01
9.99252498e-01
9.99265231e-01
9.99276073e-01
9.99285001e-01
9.99292104e-01
9.99297708e-01
9.99302061e-01
1.00126953e+00
1.00127605e+00
1.00128581e+00
1.00129912e+00
1.00131626e+00
1.00133715e+00
1.00136159e+00
1.00138944e+00
1.00142051e+00
1.00145457e+00
1.00149139e+00
1.00153074e+00
1.00157231e+00
1.00161581e+00
1.00166089e+00
1.00170723e+00
1.00175443e+00
1.00180211e+00
1.00184987e+00
1.00189730e+00
1.00194398e+00
1.00198948e+00
1.00203338e+00
1.00207527e+00
1.00211474e+00
1.00215138e+00
1.00218483e+00
1.00221470e+00
1.00224067e+00
1.00226242e+00
1.00227965e+00
1.00229210e+00
1.00229954e+00
1.00230177e+00
1.00229862e+00
1.00228994e+00
1.00227564e+00
1.00225565e+00
1.00222993e+00
1.00219848e+00
1.00216134e+00
1.00211858e+00
1.00207030e+00
1.00201665e+00
1.00195778e+00
1.00189391e+00
1.00182524e+00
1.00175205e+00
1.00167459e+00
1.00159315e+00
1.00150803e+00
1.00141956e+00
1.00132803e+00
1.00123377e+00
1.00113708e+00
1.00103829e+00
1.00093768e+00
1.00083555e+00
1.00073218e+00
1.00062784e+00
1.00052280e+00
1.00041731e+00
1.00031164e+00
1.00020602e+00
1.00010073e+00
9.99996012e-01
9.99892139e-01
9.99789387e-01
9.99688042e-01
9.99588402e-01
9.99490774e-01
9.99395476e-01
9.99302834e-01
9.99213177e-01
9.99126835e-01
9.99044136e-01
9.98965399e-01
9.98890929e-01
9.98821015e-01
9.98755921e-01
9.98695886e-01
9.98641113e-01
9.98591772e-01
9.98547994e-01
9.98509867e-01
9.98477438e-01
9.98450706e-01
9.98429629e-01
9.98414121e-01
9.98404050e-01
9.98399247e-01
9.98399503e-01
9.98404574e-01
9.98414184e-01
9.98428029e-01
9.98445782e-01
9.98467094e-01
9.98491603e-01
9.98518936e-01
9.98548713e-01
9.98580552e-01
9.98614074e-01
9.98648906e-01
9.98684685e-01
9.98721062e-01
9.98757705e-01
9.98794300e-01
9.98830557e-01
9.98866208e-01
9.98901012e-01
9.98934751e-01
9.98967235e-01
9.98998302e-01
9.99027816e-01
9.99055660e-01
9.99081748e-01
9.99106012e-01
9.99128402e-01
9.99148892e-01
9.99167464e-01
9.99184114e-01
9.99198847e-01
9.99211662e-01
9.99222547e-01
9.99231495e-01
9.99238569e-01
9.99244077e-01
9.99248284e-01
1.00133398e+00
1.00134017e+00
1.00134949e+00
1.00136234e+00
1.00137890e+00
1.00139906e+00
1.00142269e+00
1.00144964e+00
1.00147967e+00
1.00151258e+00
1.00154818e+00
1.00158619e+00
1.00162632e+00
1.00166828e+00
1.00171175e+00
1.00175638e+00
1.00180179e+00
1.00184761e+00
1.00189346e+00
1.00193892e+00
1.00198359e+00
1.00202707e+00
1.00206893e+00
1.00210877e+00
1.00214621e+00
1.00218086e+00
1.00221234e+00
1.00224031e+00
1.00226443e+00
1.00228440e+00
1.00229995e+00
1.00231080e+00
1.00231674e+00
1.00231757e+00
1.00231312e+00
1.00230327e+00
1.00228789e+00
1.00226694e+00
1.00224036e+00
1.00220817e+00
1.00217039e+00
1.00212709e+00
1.00207836e+00
1.00202435e+00
1.00196521e+00
1.00190113e+00
1.00183233e+00
1.00175906e+00
1.00168157e+00
1.00160015e+00
1.00151508e+00
1.00142668e+00
1.00133524e+00
1.00124108e+00
1.00114450e+00
1.00104582e+00
1.00094532e+00
1.00084329e+00
1.00074002e+00
1.00063577e+00
1.00053082e+00
1.00042541e+00
1.00031980e+00
1.00021424e+00
1.00010899e+00
1.00000431e+00
9.99900440e-01
9.99797666e-01
9.99696264e-01
9.99596521e-01
9.99498735e-01
9.99403213e-01
9.99310268e-01
9.99220218e-01
9.99133380e-01
9.99050070e-01
9.98970598e-01
9.98895259e-01
9.98824334e-01
9.98758083e-01
9.98696739e-01
9.98640505e-01
9.98589553e-01
9.98544016e-01
9.98503990e-01
9.98469529e-01
9.98440644e-01
9.98417305e-01
9.98399440e-01
9.98386936e-01
9.98379638e-01
9.98377357e-01
9.98379868e-01
9.98386915e-01
9.98398212e-01
9.98413451e-01
9.98432303e-01
9.98454423e-01
9.98479454e-01
9.98507031e-01
9.98536786e-01
9.98568352e-01
9.98601365e-01
9.98635470e-01
9.98670324e-01
9.98705597e-01
9.98740977e-01
9.98776172e-01
9.98810911e-01
9.98844946e-01
9.98878054e-01
9.98910037e-01
9.98940717e-01
9.98969949e-01
9.98997607e-01
9.99023584e-01
9.99047801e-01
9.99070197e-01
9.99090726e-01
9.99109354e-01
9.99126070e-01
9.99140870e-01
9.99153732e-01
9.99164630e-01
9.99173578e-01
9.99180613e-01
9.99185987e-01
9.99190006e-01
1.00140325e+00
1.00140909e+00
1.00141796e+00
1.00143025e+00
1.00144613e+00
1.00146551e+00
1.00148824e+00
1.00151414e+00
1.00154301e+00
1.00157468e+00
1.00160890e+00
1.00164540e+00
1.00168394e+00
1.00172421e+00
1.00176588e+00
1.00180861e+00
1.00185205e+00
1.00189584e+00
1.00193957e+00
1.00198288e+00
1.00202536e+00
1.00206661e+00
1.00210624e+00
1.00214386e+00
1.00217909e+00
1.00221155e+00
1.00224090e+00
1.00226679e+00
1.00228891e+00
1.00230696e+00
1.00232068e+00
1.00232980e+00
1.00233412e+00
1.00233344e+00
1.00232760e+00
1.00231646e+00
1.00229994e+00
1.00227796e+00
1.00225047e+00
1.00221749e+00
1.00217903e+00
1.00213517e+00
1.00208599e+00
1.00203161e+00
1.00197220e+00
1.00190794e+00
1.00183904e+00
1.00176572e+00
1.00168825e+00
1.00160689e+00
1.00152192e+00
1.00143365e+00
1.00134236e+00
1.00124837e+00
1.00115197e+00
1.00105347e+00
1.00095315e+00
1.00085130e+00
1.00074820e+00
1.00064412e+00
1.00053932e+00
1.00043405e+00
1.00032858e+00
1.00022315e+00
1.00011801e+00
1.00001341e+00
9.99909605e-01
9.99806860e-01
9.99705446e-01
9.99605641e-01
9.99507731e-01
9.99412011e-01
9.99318782e-01
9.99228349e-01
9.99141017e-01
9.99057090e-01
9.98976867e-01
9.98900632e-01
9.98828660e-01
9.98761203e-01
9.98698492e-01
9.98640728e-01
9.98588084e-01
9.98540698e-01
9.98498671e-01
9.98462066e-01
9.98430906e-01
9.98405175e-01
9.98384815e-01
9.98369730e-01
9.98359784e-01
9.98354807e-01
9.98354594e-01
9.98358909e-01
9.98367487e-01
9.98380039e-01
9.98396258e-01
9.98415814e-01
9.98438371e-01
9.98463578e-01
9.98491081e-01
9.98520527e-01
9.98551561e-01
9.98583838e-01
9.98617019e-01
9.98650779e-01
9.98684807e-01
9.98718810e-01
9.98752515e-01
9.98785667e-01
9.98818036e-01
9.98849415e-01
9.98879618e-01
9.98908482e-01
9.98935871e-01
9.98961667e-01
9.98985771e-01
9.99008107e-01
9.99028619e-01
9.99047259e-01
9.99063998e-01
9.99078812e-01
9.99091687e-01
9.99102583e-01
9.99111489e-01
9.99118439e-01
9.99123673e-01
9.99127483e-01
1.00147709e+00
1.00148253e+00
1.00149091e+00
1.00150257e+00
1.00151770e+00
1.00153621e+00
1.00155792e+00
1.00158266e+00
1.00161027e+00
1.00164054e+00
1.00167323e+00
1.00170810e+00
1.00174488e+00
1.00178328e+00
1.00182297e+00
1.00186364e+00
1.00190493e+00
1.00194648e+00
1.00198793e+00
1.00202889e+00
1.00206899e+00
1.00210783e+00
1.00214504e+00
1.00218025e+00
1.00221309e+00
1.00224320e+00
1.00227024e+00
1.00229390e+00
1.00231386e+00
1.00232984e+00
1.00234158e+00
1.00234885e+00
1.00235142e+00
1.00234912e+00
1.00234179e+00
1.00232930e+00
1.00231155e+00
1.00228848e+00
1.00226004e+00
1.00222623e+00
1.00218707e+00
1.00214263e+00
1.00209298e+00
1.00203826e+00
1.00197860e+00
1.00191418e+00
1.00184520e+00
1.00177188e+00
1.00169447e+00
1.00161323e+00
1.00152843e+00
1.00144035e+00
1.00134929e+00
1.00125554e+00
1.00115939e+00
1.00106114e+00
1.00096108e+00
1.00085949e+00
1.00075664e+00
1.00065281e+00
1.00054824e+00
1.00044320e+00
1.00033795e+00
1.00023271e+00
1.00012775e+00
1.00002330e+00
9.99919619e-01
9.99816963e-01
9.99715590e-01
9.99615770e-01
9.99517777e-01
9.99421895e-01
9.99328411e-01
9.99237616e-01
9.99149803e-01
9.99065264e-01
9.98984284e-01
9.98907140e-01
9.98834097e-01
9.98765400e-01
9.98701278e-01
9.98641929e-01
9.98587529e-01
9.98538217e-01
9.98494104e-01
9.98455259e-01
9.98421720e-01
9.98393481e-01
9.98370503e-01
9.98352706e-01
9.98339974e-01
9.98332157e-01
9.98329069e-01
9.98330497e-01
9.98336197e-01
9.98345901e-01
9.98359322e-01
9.98376151e-01
9.98396067e-01
9.98418740e-01
9.98443829e-01
9.98470994e-01
9.98499892e-01
9.98530187e-01
9.98561546e-01
9.98593649e-01
9.98626186e-01
9.98658865e-01
9.98691407e-01
9.98723557e-01
9.98755073e-01
9.98785740e-01
9.98815363e-01
9.98843768e-01
9.98870800e-01
9.98896330e-01
9.98920248e-01
9.98942458e-01
9.98962887e-01
9.98981480e-01
9.98998190e-01
9.99012974e-01
9.99025814e-01
9.99036671e-01
9.99045504e-01
9.99052335e-01
9.99057401e-01
9.99060971e-01
1.00155520e+00
1.00156017e+00
1.00156798e+00
1.00157897e+00
1.00159329e+00
1.00161082e+00
1.00163141e+00
1.00165490e+00
1.00168112e+00
1.00170984e+00
1.00174087e+00
1.00177395e+00
1.00180881e+00
1.00184517e+00
1.00188273e+00
1.00192116e+00
1.00196011e+00
1.00199926e+00
1.00203823e+00
1.00207666e+00
1.00211418e+00
1.00215043e+00
1.00218505e+00
1.00221766e+00
1.00224794e+00
1.00227552e+00
1.00230010e+00
1.00232136e+00
1.00233901e+00
1.00235278e+00
1.00236242e+00
1.00236771e+00
1.00236843e+00
1.00236441e+00
1.00235550e+00
1.00234157e+00
1.00232253e+00
1.00229831e+00
1.00226887e+00
1.00223419e+00
1.00219432e+00
1.00214929e+00
1.00209918e+00
1.00204412e+00
1.00198423e+00
1.00191969e+00
1.00185067e+00
1.00177741e+00
1.00170012e+00
1.00161906e+00
1.00153448e+00
1.00144667e+00
1.00135591e+00
1.00126248e+00
1.00116667e+00
1.00106876e+00
1.00096904e+00
1.00086779e+00
1.00076528e+00
1.00066177e+00
1.00055753e+00
1.00045280e+00
1.00034783e+00
1.00024287e+00
1.00013816e+00
1.00003394e+00
9.99930453e-01
9.99827948e-01
9.99726676e-01
9.99626896e-01
9.99528871e-01
9.99432869e-01
9.99339167e-01
9.99248040e-01
9.99159770e-01
9.99074633e-01
9.98992904e-01
9.98914850e-01
9.98840725e-01
9.98770769e-01
9.98705206e-01
9.98644234e-01
9.98588027e-01
9.98536732e-01
9.98490463e-01
9.98449301e-01
9.98413293e-01
9.98382450e-01
9.98356748e-01
9.98336125e-01
9.98320485e-01
9.98309698e-01
9.98303601e-01
9.98302002e-01
9.98304679e-01
9.98311386e-01
9.98321857e-01
9.98335804e-01
9.98352925e-01
9.98372907e-01
9.98395426e-01
9.98420155e-01
9.98446765e-01
9.98474926e-01
9.98504316e-01
9.98534618e-01
9.98565525e-01
9.98596744e-01
9.98627996e-01
9.98659016e-01
9.98689562e-01
9.98719405e-01
9.98748340e-01
9.98776183e-01
9.98802766e-01
9.98827943e-01
9.98851589e-01
9.98873598e-01
9.98893878e-01
9.98912353e-01
9.98928973e-01
9.98943682e-01
9.98956439e-01
9.98967201e-01
9.98975930e-01
9.98982620e-01
9.98987475e-01
9.98990766e-01
1.00163715e+00
1.00164163e+00
1.00164882e+00
1.00165907e+00
1.00167250e+00
1.00168896e+00
1.00170835e+00
1.00173047e+00
1.00175516e+00
1.00178223e+00
1.00181145e+00
1.00184259e+00
1.00187538e+00
1.00190956e+00
1.00194481e+00
1.00198082e+00
1.00201727e+00
1.00205383e+00
1.00209015e+00
1.00212587e+00
1.00216065e+00
1.00219413e+00
1.00222597e+00
1.00225583e+00
1.00228337e+00
1.00230827e+00
1.00233023e+00
1.00234894e+00
1.00236414e+00
1.00237557e+00
1.00238298e+00
1.00238616e+00
1.00238493e+00
1.00237909e+00
1.00236852e+00
1.00235308e+00
1.00233269e+00
1.00230727e+00
1.00227679e+00
1.00224124e+00
1.00220062e+00
1.00215500e+00
1.00210445e+00
1.00204906e+00
1.00198898e+00
1.00192434e+00
1.00185535e+00
1.00178218e+00
1.00170507e+00
1.00162425e+00
1.00153998e+00
1.00145252e+00
1.00136213e+00
1.00126911e+00
1.00117371e+00
1.00107623e+00
1.00097695e+00
1.00087613e+00
1.00077404e+00
1.00067095e+00
1.00056711e+00
1.00046277e+00
1.00035818e+00
1.00025358e+00
1.00014920e+00