# vtk DataFile Version 2.0
LBM Flow Field - Timestep 2400
ASCII
DATASET STRUCTURED_POINTS
DIMENSIONS 128 128 1
ORIGIN 0.0 0.0 0.0
SPACING 1.0 1.0 1.0
POINT_DATA 16384
SCALARS density double 1
LOOKUP_TABLE default
9.99160024e-01
9.99148015e-01
9.99135770e-01
9.99137508e-01
9.99140303e-01
9.99142536e-01
9.99147096e-01
9.99154124e-01
9.99162307e-01
9.99171939e-01
9.99183369e-01
9.99196442e-01
9.99211005e-01
9.99227143e-01
9.99244862e-01
9.99264110e-01
9.99284867e-01
9.99307132e-01
9.99330882e-01
9.99356090e-01
9.99382727e-01
9.99410760e-01
9.99440143e-01
9.99470822e-01
9.99502729e-01
9.99535785e-01
9.99569893e-01
9.99604940e-01
9.99640798e-01
9.99677320e-01
9.99714341e-01
9.99751679e-01
9.99789139e-01
9.99826509e-01
9.99863567e-01
9.99900080e-01
9.99935813e-01
9.99970523e-01
1.00000397e+00
1.00003593e+00
1.00006617e+00
1.00009449e+00
1.00012068e+00
1.00014459e+00
1.00016607e+00
1.00018500e+00
1.00020129e+00
1.00021489e+00
1.00022578e+00
1.00023397e+00
1.00023953e+00
1.00024252e+00
1.00024307e+00
1.00024133e+00
1.00023748e+00
1.00023172e+00
1.00022429e+00
1.00021544e+00
1.00020544e+00
1.00019457e+00
1.00018313e+00
1.00017143e+00
1.00015977e+00
1.00014847e+00
1.00013782e+00
1.00012812e+00
1.00011968e+00
1.00011276e+00
1.00010764e+00
1.00010457e+00
1.00010377e+00
1.00010547e+00
1.00010985e+00
1.00011709e+00
1.00012732e+00
1.00014067e+00
1.00015723e+00
1.00017707e+00
1.00020023e+00
1.00022672e+00
1.00025652e+00
1.00028960e+00
1.00032588e+00
1.00036525e+00
1.00040761e+00
1.00045280e+00
1.00050064e+00
1.00055093e+00
1.00060346e+00
1.00065800e+00
1.00071427e+00
1.00077203e+00
1.00083097e+00
1.00089083e+00
1.00095130e+00
1.00101208e+00
1.00107288e+00
1.00113342e+00
1.00119341e+00
1.00125258e+00
1.00131067e+00
1.00136744e+00
1.00142268e+00
1.00147617e+00
1.00152774e+00
1.00157722e+00
1.00162450e+00
1.00166944e+00
1.00171195e+00
1.00175198e+00
1.00178948e+00
1.00182439e+00
1.00185671e+00
1.00188646e+00
1.00191365e+00
1.00193825e+00
1.00196032e+00
1.00198001e+00
1.00199722e+00
1.00201183e+00
1.00202430e+00
1.00203502e+00
1.00204259e+00
1.00204717e+00
1.00205205e+00
1.00205540e+00
1.00204343e+00
1.00203146e+00
9.99147983e-01
9.99143541e-01
9.99135866e-01
9.99136382e-01
9.99137910e-01
9.99141079e-01
9.99145811e-01
9.99152603e-01
9.99160853e-01
9.99170733e-01
9.99182200e-01
9.99195300e-01
9.99209953e-01
9.99226176e-01
9.99243942e-01
9.99263247e-01
9.99284065e-01
9.99306386e-01
9.99330185e-01
9.99355442e-01
9.99382125e-01
9.99410200e-01
9.99439620e-01
9.99470330e-01
9.99502264e-01
9.99535338e-01
9.99569457e-01
9.99604509e-01
9.99640362e-01
9.99676871e-01
9.99713871e-01
9.99751182e-01
9.99788607e-01
9.99825936e-01
9.99862949e-01
9.99899415e-01
9.99935098e-01
9.99969760e-01
1.00000317e+00
1.00003508e+00
1.00006529e+00
1.00009358e+00
1.00011977e+00
1.00014367e+00
1.00016517e+00
1.00018412e+00
1.00020046e+00
1.00021412e+00
1.00022509e+00
1.00023339e+00
1.00023905e+00
1.00024217e+00
1.00024287e+00
1.00024128e+00
1.00023760e+00
1.00023201e+00
1.00022476e+00
1.00021610e+00
1.00020628e+00
1.00019560e+00
1.00018435e+00
1.00017283e+00
1.00016135e+00
1.00015021e+00
1.00013972e+00
1.00013018e+00
1.00012187e+00
1.00011508e+00
1.00011007e+00
1.00010709e+00
1.00010637e+00
1.00010814e+00
1.00011257e+00
1.00011984e+00
1.00013009e+00
1.00014345e+00
1.00016000e+00
1.00017981e+00
1.00020293e+00
1.00022937e+00
1.00025911e+00
1.00029210e+00
1.00032829e+00
1.00036756e+00
1.00040980e+00
1.00045487e+00
1.00050257e+00
1.00055272e+00
1.00060511e+00
1.00065949e+00
1.00071560e+00
1.00077319e+00
1.00083197e+00
1.00089166e+00
1.00095196e+00
1.00101258e+00
1.00107323e+00
1.00113361e+00
1.00119346e+00
1.00125249e+00
1.00131046e+00
1.00136712e+00
1.00142225e+00
1.00147566e+00
1.00152716e+00
1.00157659e+00
1.00162382e+00
1.00166874e+00
1.00171125e+00
1.00175129e+00
1.00178881e+00
1.00182376e+00
1.00185615e+00
1.00188596e+00
1.00191321e+00
1.00193792e+00
1.00196012e+00
1.00197988e+00
1.00199716e+00
1.00201209e+00
1.00202468e+00
1.00203515e+00
1.00204293e+00
1.00204858e+00
1.00205217e+00
1.00205414e+00
1.00204715e+00
1.00204338e+00
9.99132997e-01
9.99132767e-01
9.99135074e-01
9.99132545e-01
9.99132410e-01
9.99136962e-01
9.99142388e-01
9.99148719e-01
9.99157054e-01
9.99167253e-01
9.99178839e-01
9.99191977e-01
9.99206767e-01
9.99223119e-01
9.99240982e-01
9.99260384e-01
9.99281311e-01
9.99303732e-01
9.99327626e-01
9.99352978e-01
9.99379753e-01
9.99407915e-01
9.99437419e-01
9.99468209e-01
9.99500217e-01
9.99533361e-01
9.99567544e-01
9.99602654e-01
9.99638560e-01
9.99675116e-01
9.99712158e-01
9.99749507e-01
9.99786965e-01
9.99824326e-01
9.99861367e-01
9.99897862e-01
9.99933575e-01
9.99968269e-01
1.00000171e+00
1.00003367e+00
1.00006393e+00
1.00009228e+00
1.00011853e+00
1.00014252e+00
1.00016410e+00
1.00018316e+00
1.00019961e+00
1.00021341e+00
1.00022453e+00
1.00023298e+00
1.00023881e+00
1.00024211e+00
1.00024300e+00
1.00024161e+00
1.00023813e+00
1.00023275e+00
1.00022571e+00
1.00021726e+00
1.00020766e+00
1.00019718e+00
1.00018614e+00
1.00017481e+00
1.00016352e+00
1.00015255e+00
1.00014223e+00
1.00013284e+00
1.00012467e+00
1.00011800e+00
1.00011311e+00
1.00011023e+00
1.00010960e+00
1.00011143e+00
1.00011592e+00
1.00012324e+00
1.00013352e+00
1.00014689e+00
1.00016345e+00
1.00018325e+00
1.00020636e+00
1.00023276e+00
1.00026246e+00
1.00029541e+00
1.00033155e+00
1.00037076e+00
1.00041294e+00
1.00045792e+00
1.00050555e+00
1.00055562e+00
1.00060792e+00
1.00066220e+00
1.00071822e+00
1.00077571e+00
1.00083440e+00
1.00089399e+00
1.00095419e+00
1.00101471e+00
1.00107527e+00
1.00113556e+00
1.00119532e+00
1.00125427e+00
1.00131216e+00
1.00136875e+00
1.00142382e+00
1.00147718e+00
1.00152863e+00
1.00157803e+00
1.00162524e+00
1.00167014e+00
1.00171265e+00
1.00175270e+00
1.00179022e+00
1.00182521e+00
1.00185764e+00
1.00188749e+00
1.00191478e+00
1.00193959e+00
1.00196190e+00
1.00198165e+00
1.00199904e+00
1.00201429e+00
1.00202694e+00
1.00203688e+00
1.00204541e+00
1.00205258e+00
1.00205425e+00
1.00205299e+00
1.00205685e+00
1.00205772e+00
9.99127414e-01
9.99125441e-01
9.99125254e-01
9.99124696e-01
9.99127081e-01
9.99130770e-01
9.99135793e-01
9.99142756e-01
9.99151441e-01
9.99161588e-01
9.99173333e-01
9.99186718e-01
9.99201662e-01
9.99218145e-01
9.99236181e-01
9.99255750e-01
9.99276826e-01
9.99299396e-01
9.99323442e-01
9.99348937e-01
9.99375851e-01
9.99404147e-01
9.99433780e-01
9.99464692e-01
9.99496816e-01
9.99530069e-01
9.99564354e-01
9.99599558e-01
9.99635553e-01
9.99672192e-01
9.99709311e-01
9.99746731e-01
9.99784258e-01
9.99821684e-01
9.99858791e-01
9.99895352e-01
9.99931133e-01
9.99965900e-01
9.99999420e-01
1.00003146e+00
1.00006182e+00
1.00009027e+00
1.00011664e+00
1.00014076e+00
1.00016249e+00
1.00018171e+00
1.00019835e+00
1.00021233e+00
1.00022365e+00
1.00023232e+00
1.00023839e+00
1.00024193e+00
1.00024307e+00
1.00024194e+00
1.00023873e+00
1.00023362e+00
1.00022685e+00
1.00021867e+00
1.00020933e+00
1.00019912e+00
1.00018833e+00
1.00017726e+00
1.00016620e+00
1.00015546e+00
1.00014534e+00
1.00013615e+00
1.00012816e+00
1.00012167e+00
1.00011692e+00
1.00011418e+00
1.00011367e+00
1.00011561e+00
1.00012018e+00
1.00012757e+00
1.00013791e+00
1.00015133e+00
1.00016792e+00
1.00018775e+00
1.00021087e+00
1.00023728e+00
1.00026697e+00
1.00029991e+00
1.00033602e+00
1.00037520e+00
1.00041734e+00
1.00046229e+00
1.00050987e+00
1.00055989e+00
1.00061213e+00
1.00066636e+00
1.00072232e+00
1.00077975e+00
1.00083837e+00
1.00089790e+00
1.00095804e+00
1.00101850e+00
1.00107898e+00
1.00113922e+00
1.00119892e+00
1.00125781e+00
1.00131565e+00
1.00137219e+00
1.00142722e+00
1.00148054e+00
1.00153196e+00
1.00158133e+00
1.00162852e+00
1.00167341e+00
1.00171591e+00
1.00175596e+00
1.00179349e+00
1.00182849e+00
1.00186093e+00
1.00189083e+00
1.00191818e+00
1.00194299e+00
1.00196534e+00
1.00198526e+00
1.00200270e+00
1.00201779e+00
1.00203073e+00
1.00204130e+00
1.00204931e+00
1.00205546e+00
1.00205983e+00
1.00206073e+00
1.00206179e+00
1.00206077e+00
9.99119071e-01
9.99116228e-01
9.99114203e-01
9.99116053e-01
9.99118998e-01
9.99121920e-01
9.99127385e-01
9.99134950e-01
9.99143689e-01
9.99153920e-01
9.99165962e-01
9.99179590e-01
9.99194707e-01
9.99211394e-01
9.99229652e-01
9.99249425e-01
9.99270698e-01
9.99293467e-01
9.99317709e-01
9.99343391e-01
9.99370487e-01
9.99398958e-01
9.99428758e-01
9.99459828e-01
9.99492102e-01
9.99525496e-01
9.99559913e-01
9.99595242e-01
9.99631352e-01
9.99668098e-01
9.99705318e-01
9.99742833e-01
9.99780452e-01
9.99817968e-01
9.99855164e-01
9.99891814e-01
9.99927690e-01
9.99962557e-01
9.99996184e-01
1.00002835e+00
1.00005883e+00
1.00008743e+00
1.00011396e+00
1.00013826e+00
1.00016018e+00
1.00017961e+00
1.00019647e+00
1.00021071e+00
1.00022230e+00
1.00023125e+00
1.00023761e+00
1.00024147e+00
1.00024293e+00
1.00024213e+00
1.00023926e+00
1.00023450e+00
1.00022808e+00
1.00022024e+00
1.00021124e+00
1.00020137e+00
1.00019090e+00
1.00018014e+00
1.00016939e+00
1.00015894e+00
1.00014910e+00
1.00014016e+00
1.00013242e+00
1.00012614e+00
1.00012160e+00
1.00011904e+00
1.00011870e+00
1.00012079e+00
1.00012550e+00
1.00013300e+00
1.00014344e+00
1.00015694e+00
1.00017360e+00
1.00019349e+00
1.00021664e+00
1.00024309e+00
1.00027280e+00
1.00030575e+00
1.00034187e+00
1.00038105e+00
1.00042318e+00
1.00046811e+00
1.00051567e+00
1.00056566e+00
1.00061787e+00
1.00067207e+00
1.00072799e+00
1.00078538e+00
1.00084395e+00
1.00090343e+00
1.00096352e+00
1.00102394e+00
1.00108438e+00
1.00114456e+00
1.00120421e+00
1.00126306e+00
1.00132086e+00
1.00137736e+00
1.00143235e+00
1.00148563e+00
1.00153702e+00
1.00158636e+00
1.00163353e+00
1.00167839e+00
1.00172088e+00
1.00176091e+00
1.00179845e+00
1.00183344e+00
1.00186589e+00
1.00189579e+00
1.00192317e+00
1.00194801e+00
1.00197035e+00
1.00199035e+00
1.00200795e+00
1.00202296e+00
1.00203581e+00
1.00204691e+00
1.00205527e+00
1.00206047e+00
1.00206540e+00
1.00206887e+00
1.00206784e+00
1.00206579e+00
9.99106634e-01
9.99104765e-01
9.99104061e-01
9.99105163e-01
9.99107333e-01
9.99111578e-01
9.99117646e-01
9.99124880e-01
9.99133795e-01
9.99144536e-01
9.99156806e-01
9.99170576e-01
9.99185967e-01
9.99202941e-01
9.99221430e-01
9.99241436e-01
9.99262961e-01
9.99285971e-01
9.99310441e-01
9.99336349e-01
9.99363663e-01
9.99392344e-01
9.99422343e-01
9.99453603e-01
9.99486056e-01
9.99519619e-01
9.99554195e-01
9.99589672e-01
9.99625921e-01
9.99662798e-01
9.99700141e-01
9.99737775e-01
9.99775508e-01
9.99813137e-01
9.99850446e-01
9.99887213e-01
9.99923209e-01
9.99958205e-01
9.99991973e-01
1.00002429e+00
1.00005494e+00
1.00008372e+00
1.00011045e+00
1.00013497e+00
1.00015714e+00
1.00017684e+00
1.00019399e+00
1.00020853e+00
1.00022044e+00
1.00022975e+00
1.00023648e+00
1.00024071e+00
1.00024257e+00
1.00024218e+00
1.00023971e+00
1.00023537e+00
1.00022937e+00
1.00022195e+00
1.00021337e+00
1.00020390e+00
1.00019384e+00
1.00018346e+00
1.00017308e+00
1.00016299e+00
1.00015349e+00
1.00014487e+00
1.00013743e+00
1.00013143e+00
1.00012715e+00
1.00012483e+00
1.00012470e+00
1.00012698e+00
1.00013187e+00
1.00013952e+00
1.00015010e+00
1.00016373e+00
1.00018049e+00
1.00020047e+00
1.00022370e+00
1.00025021e+00
1.00027997e+00
1.00031296e+00
1.00034911e+00
1.00038831e+00
1.00043046e+00
1.00047540e+00
1.00052296e+00
1.00057294e+00
1.00062514e+00
1.00067932e+00
1.00073522e+00
1.00079259e+00
1.00085113e+00
1.00091058e+00
1.00097064e+00
1.00103102e+00
1.00109142e+00
1.00115157e+00
1.00121118e+00
1.00126999e+00
1.00132775e+00
1.00138421e+00
1.00143916e+00
1.00149240e+00
1.00154376e+00
1.00159307e+00
1.00164020e+00
1.00168503e+00
1.00172749e+00
1.00176750e+00
1.00180501e+00
1.00183999e+00
1.00187243e+00
1.00190231e+00
1.00192967e+00
1.00195456e+00
1.00197694e+00
1.00199684e+00
1.00201445e+00
1.00202980e+00
1.00204264e+00
1.00205317e+00
1.00206204e+00
1.00206857e+00
1.00207252e+00
1.00207504e+00
1.00207543e+00
1.00207441e+00
9.99093237e-01
9.99091456e-01
9.99091392e-01
9.99092092e-01
9.99094656e-01
9.99099513e-01
9.99105462e-01
9.99112901e-01
9.99122312e-01
9.99133300e-01
9.99145738e-01
9.99159821e-01
9.99175537e-01
9.99192773e-01
9.99211532e-01
9.99231831e-01
9.99253637e-01
9.99276916e-01
9.99301652e-01
9.99327821e-01
9.99355386e-01
9.99384306e-01
9.99414534e-01
9.99446014e-01
9.99478673e-01
9.99512431e-01
9.99547190e-01
9.99582839e-01
9.99619250e-01
9.99656280e-01
9.99693770e-01
9.99731545e-01
9.99769415e-01
9.99807180e-01
9.99844627e-01
9.99881536e-01
9.99917682e-01
9.99952838e-01
9.99986777e-01
1.00001928e+00
1.00005013e+00
1.00007914e+00
1.00010612e+00
1.00013091e+00
1.00015337e+00
1.00017339e+00
1.00019088e+00
1.00020579e+00
1.00021810e+00
1.00022781e+00
1.00023497e+00
1.00023966e+00
1.00024198e+00
1.00024207e+00
1.00024009e+00
1.00023624e+00
1.00023073e+00
1.00022380e+00
1.00021571e+00
1.00020673e+00
1.00019713e+00
1.00018721e+00
1.00017727e+00
1.00016760e+00
1.00015851e+00
1.00015027e+00
1.00014319e+00
1.00013752e+00
1.00013355e+00
1.00013152e+00
1.00013166e+00
1.00013418e+00
1.00013928e+00
1.00014714e+00
1.00015789e+00
1.00017167e+00
1.00018858e+00
1.00020868e+00
1.00023202e+00
1.00025862e+00
1.00028846e+00
1.00032152e+00
1.00035772e+00
1.00039697e+00
1.00043916e+00
1.00048412e+00
1.00053171e+00
1.00058171e+00
1.00063391e+00
1.00068809e+00
1.00074399e+00
1.00080135e+00
1.00085989e+00
1.00091932e+00
1.00097935e+00
1.00103971e+00
1.00110008e+00
1.00116020e+00
1.00121978e+00
1.00127855e+00
1.00133627e+00
1.00139269e+00
1.00144761e+00
1.00150081e+00
1.00155212e+00
1.00160138e+00
1.00164847e+00
1.00169327e+00
1.00173568e+00
1.00177565e+00
1.00181312e+00
1.00184806e+00
1.00188046e+00
1.00191033e+00
1.00193765e+00
1.00196249e+00
1.00198491e+00
1.00200484e+00
1.00202234e+00
1.00203769e+00
1.00205081e+00
1.00206133e+00
1.00206986e+00
1.00207689e+00
1.00208111e+00
1.00208307e+00
1.00208408e+00
1.00208312e+00
9.99078807e-01
9.99076671e-01
9.99076186e-01
9.99077483e-01
9.99080631e-01
9.99085162e-01
9.99091310e-01
9.99099413e-01
9.99109033e-01
9.99120129e-01
9.99132949e-01
9.99147416e-01
9.99163393e-01
9.99180921e-01
9.99200022e-01
9.99220641e-01
9.99242745e-01
9.99266329e-01
9.99291369e-01
9.99317826e-01
9.99345669e-01
9.99374858e-01
9.99405344e-01
9.99437067e-01
9.99469957e-01
9.99503933e-01
9.99538899e-01
9.99574742e-01
9.99611337e-01
9.99648542e-01
9.99686199e-01
9.99724135e-01
9.99762165e-01
9.99800090e-01
9.99837699e-01
9.99874776e-01
9.99911100e-01
9.99946444e-01
9.99980588e-01
1.00001331e+00
1.00004441e+00
1.00007368e+00
1.00010095e+00
1.00012606e+00
1.00014886e+00
1.00016925e+00
1.00018714e+00
1.00020248e+00
1.00021524e+00
1.00022543e+00
1.00023309e+00
1.00023829e+00
1.00024115e+00
1.00024178e+00
1.00024036e+00
1.00023708e+00
1.00023214e+00
1.00022578e+00
1.00021824e+00
1.00020981e+00
1.00020076e+00
1.00019137e+00
1.00018193e+00
1.00017275e+00
1.00016412e+00
1.00015633e+00
1.00014966e+00
1.00014440e+00
1.00014079e+00
1.00013910e+00
1.00013955e+00
1.00014236e+00
1.00014773e+00
1.00015582e+00
1.00016680e+00
1.00018077e+00
1.00019785e+00
1.00021811e+00
1.00024159e+00
1.00026831e+00
1.00029826e+00
1.00033141e+00
1.00036770e+00
1.00040702e+00
1.00044926e+00
1.00049428e+00
1.00054190e+00
1.00059194e+00
1.00064417e+00
1.00069837e+00
1.00075428e+00
1.00081164e+00
1.00087018e+00
1.00092960e+00
1.00098963e+00
1.00104996e+00
1.00111032e+00
1.00117041e+00
1.00122996e+00
1.00128870e+00
1.00134638e+00
1.00140276e+00
1.00145763e+00
1.00151078e+00
1.00156205e+00
1.00161126e+00
1.00165829e+00
1.00170303e+00
1.00174539e+00
1.00178530e+00
1.00182271e+00
1.00185759e+00
1.00188993e+00
1.00191975e+00
1.00194705e+00
1.00197182e+00
1.00199415e+00
1.00201414e+00
1.00203170e+00
1.00204684e+00
1.00205988e+00
1.00207087e+00
1.00207936e+00
1.00208580e+00
1.00209050e+00
1.00209299e+00
1.00209340e+00
1.00209198e+00
9.99062145e-01
9.99060076e-01
9.99059612e-01
9.99061202e-01
9.99064414e-01
9.99069109e-01
9.99075745e-01
9.99084059e-01
9.99093842e-01
9.99105349e-01
9.99118551e-01
9.99133285e-01
9.99149587e-01
9.99167493e-01
9.99186939e-01
9.99207884e-01
9.99230330e-01
9.99254253e-01
9.99279616e-01
9.99306387e-01
9.99334536e-01
9.99364020e-01
9.99394785e-01
9.99426774e-01
9.99459918e-01
9.99494133e-01
9.99529324e-01
9.99565381e-01
9.99602179e-01
9.99639577e-01
9.99677421e-01
9.99715539e-01
9.99753748e-01
9.99791853e-01
9.99829647e-01
9.99866917e-01
9.99903443e-01
9.99939006e-01
9.99973384e-01
1.00000636e+00
1.00003774e+00
1.00006732e+00
1.00009492e+00
1.00012039e+00
1.00014359e+00
1.00016440e+00
1.00018274e+00
1.00019856e+00
1.00021184e+00
1.00022257e+00
1.00023079e+00
1.00023658e+00
1.00024004e+00
1.00024130e+00
1.00024051e+00
1.00023786e+00
1.00023356e+00
1.00022784e+00
1.00022094e+00
1.00021313e+00
1.00020469e+00
1.00019590e+00
1.00018704e+00
1.00017842e+00
1.00017032e+00
1.00016304e+00
1.00015685e+00
1.00015203e+00
1.00014885e+00
1.00014755e+00
1.00014837e+00
1.00015152e+00
1.00015720e+00
1.00016558e+00
1.00017681e+00
1.00019102e+00
1.00020831e+00
1.00022876e+00
1.00025241e+00
1.00027928e+00
1.00030937e+00
1.00034265e+00
1.00037904e+00
1.00041845e+00
1.00046078e+00
1.00050586e+00
1.00055355e+00
1.00060363e+00
1.00065590e+00
1.00071013e+00
1.00076607e+00
1.00082345e+00
1.00088199e+00
1.00094142e+00
1.00100143e+00
1.00106176e+00
1.00112209e+00
1.00118216e+00
1.00124167e+00
1.00130038e+00
1.00135802e+00
1.00141435e+00
1.00146917e+00
1.00152227e+00
1.00157347e+00
1.00162261e+00
1.00166958e+00
1.00171424e+00
1.00175653e+00
1.00179636e+00
1.00183369e+00
1.00186850e+00
1.00190077e+00
1.00193049e+00
1.00195772e+00
1.00198247e+00
1.00200471e+00
1.00202457e+00
1.00204216e+00
1.00205737e+00
1.00207024e+00
1.00208114e+00
1.00208989e+00
1.00209626e+00
1.00210083e+00
1.00210348e+00
1.00210380e+00
1.00210238e+00
9.99043600e-01
9.99041743e-01
9.99041570e-01
9.99043113e-01
9.99046398e-01
9.99051584e-01
9.99058469e-01
9.99066891e-01
9.99077085e-01
9.99089005e-01
9.99102468e-01
9.99117535e-01
9.99134248e-01
9.99152520e-01
9.99172307e-01
9.99193623e-01
9.99216442e-01
9.99240717e-01
9.99266424e-01
9.99293536e-01
9.99322013e-01
9.99351808e-01
9.99382873e-01
9.99415148e-01
9.99448563e-01
9.99483034e-01
9.99518467e-01
9.99554754e-01
9.99591771e-01
9.99629378e-01
9.99667425e-01
9.99705741e-01
9.99744148e-01
9.99782453e-01
9.99820452e-01
9.99857936e-01
9.99894690e-01
9.99930496e-01
9.99965139e-01
9.99998407e-01
1.00003010e+00
1.00006002e+00
1.00008800e+00
1.00011387e+00
1.00013751e+00
1.00015879e+00
1.00017765e+00
1.00019401e+00
1.00020786e+00
1.00021919e+00
1.00022804e+00
1.00023449e+00
1.00023862e+00
1.00024057e+00
1.00024049e+00
1.00023855e+00
1.00023496e+00
1.00022995e+00
1.00022377e+00
1.00021666e+00
1.00020890e+00
1.00020078e+00
1.00019257e+00
1.00018458e+00
1.00017708e+00
1.00017037e+00
1.00016472e+00
1.00016042e+00
1.00015772e+00
1.00015687e+00
1.00015811e+00
1.00016165e+00
1.00016769e+00
1.00017640e+00
1.00018793e+00
1.00020241e+00
1.00021996e+00
1.00024063e+00
1.00026448e+00
1.00029154e+00
1.00032180e+00
1.00035522e+00
1.00039174e+00
1.00043127e+00
1.00047370e+00
1.00051887e+00
1.00056663e+00
1.00061678e+00
1.00066911e+00
1.00072338e+00
1.00077934e+00
1.00083674e+00
1.00089530e+00
1.00095473e+00
1.00101474e+00
1.00107505e+00
1.00113536e+00
1.00119540e+00
1.00125488e+00
1.00131354e+00
1.00137113e+00
1.00142741e+00
1.00148216e+00
1.00153519e+00
1.00158631e+00
1.00163538e+00
1.00168225e+00
1.00172683e+00
1.00176902e+00
1.00180876e+00
1.00184599e+00
1.00188069e+00
1.00191287e+00
1.00194250e+00
1.00196960e+00
1.00199426e+00
1.00201647e+00
1.00203623e+00
1.00205366e+00
1.00206890e+00
1.00208184e+00
1.00209249e+00
1.00210120e+00
1.00210785e+00
1.00211226e+00
1.00211467e+00
1.00211519e+00
1.00211394e+00
9.99023621e-01
9.99021788e-01
9.99021728e-01
9.99023425e-01
9.99026986e-01
9.99032400e-01
9.99039457e-01
9.99048257e-01
9.99058832e-01
9.99071014e-01
9.99084827e-01
9.99100319e-01
9.99117401e-01
9.99136027e-01
9.99156211e-01
9.99177924e-01
9.99201114e-01
9.99225759e-01
9.99251835e-01
9.99279303e-01
9.99308121e-01
9.99338245e-01
9.99369626e-01
9.99402200e-01
9.99435898e-01
9.99470639e-01
9.99506328e-01
9.99542857e-01
9.99580105e-01
9.99617936e-01
9.99656198e-01
9.99694727e-01
9.99733347e-01
9.99771868e-01
9.99810091e-01
9.99847810e-01
9.99884813e-01
9.99920888e-01
9.99955823e-01
9.99989409e-01
1.00002145e+00
1.00005175e+00
1.00008014e+00
1.00010646e+00
1.00013059e+00
1.00015240e+00
1.00017181e+00
1.00018878e+00
1.00020325e+00
1.00021525e+00
1.00022481e+00
1.00023197e+00
1.00023685e+00
1.00023956e+00
1.00024025e+00
1.00023910e+00
1.00023630e+00
1.00023209e+00
1.00022668e+00
1.00022035e+00
1.00021336e+00
1.00020598e+00
1.00019849e+00
1.00019119e+00
1.00018437e+00
1.00017830e+00
1.00017326e+00
1.00016954e+00
1.00016738e+00
1.00016705e+00
1.00016876e+00
1.00017274e+00
1.00017919e+00
1.00018828e+00
1.00020016e+00
1.00021496e+00
1.00023279e+00
1.00025373e+00
1.00027783e+00
1.00030510e+00
1.00033555e+00
1.00036914e+00
1.00040582e+00
1.00044549e+00
1.00048803e+00
1.00053331e+00
1.00058116e+00
1.00063138e+00
1.00068377e+00
1.00073809e+00
1.00079409e+00
1.00085151e+00
1.00091008e+00
1.00096951e+00
1.00102951e+00
1.00108980e+00
1.00115009e+00
1.00121009e+00
1.00126952e+00
1.00132812e+00
1.00138565e+00
1.00144185e+00
1.00149653e+00
1.00154946e+00
1.00160049e+00
1.00164946e+00
1.00169623e+00
1.00174070e+00
1.00178277e+00
1.00182238e+00
1.00185949e+00
1.00189407e+00
1.00192611e+00
1.00195563e+00
1.00198263e+00
1.00200713e+00
1.00202923e+00
1.00204895e+00
1.00206627e+00
1.00208134e+00
1.00209427e+00
1.00210496e+00
1.00211351e+00
1.00212010e+00
1.00212458e+00
1.00212697e+00
1.00212747e+00
1.00212616e+00
9.99002127e-01
9.99000332e-01
9.99000331e-01
9.99002273e-01
9.99006077e-01
9.99011639e-01
9.99019004e-01
9.99028187e-01
9.99039031e-01
9.99051544e-01
9.99065781e-01
9.99081648e-01
9.99099089e-01
9.99118124e-01
9.99138719e-01
9.99160817e-01
9.99184395e-01
9.99209433e-01
9.99235888e-01
9.99263719e-01
9.99292890e-01
9.99323356e-01
9.99355060e-01
9.99387943e-01
9.99421935e-01
9.99456955e-01
9.99492908e-01
9.99529689e-01
9.99567177e-01
9.99605240e-01
9.99643729e-01
9.99682483e-01
9.99721328e-01
9.99760079e-01
9.99798542e-01
9.99836513e-01
9.99873788e-01
9.99910155e-01
9.99945407e-01
9.99979340e-01
1.00001176e+00
1.00004247e+00
1.00007132e+00
1.00009813e+00
1.00012279e+00
1.00014518e+00
1.00016521e+00
1.00018282e+00
1.00019799e+00
1.00021072e+00
1.00022103e+00
1.00022899e+00
1.00023468e+00
1.00023823e+00
1.00023977e+00
1.00023948e+00
1.00023755e+00
1.00023420e+00
1.00022965e+00
1.00022417e+00
1.00021802e+00
1.00021146e+00
1.00020477e+00
1.00019825e+00
1.00019216e+00
1.00018681e+00
1.00018245e+00
1.00017937e+00
1.00017782e+00
1.00017806e+00
1.00018031e+00
1.00018479e+00
1.00019170e+00
1.00020122e+00
1.00021350e+00
1.00022866e+00
1.00024683e+00
1.00026807e+00
1.00029244e+00
1.00031996e+00
1.00035063e+00
1.00038443e+00
1.00042128e+00
1.00046110e+00
1.00050378e+00
1.00054918e+00
1.00059712e+00
1.00064743e+00
1.00069988e+00
1.00075425e+00
1.00081029e+00
1.00086773e+00
1.00092631e+00
1.00098573e+00
1.00104572e+00
1.00110598e+00
1.00116623e+00
1.00122617e+00
1.00128554e+00
1.00134407e+00
1.00140151e+00
1.00145763e+00
1.00151220e+00
1.00156503e+00
1.00161594e+00
1.00166478e+00
1.00171142e+00
1.00175575e+00
1.00179768e+00
1.00183715e+00
1.00187411e+00
1.00190855e+00
1.00194043e+00
1.00196979e+00
1.00199665e+00
1.00202103e+00
1.00204296e+00
1.00206254e+00
1.00207981e+00
1.00209475e+00
1.00210752e+00
1.00211821e+00
1.00212673e+00
1.00213317e+00
1.00213765e+00
1.00214010e+00
1.00214053e+00
1.00213917e+00
9.98979099e-01
9.98977435e-01
9.98977593e-01
9.98979698e-01
9.98983685e-01
9.98989522e-01
9.98997212e-01
9.99006661e-01
9.99017828e-01
9.99030749e-01
9.99045352e-01
9.99061575e-01
9.99079430e-01
9.99098882e-01
9.99119868e-01
9.99142366e-01
9.99166352e-01
9.99191783e-01
9.99218617e-01
9.99246821e-01
9.99276354e-01
9.99307163e-01
9.99339197e-01
9.99372395e-01
9.99406685e-01
9.99441988e-01
9.99478210e-01
9.99515247e-01
9.99552982e-01
9.99591284e-01
9.99630006e-01
9.99668993e-01
9.99708074e-01
9.99747068e-01
9.99785784e-01
9.99824025e-01
9.99861588e-01
9.99898268e-01
9.99933862e-01
9.99968169e-01
1.00000100e+00
1.00003216e+00
1.00006149e+00
1.00008884e+00
1.00011408e+00
1.00013709e+00
1.00015778e+00
1.00017611e+00
1.00019203e+00
1.00020555e+00
1.00021669e+00
1.00022550e+00
1.00023208e+00
1.00023653e+00
1.00023899e+00
1.00023964e+00
1.00023865e+00
1.00023624e+00
1.00023264e+00
1.00022809e+00
1.00022285e+00
1.00021719e+00
1.00021138e+00
1.00020570e+00
1.00020044e+00
1.00019587e+00
1.00019226e+00
1.00018990e+00
1.00018903e+00
1.00018990e+00
1.00019275e+00
1.00019779e+00
1.00020522e+00
1.00021522e+00
1.00022794e+00
1.00024352e+00
1.00026206e+00
1.00028364e+00
1.00030832e+00
1.00033612e+00
1.00036705e+00
1.00040107e+00
1.00043812e+00
1.00047811e+00
1.00052095e+00
1.00056647e+00
1.00061452e+00
1.00066492e+00
1.00071744e+00
1.00077186e+00
1.00082793e+00
1.00088538e+00
1.00094396e+00
1.00100337e+00
1.00106332e+00
1.00112354e+00
1.00118372e+00
1.00124360e+00
1.00130288e+00
1.00136132e+00
1.00141865e+00
1.00147465e+00
1.00152910e+00
1.00158179e+00
1.00163256e+00
1.00168125e+00
1.00172773e+00
1.00177190e+00
1.00181366e+00
1.00185295e+00
1.00188974e+00
1.00192399e+00
1.00195571e+00
1.00198488e+00
1.00201156e+00
1.00203578e+00
1.00205757e+00
1.00207697e+00
1.00209409e+00
1.00210896e+00
1.00212160e+00
1.00213215e+00
1.00214064e+00
1.00214704e+00
1.00215144e+00
1.00215386e+00
1.00215431e+00
1.00215301e+00
9.98954742e-01
9.98953215e-01
9.98953545e-01
9.98955805e-01
9.98960007e-01
9.98966135e-01
9.98974094e-01
9.98983835e-01
9.98995375e-01
9.99008657e-01
9.99023609e-01
9.99040235e-01
9.99058503e-01
9.99078345e-01
9.99099733e-01
9.99122645e-01
9.99147032e-01
9.99172851e-01
9.99200071e-01
9.99228651e-01
9.99258542e-01
9.99289696e-01
9.99322060e-01
9.99355572e-01
9.99390161e-01
9.99425746e-01
9.99462239e-01
9.99499534e-01
9.99537518e-01
9.99576061e-01
9.99615022e-01
9.99654247e-01
9.99693571e-01
9.99732816e-01
9.99771797e-01
9.99810321e-01
9.99848189e-01
9.99885202e-01
9.99921160e-01
9.99955866e-01
9.99989132e-01
1.00002078e+00
1.00005064e+00
1.00007856e+00
1.00010442e+00
1.00012809e+00
1.00014951e+00
1.00016860e+00
1.00018533e+00
1.00019969e+00
1.00021172e+00
1.00022146e+00
1.00022899e+00
1.00023442e+00
1.00023788e+00
1.00023954e+00
1.00023957e+00
1.00023819e+00
1.00023560e+00
1.00023207e+00
1.00022782e+00
1.00022314e+00
1.00021828e+00
1.00021353e+00
1.00020917e+00
1.00020546e+00
1.00020268e+00
1.00020110e+00
1.00020098e+00
1.00020255e+00
1.00020607e+00
1.00021173e+00
1.00021974e+00
1.00023028e+00
1.00024349e+00
1.00025953e+00
1.00027849e+00
1.00030045e+00
1.00032548e+00
1.00035360e+00
1.00038480e+00
1.00041907e+00
1.00045634e+00
1.00049653e+00
1.00053952e+00
1.00058519e+00
1.00063335e+00
1.00068383e+00
1.00073642e+00
1.00079088e+00
1.00084698e+00
1.00090444e+00
1.00096300e+00
1.00102237e+00
1.00108228e+00
1.00114243e+00
1.00120253e+00
1.00126231e+00
1.00132148e+00
1.00137980e+00
1.00143700e+00
1.00149285e+00
1.00154714e+00
1.00159967e+00
1.00165027e+00
1.00169878e+00
1.00174507e+00
1.00178904e+00
1.00183060e+00
1.00186970e+00
1.00190628e+00
1.00194032e+00
1.00197183e+00
1.00200081e+00
1.00202728e+00
1.00205130e+00
1.00207292e+00
1.00209216e+00
1.00210909e+00
1.00212381e+00
1.00213636e+00
1.00214677e+00
1.00215515e+00
1.00216153e+00
1.00216587e+00
1.00216824e+00
1.00216872e+00
1.00216748e+00
9.98929202e-01
9.98927790e-01
9.98928270e-01
9.98930732e-01
9.98935171e-01
9.98941539e-01
9.98949772e-01
9.98959852e-01
9.98971732e-01
9.98985347e-01
9.99000683e-01
9.99017709e-01
9.99036358e-01
9.99056596e-01
9.99078397e-01
9.99101708e-01
9.99126486e-01
9.99152696e-01
9.99180298e-01
9.99209244e-01
9.99239489e-01
9.99270984e-01
9.99303673e-01
9.99337494e-01
9.99372376e-01
9.99408242e-01
9.99445001e-01
9.99482552e-01
9.99520782e-01
9.99559567e-01
9.99598767e-01
9.99638234e-01
9.99677805e-01
9.99717308e-01
9.99756563e-01
9.99795381e-01
9.99833569e-01
9.99870931e-01
9.99907273e-01
9.99942403e-01
9.99976135e-01
1.00000829e+00
1.00003871e+00
1.00006725e+00
1.00009377e+00
1.00011816e+00
1.00014034e+00
1.00016024e+00
1.00017784e+00
1.00019312e+00
1.00020610e+00
1.00021682e+00
1.00022537e+00
1.00023185e+00
1.00023639e+00
1.00023913e+00
1.00024027e+00
1.00023998e+00
1.00023850e+00
1.00023606e+00
1.00023289e+00
1.00022927e+00
1.00022545e+00
1.00022171e+00
1.00021832e+00
1.00021555e+00
1.00021367e+00
1.00021295e+00
1.00021365e+00
1.00021600e+00
1.00022024e+00
1.00022659e+00
1.00023524e+00
1.00024638e+00
1.00026015e+00
1.00027669e+00
1.00029611e+00
1.00031850e+00
1.00034391e+00
1.00037238e+00
1.00040389e+00
1.00043843e+00
1.00047594e+00
1.00051633e+00
1.00055951e+00
1.00060531e+00
1.00065359e+00
1.00070416e+00
1.00075681e+00
1.00081131e+00
1.00086741e+00
1.00092486e+00
1.00098339e+00
1.00104271e+00
1.00110254e+00
1.00116259e+00
1.00122259e+00
1.00128224e+00
1.00134127e+00
1.00139943e+00
1.00145647e+00
1.00151214e+00
1.00156624e+00
1.00161857e+00
1.00166896e+00
1.00171726e+00
1.00176333e+00
1.00180707e+00
1.00184840e+00
1.00188726e+00
1.00192360e+00
1.00195741e+00
1.00198868e+00
1.00201743e+00
1.00204369e+00
1.00206748e+00
1.00208888e+00
1.00210794e+00
1.00212470e+00
1.00213924e+00
1.00215164e+00
1.00216195e+00
1.00217021e+00
1.00217650e+00
1.00218081e+00
1.00218317e+00
1.00218365e+00
1.00218245e+00
9.98902564e-01
9.98901288e-01
9.98901927e-01
9.98904590e-01
9.98909252e-01
9.98915865e-01
9.98924391e-01
9.98934786e-01
9.98946981e-01
9.98960951e-01
9.98976666e-01
9.98994059e-01
9.99013089e-01
9.99033727e-01
9.99055919e-01
9.99079615e-01
9.99104781e-01
9.99131373e-01
9.99159342e-01
9.99188644e-01
9.99219234e-01
9.99251059e-01
9.99284062e-01
9.99318182e-01
9.99353350e-01
9.99389487e-01
9.99426505e-01
9.99464305e-01
9.99502777e-01
9.99541799e-01
9.99581236e-01
9.99620944e-01
9.99660764e-01
9.99700529e-01
9.99740064e-01
9.99779185e-01
9.99817704e-01
9.99855432e-01
9.99892176e-01
9.99927751e-01
9.99961974e-01
9.99994673e-01
1.00002569e+00
1.00005487e+00
1.00008209e+00
1.00010724e+00
1.00013024e+00
1.00015101e+00
1.00016953e+00
1.00018577e+00
1.00019977e+00
1.00021155e+00
1.00022119e+00
1.00022879e+00
1.00023448e+00
1.00023839e+00
1.00024069e+00
1.00024159e+00
1.00024130e+00
1.00024002e+00
1.00023802e+00
1.00023554e+00
1.00023284e+00
1.00023019e+00
1.00022786e+00