# vtk DataFile Version 2.0
LBM Flow Field - Timestep 2750
ASCII
DATASET STRUCTURED_POINTS
DIMENSIONS 128 128 1
ORIGIN 0.0 0.0 0.0
SPACING 1.0 1.0 1.0
POINT_DATA 16384
SCALARS density double 1
LOOKUP_TABLE default
1.00065435e+00
1.00064427e+00
1.00063245e+00
1.00062847e+00
1.00062274e+00
1.00061446e+00
1.00060586e+00
1.00059697e+00
1.00058701e+00
1.00057624e+00
1.00056501e+00
1.00055331e+00
1.00054115e+00
1.00052869e+00
1.00051604e+00
1.00050328e+00
1.00049049e+00
1.00047778e+00
1.00046524e+00
1.00045295e+00
1.00044100e+00
1.00042946e+00
1.00041842e+00
1.00040794e+00
1.00039807e+00
1.00038889e+00
1.00038042e+00
1.00037273e+00
1.00036583e+00
1.00035976e+00
1.00035453e+00
1.00035016e+00
1.00034664e+00
1.00034399e+00
1.00034217e+00
1.00034119e+00
1.00034102e+00
1.00034162e+00
1.00034297e+00
1.00034502e+00
1.00034774e+00
1.00035108e+00
1.00035498e+00
1.00035940e+00
1.00036429e+00
1.00036958e+00
1.00037523e+00
1.00038117e+00
1.00038735e+00
1.00039371e+00
1.00040021e+00
1.00040678e+00
1.00041337e+00
1.00041995e+00
1.00042646e+00
1.00043287e+00
1.00043913e+00
1.00044522e+00
1.00045111e+00
1.00045677e+00
1.00046218e+00
1.00046733e+00
1.00047222e+00
1.00047683e+00
1.00048118e+00
1.00048526e+00
1.00048910e+00
1.00049270e+00
1.00049609e+00
1.00049930e+00
1.00050234e+00
1.00050525e+00
1.00050807e+00
1.00051082e+00
1.00051353e+00
1.00051624e+00
1.00051897e+00
1.00052175e+00
1.00052460e+00
1.00052753e+00
1.00053055e+00
1.00053367e+00
1.00053686e+00
1.00054012e+00
1.00054343e+00
1.00054674e+00
1.00055001e+00
1.00055320e+00
1.00055624e+00
1.00055906e+00
1.00056160e+00
1.00056376e+00
1.00056548e+00
1.00056667e+00
1.00056724e+00
1.00056712e+00
1.00056624e+00
1.00056452e+00
1.00056190e+00
1.00055835e+00
1.00055381e+00
1.00054826e+00
1.00054170e+00
1.00053413e+00
1.00052557e+00
1.00051605e+00
1.00050563e+00
1.00049437e+00
1.00048235e+00
1.00046967e+00
1.00045643e+00
1.00044274e+00
1.00042873e+00
1.00041453e+00
1.00040027e+00
1.00038607e+00
1.00037207e+00
1.00035850e+00
1.00034539e+00
1.00033271e+00
1.00032094e+00
1.00031046e+00
1.00030019e+00
1.00029019e+00
1.00028355e+00
1.00027906e+00
1.00026362e+00
1.00025033e+00
1.00064340e+00
1.00063900e+00
1.00063041e+00
1.00062533e+00
1.00061893e+00
1.00061143e+00
1.00060303e+00
1.00059404e+00
1.00058423e+00
1.00057373e+00
1.00056264e+00
1.00055106e+00
1.00053907e+00
1.00052677e+00
1.00051426e+00
1.00050163e+00
1.00048897e+00
1.00047639e+00
1.00046396e+00
1.00045177e+00
1.00043992e+00
1.00042847e+00
1.00041751e+00
1.00040709e+00
1.00039729e+00
1.00038815e+00
1.00037973e+00
1.00037207e+00
1.00036519e+00
1.00035913e+00
1.00035391e+00
1.00034954e+00
1.00034602e+00
1.00034336e+00
1.00034153e+00
1.00034053e+00
1.00034034e+00
1.00034092e+00
1.00034225e+00
1.00034428e+00
1.00034698e+00
1.00035031e+00
1.00035420e+00
1.00035862e+00
1.00036350e+00
1.00036880e+00
1.00037445e+00
1.00038040e+00
1.00038660e+00
1.00039298e+00
1.00039950e+00
1.00040610e+00
1.00041273e+00
1.00041934e+00
1.00042589e+00
1.00043233e+00
1.00043864e+00
1.00044477e+00
1.00045070e+00
1.00045640e+00
1.00046186e+00
1.00046706e+00
1.00047199e+00
1.00047665e+00
1.00048104e+00
1.00048517e+00
1.00048905e+00
1.00049269e+00
1.00049613e+00
1.00049937e+00
1.00050246e+00
1.00050542e+00
1.00050827e+00
1.00051106e+00
1.00051381e+00
1.00051656e+00
1.00051933e+00
1.00052214e+00
1.00052502e+00
1.00052798e+00
1.00053102e+00
1.00053416e+00
1.00053737e+00
1.00054064e+00
1.00054395e+00
1.00054726e+00
1.00055054e+00
1.00055372e+00
1.00055675e+00
1.00055955e+00
1.00056207e+00
1.00056422e+00
1.00056592e+00
1.00056709e+00
1.00056766e+00
1.00056753e+00
1.00056665e+00
1.00056493e+00
1.00056234e+00
1.00055881e+00
1.00055431e+00
1.00054881e+00
1.00054232e+00
1.00053483e+00
1.00052636e+00
1.00051695e+00
1.00050665e+00
1.00049553e+00
1.00048366e+00
1.00047115e+00
1.00045808e+00
1.00044458e+00
1.00043077e+00
1.00041677e+00
1.00040272e+00
1.00038875e+00
1.00037500e+00
1.00036161e+00
1.00034869e+00
1.00033638e+00
1.00032482e+00
1.00031420e+00
1.00030419e+00
1.00029524e+00
1.00028760e+00
1.00028153e+00
1.00027044e+00
1.00026485e+00
1.00063033e+00
1.00062927e+00
1.00062814e+00
1.00062108e+00
1.00061354e+00
1.00060707e+00
1.00059917e+00
1.00058997e+00
1.00058027e+00
1.00057005e+00
1.00055912e+00
1.00054765e+00
1.00053583e+00
1.00052369e+00
1.00051132e+00
1.00049882e+00
1.00048630e+00
1.00047385e+00
1.00046154e+00
1.00044947e+00
1.00043772e+00
1.00042637e+00
1.00041550e+00
1.00040517e+00
1.00039544e+00
1.00038637e+00
1.00037801e+00
1.00037039e+00
1.00036356e+00
1.00035754e+00
1.00035234e+00
1.00034799e+00
1.00034449e+00
1.00034184e+00
1.00034003e+00
1.00033904e+00
1.00033885e+00
1.00033944e+00
1.00034078e+00
1.00034283e+00
1.00034555e+00
1.00034890e+00
1.00035282e+00
1.00035726e+00
1.00036218e+00
1.00036752e+00
1.00037321e+00
1.00037922e+00
1.00038547e+00
1.00039192e+00
1.00039850e+00
1.00040517e+00
1.00041187e+00
1.00041856e+00
1.00042518e+00
1.00043171e+00
1.00043809e+00
1.00044430e+00
1.00045030e+00
1.00045608e+00
1.00046161e+00
1.00046688e+00
1.00047188e+00
1.00047661e+00
1.00048106e+00
1.00048525e+00
1.00048919e+00
1.00049290e+00
1.00049639e+00
1.00049969e+00
1.00050283e+00
1.00050583e+00
1.00050874e+00
1.00051158e+00
1.00051438e+00
1.00051718e+00
1.00051999e+00
1.00052285e+00
1.00052577e+00
1.00052878e+00
1.00053186e+00
1.00053503e+00
1.00053828e+00
1.00054159e+00
1.00054493e+00
1.00054827e+00
1.00055157e+00
1.00055477e+00
1.00055782e+00
1.00056065e+00
1.00056319e+00
1.00056536e+00
1.00056708e+00
1.00056828e+00
1.00056887e+00
1.00056878e+00
1.00056793e+00
1.00056626e+00
1.00056372e+00
1.00056025e+00
1.00055583e+00
1.00055042e+00
1.00054402e+00
1.00053664e+00
1.00052829e+00
1.00051902e+00
1.00050887e+00
1.00049790e+00
1.00048621e+00
1.00047387e+00
1.00046100e+00
1.00044770e+00
1.00043410e+00
1.00042031e+00
1.00040647e+00
1.00039275e+00
1.00037924e+00
1.00036602e+00
1.00035332e+00
1.00034141e+00
1.00033001e+00
1.00031909e+00
1.00030978e+00
1.00030223e+00
1.00029298e+00
1.00028414e+00
1.00028315e+00
1.00028207e+00
1.00062511e+00
1.00062321e+00
1.00062011e+00
1.00061443e+00
1.00060870e+00
1.00060171e+00
1.00059356e+00
1.00058481e+00
1.00057537e+00
1.00056517e+00
1.00055437e+00
1.00054312e+00
1.00053144e+00
1.00051943e+00
1.00050721e+00
1.00049487e+00
1.00048249e+00
1.00047016e+00
1.00045799e+00
1.00044605e+00
1.00043442e+00
1.00042319e+00
1.00041242e+00
1.00040219e+00
1.00039256e+00
1.00038358e+00
1.00037530e+00
1.00036776e+00
1.00036100e+00
1.00035504e+00
1.00034991e+00
1.00034561e+00
1.00034216e+00
1.00033956e+00
1.00033779e+00
1.00033685e+00
1.00033671e+00
1.00033735e+00
1.00033874e+00
1.00034084e+00
1.00034362e+00
1.00034702e+00
1.00035100e+00
1.00035551e+00
1.00036050e+00
1.00036592e+00
1.00037170e+00
1.00037778e+00
1.00038413e+00
1.00039066e+00
1.00039734e+00
1.00040411e+00
1.00041091e+00
1.00041770e+00
1.00042443e+00
1.00043106e+00
1.00043754e+00
1.00044385e+00
1.00044995e+00
1.00045582e+00
1.00046145e+00
1.00046680e+00
1.00047189e+00
1.00047670e+00
1.00048124e+00
1.00048550e+00
1.00048952e+00
1.00049330e+00
1.00049686e+00
1.00050023e+00
1.00050343e+00
1.00050651e+00
1.00050948e+00
1.00051238e+00
1.00051524e+00
1.00051809e+00
1.00052097e+00
1.00052389e+00
1.00052687e+00
1.00052993e+00
1.00053307e+00
1.00053629e+00
1.00053959e+00
1.00054295e+00
1.00054634e+00
1.00054973e+00
1.00055307e+00
1.00055632e+00
1.00055942e+00
1.00056229e+00
1.00056488e+00
1.00056709e+00
1.00056886e+00
1.00057011e+00
1.00057076e+00
1.00057073e+00
1.00056995e+00
1.00056836e+00
1.00056590e+00
1.00056253e+00
1.00055821e+00
1.00055292e+00
1.00054665e+00
1.00053940e+00
1.00053121e+00
1.00052210e+00
1.00051212e+00
1.00050134e+00
1.00048984e+00
1.00047771e+00
1.00046506e+00
1.00045198e+00
1.00043860e+00
1.00042505e+00
1.00041146e+00
1.00039794e+00
1.00038466e+00
1.00037175e+00
1.00035927e+00
1.00034740e+00
1.00033638e+00
1.00032610e+00
1.00031645e+00
1.00030818e+00
1.00030138e+00
1.00029443e+00
1.00029075e+00
1.00028849e+00
1.00061855e+00
1.00061586e+00
1.00061158e+00
1.00060771e+00
1.00060233e+00
1.00059479e+00
1.00058697e+00
1.00057862e+00
1.00056923e+00
1.00055910e+00
1.00054852e+00
1.00053744e+00
1.00052589e+00
1.00051404e+00
1.00050199e+00
1.00048980e+00
1.00047757e+00
1.00046540e+00
1.00045337e+00
1.00044158e+00
1.00043009e+00
1.00041900e+00
1.00040836e+00
1.00039826e+00
1.00038875e+00
1.00037988e+00
1.00037171e+00
1.00036427e+00
1.00035761e+00
1.00035175e+00
1.00034670e+00
1.00034250e+00
1.00033913e+00
1.00033661e+00
1.00033492e+00
1.00033406e+00
1.00033400e+00
1.00033472e+00
1.00033619e+00
1.00033837e+00
1.00034123e+00
1.00034473e+00
1.00034880e+00
1.00035342e+00
1.00035851e+00
1.00036403e+00
1.00036992e+00
1.00037612e+00
1.00038258e+00
1.00038924e+00
1.00039605e+00
1.00040294e+00
1.00040987e+00
1.00041678e+00
1.00042364e+00
1.00043039e+00
1.00043699e+00
1.00044342e+00
1.00044964e+00
1.00045563e+00
1.00046136e+00
1.00046683e+00
1.00047202e+00
1.00047693e+00
1.00048156e+00
1.00048592e+00
1.00049002e+00
1.00049389e+00
1.00049753e+00
1.00050098e+00
1.00050426e+00
1.00050741e+00
1.00051046e+00
1.00051343e+00
1.00051637e+00
1.00051930e+00
1.00052224e+00
1.00052523e+00
1.00052828e+00
1.00053141e+00
1.00053462e+00
1.00053791e+00
1.00054128e+00
1.00054470e+00
1.00054816e+00
1.00055161e+00
1.00055501e+00
1.00055833e+00
1.00056148e+00
1.00056442e+00
1.00056707e+00
1.00056935e+00
1.00057119e+00
1.00057251e+00
1.00057324e+00
1.00057329e+00
1.00057261e+00
1.00057112e+00
1.00056877e+00
1.00056552e+00
1.00056133e+00
1.00055618e+00
1.00055007e+00
1.00054300e+00
1.00053498e+00
1.00052607e+00
1.00051629e+00
1.00050573e+00
1.00049446e+00
1.00048257e+00
1.00047015e+00
1.00045732e+00
1.00044419e+00
1.00043090e+00
1.00041758e+00
1.00040432e+00
1.00039127e+00
1.00037864e+00
1.00036649e+00
1.00035474e+00
1.00034382e+00
1.00033413e+00
1.00032495e+00
1.00031592e+00
1.00030964e+00
1.00030516e+00
1.00029986e+00
1.00029654e+00
1.00060975e+00
1.00060761e+00
1.00060416e+00
1.00059970e+00
1.00059375e+00
1.00058710e+00
1.00057968e+00
1.00057110e+00
1.00056181e+00
1.00055201e+00
1.00054157e+00
1.00053059e+00
1.00051923e+00
1.00050757e+00
1.00049567e+00
1.00048365e+00
1.00047159e+00
1.00045959e+00
1.00044773e+00
1.00043610e+00
1.00042478e+00
1.00041384e+00
1.00040336e+00
1.00039341e+00
1.00038404e+00
1.00037532e+00
1.00036728e+00
1.00035998e+00
1.00035344e+00
1.00034770e+00
1.00034278e+00
1.00033868e+00
1.00033543e+00
1.00033302e+00
1.00033144e+00
1.00033068e+00
1.00033073e+00
1.00033157e+00
1.00033315e+00
1.00033545e+00
1.00033843e+00
1.00034204e+00
1.00034624e+00
1.00035098e+00
1.00035621e+00
1.00036187e+00
1.00036790e+00
1.00037424e+00
1.00038085e+00
1.00038766e+00
1.00039461e+00
1.00040165e+00
1.00040873e+00
1.00041580e+00
1.00042280e+00
1.00042970e+00
1.00043645e+00
1.00044302e+00
1.00044937e+00
1.00045549e+00
1.00046136e+00
1.00046694e+00
1.00047225e+00
1.00047727e+00
1.00048202e+00
1.00048648e+00
1.00049068e+00
1.00049464e+00
1.00049838e+00
1.00050192e+00
1.00050530e+00
1.00050853e+00
1.00051166e+00
1.00051472e+00
1.00051774e+00
1.00052075e+00
1.00052378e+00
1.00052685e+00
1.00052998e+00
1.00053319e+00
1.00053648e+00
1.00053985e+00
1.00054330e+00
1.00054680e+00
1.00055033e+00
1.00055386e+00
1.00055735e+00
1.00056074e+00
1.00056397e+00
1.00056699e+00
1.00056972e+00
1.00057209e+00
1.00057403e+00
1.00057544e+00
1.00057627e+00
1.00057644e+00
1.00057587e+00
1.00057451e+00
1.00057230e+00
1.00056920e+00
1.00056517e+00
1.00056020e+00
1.00055427e+00
1.00054740e+00
1.00053960e+00
1.00053090e+00
1.00052137e+00
1.00051105e+00
1.00050004e+00
1.00048841e+00
1.00047626e+00
1.00046371e+00
1.00045087e+00
1.00043785e+00
1.00042480e+00
1.00041185e+00
1.00039910e+00
1.00038665e+00
1.00037474e+00
1.00036350e+00
1.00035276e+00
1.00034278e+00
1.00033418e+00
1.00032641e+00
1.00031937e+00
1.00031412e+00
1.00030999e+00
1.00030747e+00
1.00060062e+00
1.00059839e+00
1.00059526e+00
1.00059044e+00
1.00058474e+00
1.00057847e+00
1.00057091e+00
1.00056244e+00
1.00055346e+00
1.00054379e+00
1.00053345e+00
1.00052266e+00
1.00051150e+00
1.00050000e+00
1.00048828e+00
1.00047645e+00
1.00046458e+00
1.00045276e+00
1.00044109e+00
1.00042964e+00
1.00041850e+00
1.00040775e+00
1.00039745e+00
1.00038767e+00
1.00037847e+00
1.00036991e+00
1.00036204e+00
1.00035489e+00
1.00034851e+00
1.00034292e+00
1.00033814e+00
1.00033419e+00
1.00033108e+00
1.00032881e+00
1.00032737e+00
1.00032675e+00
1.00032694e+00
1.00032791e+00
1.00032964e+00
1.00033208e+00
1.00033521e+00
1.00033897e+00
1.00034333e+00
1.00034822e+00
1.00035361e+00
1.00035943e+00
1.00036563e+00
1.00037215e+00
1.00037892e+00
1.00038591e+00
1.00039303e+00
1.00040025e+00
1.00040750e+00
1.00041474e+00
1.00042191e+00
1.00042898e+00
1.00043589e+00
1.00044262e+00
1.00044913e+00
1.00045540e+00
1.00046140e+00
1.00046713e+00
1.00047257e+00
1.00047772e+00
1.00048258e+00
1.00048717e+00
1.00049148e+00
1.00049555e+00
1.00049939e+00
1.00050303e+00
1.00050651e+00
1.00050984e+00
1.00051306e+00
1.00051622e+00
1.00051933e+00
1.00052243e+00
1.00052555e+00
1.00052871e+00
1.00053194e+00
1.00053524e+00
1.00053862e+00
1.00054208e+00
1.00054562e+00
1.00054921e+00
1.00055284e+00
1.00055646e+00
1.00056004e+00
1.00056353e+00
1.00056686e+00
1.00056998e+00
1.00057281e+00
1.00057529e+00
1.00057734e+00
1.00057887e+00
1.00057983e+00
1.00058013e+00
1.00057971e+00
1.00057850e+00
1.00057646e+00
1.00057353e+00
1.00056970e+00
1.00056493e+00
1.00055922e+00
1.00055258e+00
1.00054502e+00
1.00053658e+00
1.00052731e+00
1.00051728e+00
1.00050655e+00
1.00049522e+00
1.00048337e+00
1.00047112e+00
1.00045859e+00
1.00044589e+00
1.00043313e+00
1.00042046e+00
1.00040804e+00
1.00039591e+00
1.00038418e+00
1.00037318e+00
1.00036292e+00
1.00035313e+00
1.00034439e+00
1.00033719e+00
1.00033052e+00
1.00032483e+00
1.00032121e+00
1.00031863e+00
1.00059107e+00
1.00058847e+00
1.00058490e+00
1.00058039e+00
1.00057500e+00
1.00056845e+00
1.00056097e+00
1.00055290e+00
1.00054402e+00
1.00053438e+00
1.00052426e+00
1.00051368e+00
1.00050267e+00
1.00049135e+00
1.00047984e+00
1.00046821e+00
1.00045653e+00
1.00044492e+00
1.00043345e+00
1.00042221e+00
1.00041127e+00
1.00040072e+00
1.00039062e+00
1.00038104e+00
1.00037204e+00
1.00036367e+00
1.00035598e+00
1.00034902e+00
1.00034282e+00
1.00033741e+00
1.00033281e+00
1.00032903e+00
1.00032609e+00
1.00032399e+00
1.00032272e+00
1.00032227e+00
1.00032263e+00
1.00032377e+00
1.00032567e+00
1.00032829e+00
1.00033159e+00
1.00033553e+00
1.00034007e+00
1.00034515e+00
1.00035072e+00
1.00035673e+00
1.00036312e+00
1.00036984e+00
1.00037681e+00
1.00038399e+00
1.00039132e+00
1.00039873e+00
1.00040618e+00
1.00041361e+00
1.00042097e+00
1.00042822e+00
1.00043532e+00
1.00044222e+00
1.00044890e+00
1.00045534e+00
1.00046150e+00
1.00046738e+00
1.00047296e+00
1.00047825e+00
1.00048325e+00
1.00048796e+00
1.00049239e+00
1.00049658e+00
1.00050053e+00
1.00050429e+00
1.00050787e+00
1.00051130e+00
1.00051463e+00
1.00051789e+00
1.00052110e+00
1.00052430e+00
1.00052752e+00
1.00053079e+00
1.00053411e+00
1.00053751e+00
1.00054100e+00
1.00054457e+00
1.00054821e+00
1.00055191e+00
1.00055564e+00
1.00055937e+00
1.00056307e+00
1.00056666e+00
1.00057012e+00
1.00057335e+00
1.00057631e+00
1.00057892e+00
1.00058110e+00
1.00058278e+00
1.00058389e+00
1.00058435e+00
1.00058410e+00
1.00058308e+00
1.00058123e+00
1.00057851e+00
1.00057490e+00
1.00057037e+00
1.00056490e+00
1.00055852e+00
1.00055124e+00
1.00054309e+00
1.00053413e+00
1.00052440e+00
1.00051399e+00
1.00050298e+00
1.00049147e+00
1.00047955e+00
1.00046734e+00
1.00045498e+00
1.00044257e+00
1.00043021e+00
1.00041805e+00
1.00040629e+00
1.00039493e+00
1.00038403e+00
1.00037396e+00
1.00036478e+00
1.00035620e+00
1.00034866e+00
1.00034249e+00
1.00033728e+00
1.00033312e+00
1.00033012e+00
1.00058016e+00
1.00057743e+00
1.00057377e+00
1.00056938e+00
1.00056392e+00
1.00055740e+00
1.00055019e+00
1.00054219e+00
1.00053336e+00
1.00052395e+00
1.00051403e+00
1.00050360e+00
1.00049277e+00
1.00048167e+00
1.00047036e+00
1.00045893e+00
1.00044747e+00
1.00043608e+00
1.00042484e+00
1.00041382e+00
1.00040311e+00
1.00039278e+00
1.00038290e+00
1.00037354e+00
1.00036476e+00
1.00035661e+00
1.00034914e+00
1.00034240e+00
1.00033641e+00
1.00033120e+00
1.00032680e+00
1.00032323e+00
1.00032049e+00
1.00031859e+00
1.00031752e+00
1.00031727e+00
1.00031782e+00
1.00031916e+00
1.00032126e+00
1.00032408e+00
1.00032758e+00
1.00033173e+00
1.00033648e+00
1.00034177e+00
1.00034756e+00
1.00035379e+00
1.00036040e+00
1.00036733e+00
1.00037452e+00
1.00038192e+00
1.00038946e+00
1.00039710e+00
1.00040476e+00
1.00041240e+00
1.00041997e+00
1.00042742e+00
1.00043472e+00
1.00044181e+00
1.00044868e+00
1.00045529e+00
1.00046162e+00
1.00046767e+00
1.00047341e+00
1.00047885e+00
1.00048398e+00
1.00048883e+00
1.00049340e+00
1.00049771e+00
1.00050179e+00
1.00050566e+00
1.00050935e+00
1.00051290e+00
1.00051634e+00
1.00051971e+00
1.00052303e+00
1.00052634e+00
1.00052967e+00
1.00053305e+00
1.00053648e+00
1.00054000e+00
1.00054360e+00
1.00054728e+00
1.00055104e+00
1.00055486e+00
1.00055871e+00
1.00056257e+00
1.00056639e+00
1.00057012e+00
1.00057371e+00
1.00057708e+00
1.00058019e+00
1.00058295e+00
1.00058529e+00
1.00058714e+00
1.00058842e+00
1.00058907e+00
1.00058902e+00
1.00058820e+00
1.00058658e+00
1.00058410e+00
1.00058074e+00
1.00057647e+00
1.00057129e+00
1.00056520e+00
1.00055823e+00
1.00055040e+00
1.00054177e+00
1.00053238e+00
1.00052232e+00
1.00051167e+00
1.00050051e+00
1.00048896e+00
1.00047712e+00
1.00046510e+00
1.00045304e+00
1.00044106e+00
1.00042923e+00
1.00041772e+00
1.00040672e+00
1.00039620e+00
1.00038626e+00
1.00037725e+00
1.00036910e+00
1.00036167e+00
1.00035548e+00
1.00035049e+00
1.00034629e+00
1.00034320e+00
1.00056804e+00
1.00056533e+00
1.00056174e+00
1.00055721e+00
1.00055171e+00
1.00054543e+00
1.00053830e+00
1.00053031e+00
1.00052168e+00
1.00051249e+00
1.00050269e+00
1.00049243e+00
1.00048183e+00
1.00047094e+00
1.00045984e+00
1.00044864e+00
1.00043742e+00
1.00042626e+00
1.00041526e+00
1.00040448e+00
1.00039402e+00
1.00038394e+00
1.00037431e+00
1.00036520e+00
1.00035667e+00
1.00034876e+00
1.00034153e+00
1.00033503e+00
1.00032928e+00
1.00032431e+00
1.00032014e+00
1.00031680e+00
1.00031429e+00
1.00031262e+00
1.00031177e+00
1.00031175e+00
1.00031253e+00
1.00031410e+00
1.00031643e+00
1.00031948e+00
1.00032321e+00
1.00032760e+00
1.00033258e+00
1.00033811e+00
1.00034414e+00
1.00035060e+00
1.00035745e+00
1.00036463e+00
1.00037206e+00
1.00037970e+00
1.00038749e+00
1.00039535e+00
1.00040325e+00
1.00041112e+00
1.00041892e+00
1.00042659e+00
1.00043409e+00
1.00044139e+00
1.00044846e+00
1.00045526e+00
1.00046177e+00
1.00046799e+00
1.00047390e+00
1.00047950e+00
1.00048479e+00
1.00048978e+00
1.00049448e+00
1.00049893e+00
1.00050314e+00
1.00050713e+00
1.00051095e+00
1.00051462e+00
1.00051817e+00
1.00052166e+00
1.00052510e+00
1.00052852e+00
1.00053197e+00
1.00053547e+00
1.00053902e+00
1.00054266e+00
1.00054638e+00
1.00055019e+00
1.00055408e+00
1.00055803e+00
1.00056203e+00
1.00056602e+00
1.00056999e+00
1.00057387e+00
1.00057760e+00
1.00058114e+00
1.00058441e+00
1.00058735e+00
1.00058987e+00
1.00059191e+00
1.00059340e+00
1.00059426e+00
1.00059443e+00
1.00059386e+00
1.00059249e+00
1.00059028e+00
1.00058720e+00
1.00058323e+00
1.00057836e+00
1.00057260e+00
1.00056597e+00
1.00055849e+00
1.00055022e+00
1.00054121e+00
1.00053153e+00
1.00052127e+00
1.00051050e+00
1.00049934e+00
1.00048790e+00
1.00047626e+00
1.00046456e+00
1.00045294e+00
1.00044151e+00
1.00043033e+00
1.00041957e+00
1.00040942e+00
1.00039984e+00
1.00039091e+00
1.00038295e+00
1.00037593e+00
1.00036975e+00
1.00036464e+00
1.00036061e+00
1.00035761e+00
1.00055493e+00
1.00055212e+00
1.00054850e+00
1.00054396e+00
1.00053856e+00
1.00053234e+00
1.00052524e+00
1.00051742e+00
1.00050898e+00
1.00049989e+00
1.00049027e+00
1.00048025e+00
1.00046985e+00
1.00045917e+00
1.00044831e+00
1.00043735e+00
1.00042638e+00
1.00041548e+00
1.00040474e+00
1.00039423e+00
1.00038403e+00
1.00037422e+00
1.00036487e+00
1.00035603e+00
1.00034777e+00
1.00034014e+00
1.00033318e+00
1.00032694e+00
1.00032146e+00
1.00031675e+00
1.00031286e+00
1.00030978e+00
1.00030753e+00
1.00030611e+00
1.00030552e+00
1.00030576e+00
1.00030680e+00
1.00030862e+00
1.00031120e+00
1.00031451e+00
1.00031850e+00
1.00032315e+00
1.00032839e+00
1.00033418e+00
1.00034047e+00
1.00034720e+00
1.00035431e+00
1.00036175e+00
1.00036945e+00
1.00037735e+00
1.00038539e+00
1.00039351e+00
1.00040165e+00
1.00040977e+00
1.00041780e+00
1.00042571e+00
1.00043344e+00
1.00044095e+00
1.00044823e+00
1.00045523e+00
1.00046194e+00
1.00046834e+00
1.00047442e+00
1.00048018e+00
1.00048563e+00
1.00049078e+00
1.00049563e+00
1.00050022e+00
1.00050456e+00
1.00050868e+00
1.00051263e+00
1.00051642e+00
1.00052010e+00
1.00052371e+00
1.00052727e+00
1.00053082e+00
1.00053440e+00
1.00053802e+00
1.00054170e+00
1.00054547e+00
1.00054933e+00
1.00055328e+00
1.00055731e+00
1.00056141e+00
1.00056555e+00
1.00056970e+00
1.00057382e+00
1.00057786e+00
1.00058178e+00
1.00058549e+00
1.00058895e+00
1.00059208e+00
1.00059481e+00
1.00059706e+00
1.00059877e+00
1.00059988e+00
1.00060030e+00
1.00060000e+00
1.00059891e+00
1.00059700e+00
1.00059423e+00
1.00059059e+00
1.00058607e+00
1.00058067e+00
1.00057441e+00
1.00056732e+00
1.00055945e+00
1.00055084e+00
1.00054158e+00
1.00053173e+00
1.00052139e+00
1.00051065e+00
1.00049961e+00
1.00048840e+00
1.00047712e+00
1.00046586e+00
1.00045480e+00
1.00044402e+00
1.00043359e+00
1.00042368e+00
1.00041444e+00
1.00040583e+00
1.00039799e+00
1.00039113e+00
1.00038515e+00
1.00038011e+00
1.00037612e+00
1.00037306e+00
1.00054072e+00
1.00053783e+00
1.00053415e+00
1.00052967e+00
1.00052433e+00
1.00051812e+00
1.00051114e+00
1.00050350e+00
1.00049517e+00
1.00048624e+00
1.00047685e+00
1.00046702e+00
1.00045683e+00
1.00044639e+00
1.00043579e+00
1.00042508e+00
1.00041438e+00
1.00040376e+00
1.00039330e+00
1.00038308e+00
1.00037317e+00
1.00036366e+00
1.00035460e+00
1.00034606e+00
1.00033810e+00
1.00033077e+00
1.00032411e+00
1.00031817e+00
1.00031298e+00
1.00030857e+00
1.00030497e+00
1.00030218e+00
1.00030022e+00
1.00029909e+00
1.00029879e+00
1.00029931e+00
1.00030063e+00
1.00030274e+00
1.00030561e+00
1.00030920e+00
1.00031348e+00
1.00031840e+00
1.00032393e+00
1.00033001e+00
1.00033658e+00
1.00034360e+00
1.00035099e+00
1.00035871e+00
1.00036669e+00
1.00037487e+00
1.00038318e+00
1.00039157e+00
1.00039998e+00
1.00040835e+00
1.00041664e+00
1.00042478e+00
1.00043275e+00
1.00044050e+00
1.00044799e+00
1.00045520e+00
1.00046211e+00
1.00046870e+00
1.00047496e+00
1.00048090e+00
1.00048651e+00
1.00049181e+00
1.00049682e+00
1.00050155e+00
1.00050603e+00
1.00051029e+00
1.00051437e+00
1.00051830e+00
1.00052211e+00
1.00052584e+00
1.00052953e+00
1.00053322e+00
1.00053692e+00
1.00054068e+00
1.00054450e+00
1.00054841e+00
1.00055241e+00
1.00055651e+00
1.00056069e+00
1.00056494e+00
1.00056925e+00
1.00057357e+00
1.00057787e+00
1.00058209e+00
1.00058619e+00
1.00059011e+00
1.00059377e+00
1.00059711e+00
1.00060007e+00
1.00060257e+00
1.00060453e+00
1.00060590e+00
1.00060661e+00
1.00060660e+00
1.00060583e+00
1.00060424e+00
1.00060182e+00
1.00059854e+00
1.00059440e+00
1.00058939e+00
1.00058354e+00
1.00057687e+00
1.00056942e+00
1.00056126e+00
1.00055244e+00
1.00054304e+00
1.00053315e+00
1.00052287e+00
1.00051228e+00
1.00050150e+00
1.00049065e+00
1.00047982e+00
1.00046913e+00
1.00045873e+00
1.00044870e+00
1.00043910e+00
1.00043009e+00
1.00042181e+00
1.00041423e+00
1.00040746e+00
1.00040165e+00
1.00039677e+00
1.00039276e+00
1.00038966e+00
1.00052536e+00
1.00052244e+00
1.00051876e+00
1.00051429e+00
1.00050898e+00
1.00050286e+00
1.00049602e+00
1.00048848e+00
1.00048030e+00
1.00047158e+00
1.00046238e+00
1.00045276e+00
1.00044281e+00
1.00043264e+00
1.00042229e+00
1.00041186e+00
1.00040144e+00
1.00039112e+00
1.00038096e+00
1.00037105e+00
1.00036147e+00
1.00035227e+00
1.00034354e+00
1.00033533e+00
1.00032769e+00
1.00032069e+00
1.00031436e+00
1.00030875e+00
1.00030388e+00
1.00029980e+00
1.00029651e+00
1.00029404e+00
1.00029240e+00
1.00029159e+00
1.00029160e+00
1.00029244e+00
1.00029407e+00
1.00029649e+00
1.00029967e+00
1.00030357e+00
1.00030816e+00
1.00031339e+00
1.00031923e+00
1.00032561e+00
1.00033249e+00
1.00033981e+00
1.00034751e+00
1.00035553e+00
1.00036380e+00
1.00037227e+00
1.00038087e+00
1.00038954e+00
1.00039823e+00
1.00040687e+00
1.00041542e+00
1.00042382e+00
1.00043203e+00
1.00044001e+00
1.00044773e+00
1.00045516e+00
1.00046227e+00
1.00046906e+00
1.00047551e+00
1.00048162e+00
1.00048741e+00
1.00049287e+00
1.00049803e+00
1.00050291e+00
1.00050754e+00
1.00051194e+00
1.00051615e+00
1.00052022e+00
1.00052416e+00
1.00052803e+00
1.00053186e+00
1.00053567e+00
1.00053952e+00
1.00054341e+00
1.00054738e+00
1.00055144e+00
1.00055559e+00
1.00055984e+00
1.00056419e+00
1.00056862e+00
1.00057309e+00
1.00057760e+00
1.00058208e+00
1.00058651e+00
1.00059081e+00
1.00059494e+00
1.00059883e+00
1.00060242e+00
1.00060562e+00
1.00060838e+00
1.00061062e+00
1.00061228e+00
1.00061330e+00
1.00061362e+00
1.00061318e+00
1.00061196e+00
1.00060991e+00
1.00060703e+00
1.00060329e+00
1.00059871e+00
1.00059329e+00
1.00058707e+00
1.00058009e+00
1.00057240e+00
1.00056406e+00
1.00055514e+00
1.00054574e+00
1.00053593e+00
1.00052582e+00
1.00051551e+00
1.00050511e+00
1.00049473e+00
1.00048448e+00
1.00047444e+00
1.00046478e+00
1.00045557e+00
1.00044686e+00
1.00043882e+00
1.00043151e+00
1.00042496e+00
1.00041927e+00
1.00041449e+00
1.00041055e+00
1.00040749e+00
1.00050891e+00
1.00050597e+00
1.00050230e+00
1.00049784e+00
1.00049257e+00
1.00048657e+00
1.00047983e+00
1.00047242e+00
1.00046443e+00
1.00045591e+00
1.00044690e+00
1.00043752e+00
1.00042783e+00
1.00041791e+00
1.00040784e+00
1.00039771e+00
1.00038760e+00
1.00037759e+00
1.00036776e+00
1.00035819e+00
1.00034894e+00
1.00034010e+00
1.00033171e+00
1.00032385e+00
1.00031657e+00
1.00030992e+00
1.00030395e+00
1.00029869e+00
1.00029418e+00
1.00029045e+00
1.00028752e+00
1.00028540e+00
1.00028410e+00
1.00028364e+00
1.00028399e+00
1.00028517e+00
1.00028714e+00
1.00028990e+00
1.00029341e+00
1.00029765e+00
1.00030257e+00
1.00030813e+00
1.00031430e+00
1.00032101e+00
1.00032821e+00
1.00033586e+00
1.00034387e+00
1.00035221e+00
1.00036079e+00
1.00036957e+00
1.00037847e+00
1.00038744e+00
1.00039641e+00
1.00040533e+00
1.00041415e+00
1.00042281e+00
1.00043127e+00
1.00043950e+00
1.00044745e+00
1.00045509e+00
1.00046242e+00
1.00046941e+00
1.00047605e+00
1.00048235e+00
1.00048831e+00
1.00049394e+00
1.00049926e+00
1.00050429e+00
1.00050906e+00
1.00051361e+00
1.00051796e+00
1.00052216e+00
1.00052625e+00
1.00053025e+00
1.00053422e+00
1.00053818e+00
1.00054216e+00
1.00054620e+00
1.00055032e+00
1.00055453e+00
1.00055885e+00
1.00056327e+00
1.00056779e+00
1.00057240e+00
1.00057706e+00
1.00058176e+00
1.00058645e+00
1.00059109e+00
1.00059562e+00
1.00059998e+00
1.00060412e+00
1.00060796e+00
1.00061144e+00
1.00061448e+00
1.00061703e+00
1.00061900e+00
1.00062035e+00
1.00062102e+00
1.00062096e+00
1.00062012e+00
1.00061848e+00
1.00061602e+00
1.00061272e+00
1.00060860e+00
1.00060365e+00
1.00059792e+00
1.00059144e+00
1.00058425e+00
1.00057642e+00
1.00056802e+00
1.00055913e+00
1.00054983e+00
1.00054022e+00
1.00053041e+00
1.00052049e+00
1.00051057e+00
1.00050077e+00
1.00049117e+00
1.00048187e+00
1.00047302e+00
1.00046468e+00
1.00045690e+00
1.00044983e+00
1.00044352e+00
1.00043799e+00
1.00043330e+00
1.00042946e+00
1.00042644e+00
1.00049141e+00
1.00048844e+00
1.00048477e+00
1.00048034e+00
1.00047515e+00
1.00046923e+00
1.00046261e+00
1.00045537e+00
1.00044756e+00
1.00043922e+00
1.00043045e+00
1.00042132e+00
1.00041189e+00
1.00040225e+00
1.00039248e+00
1.00038267e+00
1.00037289e+00
1.00036322e+00
1.00035374e+00
1.00034452e+00
1.00033564e+00
1.00032716e+00
1.00031915e+00
1.00031167e+00
1.00030478e+00
1.00029851e+00
1.00029292e+00
1.00028805e+00
1.00028392e+00
1.00028057e+00
1.00027802e+00
1.00027628e+00
1.00027536e+00
1.00027526e+00
1.00027599e+00
1.00027753e+00
1.00027987e+00
1.00028299e+00
1.00028687e+00
1.00029146e+00
1.00029673e+00
1.00030265e+00
1.00030917e+00
1.00031622e+00
1.00032377e+00
1.00033175e+00
1.00034010e+00
1.00034877e+00
1.00035768e+00
1.00036677e+00
1.00037598e+00
1.00038525e+00
1.00039452e+00
1.00040373e+00
1.00041283e+00
1.00042176e+00
1.00043048e+00
1.00043895e+00
1.00044713e+00
1.00045500e+00
1.00046254e+00
1.00046974e+00
1.00047658e+00
1.00048306e+00
1.00048919e+00
1.00049499e+00
1.00050047e+00
1.00050566e+00
1.00051058e+00
1.00051527e+00
1.00051977e+00
1.00052411e+00
1.00052834e+00
1.00053248e+00
1.00053659e+00
1.00054070e+00
1.00054483e+00
1.00054902e+00
1.00055330e+00
1.00055768e+00
1.00056216e+00
1.00056676e+00
1.00057146e+00
1.00057625e+00
1.00058112e+00
1.00058602e+00
1.00059093e+00
1.00059580e+00
1.00060057e+00
1.00060518e+00
1.00060958e+00
1.00061370e+00
1.00061747e+00
1.00062082e+00
1.00062369e+00
1.00062601e+00
1.00062772e+00
1.00062877e+00
1.00062910e+00
1.00062868e+00
1.00062748e+00
1.00062547e+00
1.00062264e+00
1.00061900e+00
1.00061456e+00
1.00060935e+00
1.00060339e+00
1.00059674e+00
1.00058945e+00
1.00058159e+00
1.00057324e+00
1.00056449e+00
1.00055541e+00
1.00054612e+00
1.00053671e+00
1.00052728e+00
1.00051794e+00
1.00050879e+00
1.00049992e+00
1.00049143e+00
1.00048344e+00
1.00047599e+00
1.00046917e+00
1.00046307e+00
1.00045773e+00
1.00045319e+00
1.00044943e+00
1.00044644e+00
1.00047286e+00
1.00046987e+00
1.00046621e+00
1.00046183e+00
1.00045671e+00
1.00045089e+00
1.00044441e+00
1.00043733e+00
1.00042970e+00
1.00042158e+00
1.00041306e+00
1.00040418e+00
1.00039503e+00
1.00038570e+00
1.00037625e+00
1.00036676e+00
1.00035733e+00
1.00034802e+00
1.00033891e+00
1.00033007e+00
1.00032158e+00
1.00031350e+00
1.00030590e+00
1.00029882e+00
1.00029234e+00
1.00028648e+00
1.00028130e+00
1.00027684e+00
1.00027313e+00
1.00027019e+00
1.00026804e+00
1.00026671e+00
1.00026619e+00
1.00026650e+00
1.00026763e+00
1.00026956e+00
1.00027229e+00
1.00027580e+00
1.00028005e+00
1.00028503e+00
1.00029068e+00
1.00029697e+00
1.00030385e+00
1.00031127e+00
1.00031918e+00
1.00032751e+00
1.00033621e+00
1.00034521e+00
1.00035446e+00
1.00036388e+00
1.00037341e+00
1.00038300e+00
1.00039257e+00
1.00040207e+00
1.00041145e+00
1.00042065e+00
1.00042963e+00
1.00043835e+00
1.00044678e+00
1.00045488e+00
1.00046263e+00
1.00047003e+00
1.00047707e+00
1.00048374e+00
1.00049005e+00