# vtk DataFile Version 2.0
LBM Flow Field - Timestep 2680
ASCII
DATASET STRUCTURED_POINTS
DIMENSIONS 128 128 1
ORIGIN 0.0 0.0 0.0
SPACING 1.0 1.0 1.0
POINT_DATA 16384
SCALARS density double 1
LOOKUP_TABLE default
1.00310983e+00
1.00310180e+00
1.00309255e+00
1.00309199e+00
1.00308998e+00
1.00308542e+00
1.00308095e+00
1.00307648e+00
1.00307099e+00
1.00306469e+00
1.00305785e+00
1.00305029e+00
1.00304184e+00
1.00303251e+00
1.00302224e+00
1.00301093e+00
1.00299850e+00
1.00298489e+00
1.00297002e+00
1.00295382e+00
1.00293621e+00
1.00291715e+00
1.00289654e+00
1.00287435e+00
1.00285051e+00
1.00282498e+00
1.00279770e+00
1.00276864e+00
1.00273776e+00
1.00270504e+00
1.00267046e+00
1.00263399e+00
1.00259563e+00
1.00255537e+00
1.00251323e+00
1.00246920e+00
1.00242331e+00
1.00237558e+00
1.00232604e+00
1.00227472e+00
1.00222167e+00
1.00216692e+00
1.00211053e+00
1.00205255e+00
1.00199305e+00
1.00193207e+00
1.00186968e+00
1.00180594e+00
1.00174092e+00
1.00167469e+00
1.00160730e+00
1.00153883e+00
1.00146932e+00
1.00139886e+00
1.00132748e+00
1.00125526e+00
1.00118224e+00
1.00110849e+00
1.00103405e+00
1.00095899e+00
1.00088334e+00
1.00080717e+00
1.00073052e+00
1.00065346e+00
1.00057603e+00
1.00049830e+00
1.00042033e+00
1.00034218e+00
1.00026392e+00
1.00018562e+00
1.00010736e+00
1.00002922e+00
9.99951284e-01
9.99873631e-01
9.99796352e-01
9.99719540e-01
9.99643286e-01
9.99567684e-01
9.99492827e-01
9.99418808e-01
9.99345717e-01
9.99273641e-01
9.99202664e-01
9.99132865e-01
9.99064318e-01
9.98997088e-01
9.98931234e-01
9.98866808e-01
9.98803851e-01
9.98742396e-01
9.98682465e-01
9.98624071e-01
9.98567217e-01
9.98511896e-01
9.98458091e-01
9.98405778e-01
9.98354925e-01
9.98305492e-01
9.98257433e-01
9.98210702e-01
9.98165246e-01
9.98121016e-01
9.98077960e-01
9.98036034e-01
9.97995196e-01
9.97955414e-01
9.97916662e-01
9.97878927e-01
9.97842208e-01
9.97806516e-01
9.97771877e-01
9.97738330e-01
9.97705927e-01
9.97674742e-01
9.97644854e-01
9.97616342e-01
9.97589316e-01
9.97563925e-01
9.97540244e-01
9.97518325e-01
9.97498472e-01
9.97480988e-01
9.97465446e-01
9.97451839e-01
9.97441955e-01
9.97435422e-01
9.97425791e-01
9.97418841e-01
1.00310046e+00
1.00309838e+00
1.00309239e+00
1.00309020e+00
1.00308744e+00
1.00308376e+00
1.00307946e+00
1.00307480e+00
1.00306946e+00
1.00306342e+00
1.00305665e+00
1.00304914e+00
1.00304080e+00
1.00303155e+00
1.00302133e+00
1.00301008e+00
1.00299770e+00
1.00298413e+00
1.00296929e+00
1.00295312e+00
1.00293554e+00
1.00291649e+00
1.00289590e+00
1.00287372e+00
1.00284989e+00
1.00282435e+00
1.00279707e+00
1.00276801e+00
1.00273713e+00
1.00270440e+00
1.00266981e+00
1.00263333e+00
1.00259496e+00
1.00255470e+00
1.00251255e+00
1.00246852e+00
1.00242263e+00
1.00237491e+00
1.00232537e+00
1.00227406e+00
1.00222102e+00
1.00216629e+00
1.00210993e+00
1.00205197e+00
1.00199250e+00
1.00193155e+00
1.00186920e+00
1.00180551e+00
1.00174053e+00
1.00167435e+00
1.00160701e+00
1.00153859e+00
1.00146915e+00
1.00139874e+00
1.00132742e+00
1.00125526e+00
1.00118231e+00
1.00110862e+00
1.00103425e+00
1.00095924e+00
1.00088366e+00
1.00080755e+00
1.00073096e+00
1.00065395e+00
1.00057658e+00
1.00049891e+00
1.00042099e+00
1.00034288e+00
1.00026467e+00
1.00018641e+00
1.00010819e+00
1.00003009e+00
9.99952176e-01
9.99874546e-01
9.99797288e-01
9.99720491e-01
9.99644248e-01
9.99568653e-01
9.99493797e-01
9.99419775e-01
9.99346675e-01
9.99274586e-01
9.99203592e-01
9.99133771e-01
9.99065196e-01
9.98997934e-01
9.98932044e-01
9.98867577e-01
9.98804575e-01
9.98743070e-01
9.98683086e-01
9.98624636e-01
9.98567722e-01
9.98512340e-01
9.98458473e-01
9.98406097e-01
9.98355181e-01
9.98305688e-01
9.98257572e-01
9.98210789e-01
9.98165287e-01
9.98121019e-01
9.98077935e-01
9.98035991e-01
9.97995149e-01
9.97955376e-01
9.97916649e-01
9.97878956e-01
9.97842296e-01
9.97806680e-01
9.97772136e-01
9.97738701e-01
9.97706432e-01
9.97675394e-01
9.97645665e-01
9.97617340e-01
9.97590522e-01
9.97565319e-01
9.97541842e-01
9.97520233e-01
9.97500645e-01
9.97483183e-01
9.97467861e-01
9.97454925e-01
9.97444759e-01
9.97437039e-01
9.97429366e-01
9.97426368e-01
1.00309060e+00
1.00309197e+00
1.00309383e+00
1.00308944e+00
1.00308516e+00
1.00308257e+00
1.00307883e+00
1.00307388e+00
1.00306862e+00
1.00306285e+00
1.00305619e+00
1.00304873e+00
1.00304049e+00
1.00303135e+00
1.00302120e+00
1.00301000e+00
1.00299769e+00
1.00298417e+00
1.00296937e+00
1.00295324e+00
1.00293569e+00
1.00291666e+00
1.00289609e+00
1.00287391e+00
1.00285008e+00
1.00282455e+00
1.00279726e+00
1.00276819e+00
1.00273730e+00
1.00270456e+00
1.00266995e+00
1.00263346e+00
1.00259507e+00
1.00255480e+00
1.00251263e+00
1.00246859e+00
1.00242269e+00
1.00237495e+00
1.00232541e+00
1.00227410e+00
1.00222106e+00
1.00216634e+00
1.00210998e+00
1.00205204e+00
1.00199258e+00
1.00193166e+00
1.00186934e+00
1.00180567e+00
1.00174074e+00
1.00167459e+00
1.00160729e+00
1.00153892e+00
1.00146952e+00
1.00139915e+00
1.00132789e+00
1.00125578e+00
1.00118288e+00
1.00110924e+00
1.00103491e+00
1.00095996e+00
1.00088442e+00
1.00080835e+00
1.00073181e+00
1.00065484e+00
1.00057751e+00
1.00049986e+00
1.00042197e+00
1.00034389e+00
1.00026569e+00
1.00018744e+00
1.00010923e+00
1.00003112e+00
9.99953206e-01
9.99875567e-01
9.99798293e-01
9.99721475e-01
9.99645207e-01
9.99569581e-01
9.99494690e-01
9.99420628e-01
9.99347485e-01
9.99275348e-01
9.99204301e-01
9.99134424e-01
9.99065791e-01
9.98998466e-01
9.98932510e-01
9.98867975e-01
9.98804901e-01
9.98743322e-01
9.98683261e-01
9.98624733e-01
9.98567740e-01
9.98512276e-01
9.98458329e-01
9.98405873e-01
9.98354879e-01
9.98305309e-01
9.98257122e-01
9.98210271e-01
9.98164709e-01
9.98120388e-01
9.98077260e-01
9.98035283e-01
9.97994420e-01
9.97954638e-01
9.97915916e-01
9.97878244e-01
9.97841619e-01
9.97806056e-01
9.97771580e-01
9.97738231e-01
9.97706064e-01
9.97675141e-01
9.97645541e-01
9.97617368e-01
9.97590715e-01
9.97565660e-01
9.97542364e-01
9.97521020e-01
9.97501593e-01
9.97484106e-01
9.97469199e-01
9.97456973e-01
9.97445875e-01
9.97436895e-01
9.97434356e-01
9.97433675e-01
1.00309171e+00
1.00309197e+00
1.00309123e+00
1.00308829e+00
1.00308583e+00
1.00308255e+00
1.00307845e+00
1.00307398e+00
1.00306893e+00
1.00306310e+00
1.00305654e+00
1.00304923e+00
1.00304105e+00
1.00303195e+00
1.00302188e+00
1.00301074e+00
1.00299847e+00
1.00298499e+00
1.00297023e+00
1.00295411e+00
1.00293658e+00
1.00291756e+00
1.00289700e+00
1.00287482e+00
1.00285099e+00
1.00282544e+00
1.00279815e+00
1.00276906e+00
1.00273815e+00
1.00270539e+00
1.00267076e+00
1.00263425e+00
1.00259585e+00
1.00255555e+00
1.00251337e+00
1.00246931e+00
1.00242340e+00
1.00237566e+00
1.00232611e+00
1.00227480e+00
1.00222176e+00
1.00216704e+00
1.00211069e+00
1.00205277e+00
1.00199333e+00
1.00193242e+00
1.00187012e+00
1.00180649e+00
1.00174158e+00
1.00167546e+00
1.00160820e+00
1.00153986e+00
1.00147049e+00
1.00140016e+00
1.00132893e+00
1.00125685e+00
1.00118398e+00
1.00111036e+00
1.00103607e+00
1.00096113e+00
1.00088561e+00
1.00080956e+00
1.00073302e+00
1.00065606e+00
1.00057872e+00
1.00050107e+00
1.00042317e+00
1.00034507e+00
1.00026686e+00
1.00018859e+00
1.00011034e+00
1.00003220e+00
9.99954251e-01
9.99876570e-01
9.99799250e-01
9.99722382e-01
9.99646060e-01
9.99570377e-01
9.99495426e-01
9.99421301e-01
9.99348091e-01
9.99275885e-01
9.99204766e-01
9.99134815e-01
9.99066103e-01
9.98998699e-01
9.98932661e-01
9.98868040e-01
9.98804879e-01
9.98743210e-01
9.98683058e-01
9.98624435e-01
9.98567346e-01
9.98511786e-01
9.98457741e-01
9.98405188e-01
9.98354097e-01
9.98304433e-01
9.98256154e-01
9.98209215e-01
9.98163570e-01
9.98119172e-01
9.98075976e-01
9.98033939e-01
9.97993027e-01
9.97953208e-01
9.97914462e-01
9.97876778e-01
9.97840157e-01
9.97804613e-01
9.97770171e-01
9.97736872e-01
9.97704767e-01
9.97673927e-01
9.97644426e-01
9.97616350e-01
9.97589811e-01
9.97564917e-01
9.97541760e-01
9.97520478e-01
9.97501253e-01
9.97484102e-01
9.97469044e-01
9.97456491e-01
9.97446554e-01
9.97438427e-01
9.97433924e-01
9.97432664e-01
1.00309370e+00
1.00309270e+00
1.00309037e+00
1.00308933e+00
1.00308716e+00
1.00308314e+00
1.00307928e+00
1.00307520e+00
1.00307013e+00
1.00306428e+00
1.00305785e+00
1.00305063e+00
1.00304249e+00
1.00303344e+00
1.00302341e+00
1.00301231e+00
1.00300006e+00
1.00298661e+00
1.00297186e+00
1.00295576e+00
1.00293822e+00
1.00291920e+00
1.00289863e+00
1.00287644e+00
1.00285258e+00
1.00282702e+00
1.00279970e+00
1.00277058e+00
1.00273965e+00
1.00270686e+00
1.00267220e+00
1.00263566e+00
1.00259723e+00
1.00255692e+00
1.00251471e+00
1.00247064e+00
1.00242471e+00
1.00237696e+00
1.00232741e+00
1.00227609e+00
1.00222306e+00
1.00216834e+00
1.00211201e+00
1.00205410e+00
1.00199467e+00
1.00193379e+00
1.00187151e+00
1.00180789e+00
1.00174301e+00
1.00167692e+00
1.00160968e+00
1.00154136e+00
1.00147201e+00
1.00140170e+00
1.00133049e+00
1.00125842e+00
1.00118556e+00
1.00111195e+00
1.00103765e+00
1.00096271e+00
1.00088718e+00
1.00081111e+00
1.00073456e+00
1.00065757e+00
1.00058020e+00
1.00050252e+00
1.00042457e+00
1.00034643e+00
1.00026816e+00
1.00018984e+00
1.00011153e+00
1.00003333e+00
9.99955308e-01
9.99877556e-01
9.99800162e-01
9.99723218e-01
9.99646817e-01
9.99571052e-01
9.99496018e-01
9.99421807e-01
9.99348510e-01
9.99276215e-01
9.99205006e-01
9.99134961e-01
9.99066155e-01
9.98998654e-01
9.98932517e-01
9.98867794e-01
9.98804529e-01
9.98742753e-01
9.98682491e-01
9.98623756e-01
9.98566553e-01
9.98510877e-01
9.98456714e-01
9.98404042e-01
9.98352832e-01
9.98303049e-01
9.98254652e-01
9.98207599e-01
9.98161844e-01
9.98117341e-01
9.98074047e-01
9.98031922e-01
9.97990929e-01
9.97951041e-01
9.97912239e-01
9.97874512e-01
9.97837862e-01
9.97802304e-01
9.97767865e-01
9.97734583e-01
9.97702510e-01
9.97671717e-01
9.97642282e-01
9.97614281e-01
9.97587817e-01
9.97563033e-01
9.97540013e-01
9.97518789e-01
9.97499610e-01
9.97482747e-01
9.97467885e-01
9.97454887e-01
9.97445089e-01
9.97438206e-01
9.97432764e-01
9.97430447e-01
1.00309509e+00
1.00309457e+00
1.00309310e+00
1.00309119e+00
1.00308824e+00
1.00308514e+00
1.00308163e+00
1.00307716e+00
1.00307209e+00
1.00306650e+00
1.00306012e+00
1.00305287e+00
1.00304479e+00
1.00303580e+00
1.00302579e+00
1.00301470e+00
1.00300247e+00
1.00298901e+00
1.00297426e+00
1.00295815e+00
1.00294061e+00
1.00292156e+00
1.00290096e+00
1.00287874e+00
1.00285486e+00
1.00282926e+00
1.00280190e+00
1.00277275e+00
1.00274177e+00
1.00270894e+00
1.00267425e+00
1.00263767e+00
1.00259921e+00
1.00255886e+00
1.00251664e+00
1.00247254e+00
1.00242660e+00
1.00237883e+00
1.00232927e+00
1.00227795e+00
1.00222491e+00
1.00217020e+00
1.00211387e+00
1.00205597e+00
1.00199656e+00
1.00193570e+00
1.00187343e+00
1.00180984e+00
1.00174497e+00
1.00167890e+00
1.00161168e+00
1.00154337e+00
1.00147403e+00
1.00140373e+00
1.00133252e+00
1.00126045e+00
1.00118758e+00
1.00111395e+00
1.00103963e+00
1.00096467e+00
1.00088910e+00
1.00081299e+00
1.00073639e+00
1.00065935e+00
1.00058192e+00
1.00050417e+00
1.00042616e+00
1.00034794e+00
1.00026959e+00
1.00019118e+00
1.00011279e+00
1.00003449e+00
9.99956375e-01
9.99878525e-01
9.99801031e-01
9.99723985e-01
9.99647480e-01
9.99571611e-01
9.99496470e-01
9.99422152e-01
9.99348747e-01
9.99276343e-01
9.99205023e-01
9.99134867e-01
9.99065948e-01
9.98998332e-01
9.98932078e-01
9.98867236e-01
9.98803849e-01
9.98741949e-01
9.98681559e-01
9.98622694e-01
9.98565358e-01
9.98509546e-01
9.98455244e-01
9.98402432e-01
9.98351081e-01
9.98301157e-01
9.98252620e-01
9.98205428e-01
9.98159538e-01
9.98114904e-01
9.98071486e-01
9.98029243e-01
9.97988143e-01
9.97948158e-01
9.97909270e-01
9.97871471e-01
9.97834764e-01
9.97799163e-01
9.97764694e-01
9.97731401e-01
9.97699334e-01
9.97668555e-01
9.97639148e-01
9.97611205e-01
9.97584807e-01
9.97560050e-01
9.97537099e-01
9.97516062e-01
9.97496925e-01
9.97479869e-01
9.97465245e-01
9.97452816e-01
9.97442519e-01
9.97435047e-01
9.97430070e-01
9.97427936e-01
1.00309801e+00
1.00309737e+00
1.00309627e+00
1.00309385e+00
1.00309107e+00
1.00308828e+00
1.00308450e+00
1.00308002e+00
1.00307517e+00
1.00306960e+00
1.00306317e+00
1.00305597e+00
1.00304795e+00
1.00303896e+00
1.00302895e+00
1.00301787e+00
1.00300563e+00
1.00299217e+00
1.00297740e+00
1.00296126e+00
1.00294369e+00
1.00292461e+00
1.00290397e+00
1.00288170e+00
1.00285777e+00
1.00283212e+00
1.00280471e+00
1.00277551e+00
1.00274449e+00
1.00271161e+00
1.00267687e+00
1.00264025e+00
1.00260175e+00
1.00256136e+00
1.00251910e+00
1.00247498e+00
1.00242901e+00
1.00238123e+00
1.00233165e+00
1.00228033e+00
1.00222729e+00
1.00217258e+00
1.00211626e+00
1.00205837e+00
1.00199897e+00
1.00193811e+00
1.00187587e+00
1.00181228e+00
1.00174743e+00
1.00168137e+00
1.00161415e+00
1.00154585e+00
1.00147651e+00
1.00140620e+00
1.00133498e+00
1.00126289e+00
1.00118999e+00
1.00111634e+00
1.00104198e+00
1.00096696e+00
1.00089134e+00
1.00081517e+00
1.00073849e+00
1.00066137e+00
1.00058386e+00
1.00050601e+00
1.00042790e+00
1.00034958e+00
1.00027112e+00
1.00019260e+00
1.00011409e+00
1.00003567e+00
9.99957435e-01
9.99879461e-01
9.99801842e-01
9.99724670e-01
9.99648038e-01
9.99572041e-01
9.99496773e-01
9.99422326e-01
9.99348793e-01
9.99276260e-01
9.99204812e-01
9.99134526e-01
9.99065476e-01
9.98997728e-01
9.98931340e-01
9.98866363e-01
9.98802837e-01
9.98740795e-01
9.98680262e-01
9.98621249e-01
9.98563761e-01
9.98507795e-01
9.98453336e-01
9.98400364e-01
9.98348851e-01
9.98298764e-01
9.98250064e-01
9.98202711e-01
9.98156661e-01
9.98111873e-01
9.98068305e-01
9.98025920e-01
9.97984685e-01
9.97944577e-01
9.97905577e-01
9.97867678e-01
9.97830885e-01
9.97795214e-01
9.97760690e-01
9.97727355e-01
9.97695264e-01
9.97664480e-01
9.97635072e-01
9.97607140e-01
9.97580787e-01
9.97556081e-01
9.97533127e-01
9.97512128e-01
9.97493150e-01
9.97476109e-01
9.97461313e-01
9.97449071e-01
9.97438896e-01
9.97431069e-01
9.97426267e-01
9.97423990e-01
1.00310252e+00
1.00310150e+00
1.00309984e+00
1.00309771e+00
1.00309523e+00
1.00309199e+00
1.00308817e+00
1.00308401e+00
1.00307912e+00
1.00307342e+00
1.00306706e+00
1.00305993e+00
1.00305188e+00
1.00304287e+00
1.00303287e+00
1.00302178e+00
1.00300951e+00
1.00299602e+00
1.00298122e+00
1.00296504e+00
1.00294742e+00
1.00292829e+00
1.00290759e+00
1.00288527e+00
1.00286128e+00
1.00283557e+00
1.00280810e+00
1.00277883e+00
1.00274775e+00
1.00271481e+00
1.00268002e+00
1.00264335e+00
1.00260480e+00
1.00256437e+00
1.00252208e+00
1.00247792e+00
1.00243193e+00
1.00238413e+00
1.00233454e+00
1.00228320e+00
1.00223016e+00
1.00217546e+00
1.00211914e+00
1.00206125e+00
1.00200186e+00
1.00194102e+00
1.00187878e+00
1.00181521e+00
1.00175036e+00
1.00168430e+00
1.00161708e+00
1.00154877e+00
1.00147943e+00
1.00140910e+00
1.00133785e+00
1.00126572e+00
1.00119278e+00
1.00111907e+00
1.00104465e+00
1.00096956e+00
1.00089386e+00
1.00081760e+00
1.00074083e+00
1.00066360e+00
1.00058598e+00
1.00050801e+00
1.00042977e+00
1.00035132e+00
1.00027272e+00
1.00019406e+00
1.00011541e+00
1.00003685e+00
9.99958462e-01
9.99880339e-01
9.99802571e-01
9.99725249e-01
9.99648468e-01
9.99572322e-01
9.99496906e-01
9.99422313e-01
9.99348633e-01
9.99275955e-01
9.99204361e-01
9.99133930e-01
9.99064734e-01
9.98996838e-01
9.98930302e-01
9.98865174e-01
9.98801495e-01
9.98739298e-01
9.98678604e-01
9.98619429e-01
9.98561774e-01
9.98505637e-01
9.98451004e-01
9.98397855e-01
9.98346162e-01
9.98295893e-01
9.98247011e-01
9.98199476e-01
9.98153246e-01
9.98108281e-01
9.98064540e-01
9.98021989e-01
9.97980596e-01
9.97940339e-01
9.97901202e-01
9.97863178e-01
9.97826273e-01
9.97790504e-01
9.97755900e-01
9.97722498e-01
9.97690352e-01
9.97659533e-01
9.97630112e-01
9.97602162e-01
9.97575792e-01
9.97551127e-01
9.97528223e-01
9.97507161e-01
9.97488164e-01
9.97471318e-01
9.97456503e-01
9.97443980e-01
9.97433957e-01
9.97426266e-01
9.97421065e-01
9.97418532e-01
1.00310752e+00
1.00310638e+00
1.00310462e+00
1.00310258e+00
1.00309994e+00
1.00309662e+00
1.00309298e+00
1.00308876e+00
1.00308375e+00
1.00307812e+00
1.00307180e+00
1.00306461e+00
1.00305653e+00
1.00304752e+00
1.00303750e+00
1.00302636e+00
1.00301406e+00
1.00300052e+00
1.00298567e+00
1.00296943e+00
1.00295175e+00
1.00293255e+00
1.00291178e+00
1.00288939e+00
1.00286533e+00
1.00283954e+00
1.00281200e+00
1.00278266e+00
1.00275151e+00
1.00271851e+00
1.00268365e+00
1.00264692e+00
1.00260832e+00
1.00256785e+00
1.00252551e+00
1.00248133e+00
1.00243531e+00
1.00238748e+00
1.00233788e+00
1.00228654e+00
1.00223349e+00
1.00217879e+00
1.00212247e+00
1.00206459e+00
1.00200521e+00
1.00194437e+00
1.00188214e+00
1.00181857e+00
1.00175373e+00
1.00168766e+00
1.00162044e+00
1.00155211e+00
1.00148274e+00
1.00141238e+00
1.00134109e+00
1.00126891e+00
1.00119591e+00
1.00112213e+00
1.00104762e+00
1.00097244e+00
1.00089664e+00
1.00082026e+00
1.00074337e+00
1.00066601e+00
1.00058824e+00
1.00051013e+00
1.00043174e+00
1.00035313e+00
1.00027437e+00
1.00019554e+00
1.00011672e+00
1.00003799e+00
9.99959429e-01
9.99881135e-01
9.99803194e-01
9.99725702e-01
9.99648751e-01
9.99572437e-01
9.99496855e-01
9.99422097e-01
9.99348254e-01
9.99275414e-01
9.99203659e-01
9.99133068e-01
9.99063712e-01
9.98995657e-01
9.98928958e-01
9.98863667e-01
9.98799822e-01
9.98737455e-01
9.98676589e-01
9.98617237e-01
9.98559401e-01
9.98503079e-01
9.98448256e-01
9.98394914e-01
9.98343024e-01
9.98292556e-01
9.98243472e-01
9.98195736e-01
9.98149305e-01
9.98104141e-01
9.98060206e-01
9.98017466e-01
9.97975892e-01
9.97935463e-01
9.97896164e-01
9.97857991e-01
9.97820950e-01
9.97785058e-01
9.97750346e-01
9.97716854e-01
9.97684633e-01
9.97653746e-01
9.97624279e-01
9.97596308e-01
9.97569908e-01
9.97545200e-01
9.97522316e-01
9.97501294e-01
9.97482225e-01
9.97465333e-01
9.97450622e-01
9.97438035e-01
9.97427881e-01
9.97420227e-01
9.97414940e-01
9.97412258e-01
1.00311324e+00
1.00311214e+00
1.00311046e+00
1.00310819e+00
1.00310540e+00
1.00310226e+00
1.00309857e+00
1.00309418e+00
1.00308922e+00
1.00308364e+00
1.00307723e+00
1.00306999e+00
1.00306191e+00
1.00305286e+00
1.00304277e+00
1.00303159e+00
1.00301924e+00
1.00300563e+00
1.00299070e+00
1.00297439e+00
1.00295663e+00
1.00293735e+00
1.00291650e+00
1.00289402e+00
1.00286987e+00
1.00284400e+00
1.00281637e+00
1.00278696e+00
1.00275572e+00
1.00272265e+00
1.00268772e+00
1.00265093e+00
1.00261228e+00
1.00257175e+00
1.00252938e+00
1.00248515e+00
1.00243911e+00
1.00239126e+00
1.00234164e+00
1.00229029e+00
1.00223724e+00
1.00218254e+00
1.00212622e+00
1.00206835e+00
1.00200898e+00
1.00194814e+00
1.00188592e+00
1.00182235e+00
1.00175750e+00
1.00169143e+00
1.00162419e+00
1.00155583e+00
1.00148643e+00
1.00141602e+00
1.00134467e+00
1.00127243e+00
1.00119934e+00
1.00112547e+00
1.00105086e+00
1.00097557e+00
1.00089963e+00
1.00082312e+00
1.00074608e+00
1.00066856e+00
1.00059063e+00
1.00051235e+00
1.00043377e+00
1.00035497e+00
1.00027603e+00
1.00019701e+00
1.00011799e+00
1.00003907e+00
9.99960313e-01
9.99881824e-01
9.99803691e-01
9.99726007e-01
9.99648868e-01
9.99572368e-01
9.99496602e-01
9.99421664e-01
9.99347643e-01
9.99274627e-01
9.99202699e-01
9.99131935e-01
9.99062407e-01
9.98994180e-01
9.98927308e-01
9.98861842e-01
9.98797820e-01
9.98735274e-01
9.98674224e-01
9.98614683e-01
9.98556654e-01
9.98500134e-01
9.98445109e-01
9.98391558e-01
9.98339457e-01
9.98288774e-01
9.98239473e-01
9.98191517e-01
9.98144868e-01
9.98099487e-01
9.98055338e-01
9.98012389e-01
9.97970613e-01
9.97929989e-01
9.97890506e-01
9.97852161e-01
9.97814961e-01
9.97778924e-01
9.97744080e-01
9.97710471e-01
9.97678153e-01
9.97647183e-01
9.97617635e-01
9.97589606e-01
9.97563180e-01
9.97538427e-01
9.97515474e-01
9.97494462e-01
9.97475413e-01
9.97458410e-01
9.97443653e-01
9.97431149e-01
9.97420886e-01
9.97413061e-01
9.97407771e-01
9.97405061e-01
1.00311990e+00
1.00311869e+00
1.00311694e+00
1.00311460e+00
1.00311183e+00
1.00310863e+00
1.00310481e+00
1.00310044e+00
1.00309549e+00
1.00308980e+00
1.00308333e+00
1.00307609e+00
1.00306794e+00
1.00305882e+00
1.00304867e+00
1.00303742e+00
1.00302498e+00
1.00301129e+00
1.00299628e+00
1.00297988e+00
1.00296202e+00
1.00294264e+00
1.00292169e+00
1.00289911e+00
1.00287486e+00
1.00284889e+00
1.00282117e+00
1.00279166e+00
1.00276034e+00
1.00272718e+00
1.00269218e+00
1.00265533e+00
1.00261661e+00
1.00257604e+00
1.00253361e+00
1.00248936e+00
1.00244328e+00
1.00239541e+00
1.00234578e+00
1.00229442e+00
1.00224137e+00
1.00218667e+00
1.00213036e+00
1.00207250e+00
1.00201312e+00
1.00195230e+00
1.00189007e+00
1.00182650e+00
1.00176164e+00
1.00169555e+00
1.00162828e+00
1.00155990e+00
1.00149044e+00
1.00141998e+00
1.00134856e+00
1.00127623e+00
1.00120305e+00
1.00112907e+00
1.00105433e+00
1.00097890e+00
1.00090282e+00
1.00082614e+00
1.00074892e+00
1.00067122e+00
1.00059310e+00
1.00051462e+00
1.00043584e+00
1.00035683e+00
1.00027767e+00
1.00019844e+00
1.00011920e+00
1.00004006e+00
9.99961087e-01
9.99882383e-01
9.99804037e-01
9.99726144e-01
9.99648798e-01
9.99572096e-01
9.99496132e-01
9.99420999e-01
9.99346787e-01
9.99273583e-01
9.99201469e-01
9.99130522e-01
9.99060812e-01
9.98992402e-01
9.98925348e-01
9.98859698e-01
9.98795490e-01
9.98732753e-01
9.98671509e-01
9.98611769e-01
9.98553537e-01
9.98496807e-01
9.98441567e-01
9.98387797e-01
9.98335470e-01
9.98284557e-01
9.98235024e-01
9.98186833e-01
9.98139948e-01
9.98094331e-01
9.98049950e-01
9.98006772e-01
9.97964774e-01
9.97923936e-01
9.97884248e-01
9.97845709e-01
9.97808327e-01
9.97772124e-01
9.97737128e-01
9.97703380e-01
9.97670937e-01
9.97639864e-01
9.97610227e-01
9.97582107e-01
9.97555610e-01
9.97530823e-01
9.97507816e-01
9.97486720e-01
9.97467657e-01
9.97450648e-01
9.97435792e-01
9.97423231e-01
9.97412954e-01
9.97405051e-01
9.97399683e-01
9.97396857e-01
1.00312738e+00
1.00312605e+00
1.00312417e+00
1.00312182e+00
1.00311902e+00
1.00311567e+00
1.00311182e+00
1.00310745e+00
1.00310239e+00
1.00309662e+00
1.00309013e+00
1.00308281e+00
1.00307457e+00
1.00306537e+00
1.00305514e+00
1.00304379e+00
1.00303126e+00
1.00301747e+00
1.00300235e+00
1.00298583e+00
1.00296786e+00
1.00294837e+00
1.00292730e+00
1.00290461e+00
1.00288024e+00
1.00285416e+00
1.00282633e+00
1.00279672e+00
1.00276531e+00
1.00273206e+00
1.00269698e+00
1.00266005e+00
1.00262128e+00
1.00258065e+00
1.00253818e+00
1.00249389e+00
1.00244779e+00
1.00239990e+00
1.00235026e+00
1.00229889e+00
1.00224584e+00
1.00219114e+00
1.00213484e+00
1.00207698e+00
1.00201761e+00
1.00195679e+00
1.00189456e+00
1.00183098e+00
1.00176611e+00
1.00170000e+00
1.00163270e+00
1.00156426e+00
1.00149475e+00
1.00142422e+00
1.00135271e+00
1.00128028e+00
1.00120698e+00
1.00113287e+00
1.00105799e+00
1.00098239e+00
1.00090614e+00
1.00082928e+00
1.00075186e+00
1.00067396e+00
1.00059562e+00
1.00051691e+00
1.00043790e+00
1.00035866e+00
1.00027926e+00
1.00019979e+00
1.00012032e+00
1.00004093e+00
9.99961725e-01
9.99882787e-01
9.99804210e-01
9.99726090e-01
9.99648523e-01
9.99571604e-01
9.99495429e-01
9.99420089e-01
9.99345674e-01
9.99272272e-01
9.99199964e-01
9.99128824e-01
9.99058924e-01
9.98990324e-01
9.98923081e-01
9.98857239e-01
9.98792837e-01
9.98729903e-01
9.98668458e-01
9.98608511e-01
9.98550067e-01
9.98493119e-01
9.98437654e-01
9.98383653e-01
9.98331090e-01
9.98279936e-01
9.98230157e-01
9.98181717e-01
9.98134582e-01
9.98088715e-01
9.98044085e-01
9.98000662e-01
9.97958424e-01
9.97917353e-01
9.97877441e-01
9.97838689e-01
9.97801107e-01
9.97764714e-01
9.97729546e-01
9.97695642e-01
9.97663054e-01
9.97631849e-01
9.97602104e-01
9.97573890e-01
9.97547292e-01
9.97522424e-01
9.97499373e-01
9.97478206e-01
9.97459054e-01
9.97442020e-01
9.97427124e-01
9.97414456e-01
9.97404127e-01
9.97396182e-01
9.97390695e-01
9.97387754e-01
1.00313552e+00
1.00313412e+00
1.00313217e+00
1.00312975e+00
1.00312684e+00
1.00312344e+00
1.00311956e+00
1.00311507e+00
1.00310992e+00
1.00310411e+00
1.00309753e+00
1.00309009e+00
1.00308176e+00
1.00307247e+00
1.00306213e+00
1.00305066e+00
1.00303801e+00
1.00302410e+00
1.00300885e+00
1.00299220e+00
1.00297410e+00
1.00295447e+00
1.00293327e+00
1.00291045e+00
1.00288596e+00
1.00285975e+00
1.00283181e+00
1.00280209e+00
1.00277057e+00
1.00273723e+00
1.00270207e+00
1.00266506e+00
1.00262622e+00
1.00258554e+00
1.00254302e+00
1.00249870e+00
1.00245257e+00
1.00240466e+00
1.00235501e+00
1.00230364e+00
1.00225059e+00
1.00219590e+00
1.00213960e+00
1.00208175e+00
1.00202239e+00
1.00196157e+00
1.00189934e+00
1.00183575e+00
1.00177086e+00
1.00170471e+00
1.00163737e+00
1.00156889e+00
1.00149931e+00
1.00142868e+00
1.00135708e+00
1.00128453e+00
1.00121110e+00
1.00113684e+00
1.00106179e+00
1.00098602e+00
1.00090957e+00
1.00083250e+00
1.00075486e+00
1.00067673e+00
1.00059815e+00
1.00051919e+00
1.00043993e+00
1.00036043e+00
1.00028078e+00
1.00020104e+00
1.00012131e+00
1.00004166e+00
9.99962201e-01
9.99883011e-01
9.99804188e-01
9.99725827e-01
9.99648025e-01
9.99570877e-01
9.99494478e-01
9.99418921e-01
9.99344295e-01
9.99270686e-01
9.99198175e-01
9.99126837e-01
9.99056739e-01
9.98987944e-01
9.98920505e-01
9.98854466e-01
9.98789865e-01
9.98726728e-01
9.98665075e-01
9.98604915e-01
9.98546252e-01
9.98489078e-01
9.98433380e-01
9.98379139e-01
9.98326330e-01
9.98274923e-01
9.98224887e-01
9.98176186e-01
9.98128787e-01
9.98082656e-01
9.98037761e-01
9.97994077e-01
9.97951582e-01
9.97910262e-01
9.97870108e-01
9.97831125e-01
9.97793323e-01
9.97756725e-01
9.97721363e-01
9.97687282e-01
9.97654535e-01
9.97623181e-01
9.97593299e-01
9.97564972e-01
9.97538276e-01
9.97513301e-01
9.97490161e-01
9.97468939e-01
9.97449708e-01
9.97432584e-01
9.97417640e-01
9.97404914e-01
9.97394496e-01
9.97386474e-01
9.97380913e-01
9.97377879e-01
1.00314434e+00
1.00314287e+00
1.00314086e+00
1.00313833e+00
1.00313533e+00
1.00313188e+00
1.00312789e+00
1.00312329e+00
1.00311808e+00
1.00311216e+00
1.00310545e+00
1.00309791e+00
1.00308948e+00
1.00308005e+00
1.00306957e+00
1.00305798e+00
1.00304519e+00
1.00303112e+00
1.00301572e+00
1.00299893e+00
1.00298067e+00
1.00296090e+00
1.00293955e+00
1.00291658e+00
1.00289195e+00
1.00286561e+00
1.00283754e+00
1.00280770e+00
1.00277607e+00
1.00274263e+00
1.00270738e+00
1.00267030e+00
1.00263138e+00
1.00259065e+00
1.00254809e+00
1.00250372e+00
1.00245757e+00
1.00240965e+00
1.00235999e+00
1.00230862e+00
1.00225558e+00
1.00220089e+00
1.00214460e+00
1.00208676e+00
1.00202741e+00
1.00196659e+00
1.00190435e+00
1.00184075e+00
1.00177584e+00
1.00170966e+00
1.00164227e+00
1.00157372e+00
1.00150406e+00
1.00143334e+00
1.00136161e+00
1.00128894e+00
1.00121536e+00
1.00114092e+00
1.00106569e+00
1.00098972e+00
1.00091305e+00
1.00083575e+00
1.00075788e+00
1.00067949e+00
1.00060065e+00
1.00052142e+00
1.00044188e+00
1.00036211e+00
1.00028217e+00
1.00020215e+00
1.00012214e+00
1.00004222e+00
9.99962491e-01
9.99883034e-01
9.99803951e-01
9.99725336e-01
9.99647287e-01
9.99569899e-01
9.99493269e-01
9.99417487e-01
9.99342643e-01
9.99268821e-01
9.99196103e-01
9.99124561e-01
9.99054263e-01
9.98985269e-01
9.98917631e-01
9.98851392e-01
9.98786588e-01
9.98723245e-01
9.98661381e-01
9.98601004e-01
9.98542117e-01
9.98484712e-01
9.98428776e-01
9.98374289e-01
9.98321227e-01
9.98269560e-01
9.98219257e-01
9.98170285e-01
9.98122612e-01
9.98076204e-01
9.98031033e-01
9.97987075e-01
9.97944309e-01
9.97902724e-01
9.97862314e-01
9.97823082e-01
9.97785044e-01
9.97748223e-01
9.97712652e-01
9.97678374e-01
9.97645447e-01
9.97613933e-01
9.97583900e-01
9.97555432e-01
9.97528619e-01
9.97503540e-01
9.97480288e-01
9.97458975e-01
9.97439675e-01
9.97422460e-01
9.97407430e-01
9.97394644e-01
9.97384148e-01
9.97376032e-01
9.97370390e-01
9.97367266e-01
1.00315382e+00
1.00315224e+00
1.00315014e+00
1.00314753e+00
1.00314445e+00
1.00314089e+00
1.00313679e+00
1.00313210e+00
1.00312678e+00
1.00312072e+00
1.00311389e+00
1.00310623e+00
1.00309764e+00
1.00308806e+00
1.00307744e+00
1.00306568e+00
1.00305272e+00
1.00303849e+00
1.00302292e+00
1.00300596e+00
1.00298753e+00
1.00296759e+00
1.00294607e+00
1.00292295e+00
1.00289816e+00
1.00287167e+00
1.00284346e+00
1.00281349e+00
1.00278175e+00
1.00274820e+00
1.00271285e+00
1.00267569e+00
1.00263671e+00
1.00259591e+00
1.00255331e+00
1.00250892e+00
1.00246274e+00
1.00241481e+00
1.00236515e+00
1.00231378e+00
1.00226074e+00
1.00220606e+00
1.00214979e+00
1.00209196e+00
1.00203261e+00
1.00197179e+00
1.00190955e+00
1.00184594e+00
1.00178099e+00
1.00171477e+00
1.00164733e+00
1.00157870e+00
1.00150895e+00
1.00143813e+00
1.00136627e+00
1.00129345e+00
1.00121970e+00
1.00114509e+00
1.00106965e+00
1.00099346e+00
1.00091655e+00
1.00083900e+00
1.00076086e+00
1.00068220e+00
1.00060308e+00
1.00052356e+00
1.00044373e+00
1.00036366e+00
1.00028342e+00
1.00020311e+00
1.00012280e+00
1.00004259e+00
9.99962572e-01
9.99882836e-01
9.99803480e-01
9.99724602e-01
9.99646297e-01
9.99568663e-01
9.99491793e-01
9.99415781e-01
9.99340713e-01
9.99266676e-01
9.99193747e-01
9.99121999e-01
9.99051498e-01
9.98982303e-01
9.98914465e-01
9.98848024e-01
9.98783016e-01
9.98719465e-01
9.98657388e-01
9.98596792e-01
9.98537678e-01
9.98480038e-01
9.98423859e-01
9.98369121e-01
9.98315799e-01
9.98263864e-01
9.98213287e-01
9.98164035e-01
9.98116077e-01
9.98069382e-01
9.98023923e-01
9.97979678e-01
9.97936628e-01
9.97894764e-01
9.97854082e-01
9.97814589e-01
9.97776299e-01
9.97739238e-01
9.97703442e-01
9.97668954e-01
9.97635829e-01
9.97604134e-01
9.97573940e-01
9.97545320e-01
9.97518365e-01
9.97493168e-01
9.97469808e-01
9.97448381e-01
9.97428986e-01
9.97411693e-01
9.97396572e-01
9.97383698e-01
9.97373128e-01
9.97364933e-01
9.97359200e-01
9.97355978e-01
1.00316386e+00
1.00316219e+00
1.00315999e+00
1.00315729e+00
1.00315411e+00
1.00315043e+00
1.00314622e+00
1.00314142e+00
1.00313594e+00
1.00312975e+00
1.00312278e+00
1.00311495e+00
1.00310619e+00
1.00309645e+00
1.00308565e+00
1.00307370e+00
1.00306056e+00
1.00304614e+00
1.00303038e+00
1.00301322e+00
1.00299460e+00
1.00297447e+00
1.00295278e+00
1.00292947e+00
1.00290452e+00
1.00287787e+00
1.00284951e+00
1.00281941e+00
1.00278753e+00
1.00275388e+00
1.00271843e+00
1.00268118e+00
1.00264213e+00
1.00260128e+00
1.00255863e+00
1.00251421e+00
1.00246801e+00
1.00242007e+00
1.00237041e+00
1.00231905e+00
1.00226602e+00
1.00221136e+00
1.00215510e+00
1.00209728e+00
1.00203794e+00
1.00197712e+00
1.00191488e+00
1.00185124e+00
1.00178627e+00
1.00172001e+00
1.00165250e+00
1.00158379e+00
1.00151394e+00
1.00144299e+00
1.00137100e+00
1.00129802e+00
1.00122409e+00
1.00114927e+00
1.00107362e+00
1.00099718e+00
1.00092003e+00
1.00084221e+00
1.00076379e+00
1.00068483e+00
1.00060540e+00