# vtk DataFile Version 2.0
LBM Flow Field - Timestep 1310
ASCII
DATASET STRUCTURED_POINTS
DIMENSIONS 128 128 1
ORIGIN 0.0 0.0 0.0
SPACING 1.0 1.0 1.0
POINT_DATA 16384
SCALARS density double 1
LOOKUP_TABLE default
1.00250114e+00
1.00253350e+00
1.00256896e+00
1.00256799e+00
1.00256723e+00
1.00257067e+00
1.00256948e+00
1.00256331e+00
1.00255542e+00
1.00254459e+00
1.00252959e+00
1.00251046e+00
1.00248722e+00
1.00245940e+00
1.00242674e+00
1.00238917e+00
1.00234665e+00
1.00229916e+00
1.00224681e+00
1.00218980e+00
1.00212838e+00
1.00206291e+00
1.00199380e+00
1.00192152e+00
1.00184659e+00
1.00176956e+00
1.00169099e+00
1.00161145e+00
1.00153149e+00
1.00145165e+00
1.00137242e+00
1.00129425e+00
1.00121754e+00
1.00114264e+00
1.00106983e+00
1.00099936e+00
1.00093138e+00
1.00086605e+00
1.00080343e+00
1.00074359e+00
1.00068653e+00
1.00063226e+00
1.00058074e+00
1.00053196e+00
1.00048587e+00
1.00044244e+00
1.00040163e+00
1.00036341e+00
1.00032776e+00
1.00029466e+00
1.00026410e+00
1.00023609e+00
1.00021062e+00
1.00018768e+00
1.00016728e+00
1.00014941e+00
1.00013404e+00
1.00012116e+00
1.00011069e+00
1.00010259e+00
1.00009675e+00
1.00009307e+00
1.00009139e+00
1.00009156e+00
1.00009337e+00
1.00009661e+00
1.00010104e+00
1.00010639e+00
1.00011237e+00
1.00011869e+00
1.00012505e+00
1.00013111e+00
1.00013655e+00
1.00014105e+00
1.00014427e+00
1.00014588e+00
1.00014554e+00
1.00014292e+00
1.00013768e+00
1.00012949e+00
1.00011802e+00
1.00010294e+00
1.00008395e+00
1.00006074e+00
1.00003303e+00
1.00000059e+00
9.99963207e-01
9.99920733e-01
9.99873082e-01
9.99820243e-01
9.99762287e-01
9.99699376e-01
9.99631765e-01
9.99559802e-01
9.99483923e-01
9.99404645e-01
9.99322550e-01
9.99238273e-01
9.99152480e-01
9.99065850e-01
9.98979054e-01
9.98892736e-01
9.98807496e-01
9.98723875e-01
9.98642346e-01
9.98563308e-01
9.98487085e-01
9.98413927e-01
9.98344017e-01
9.98277476e-01
9.98214380e-01
9.98154779e-01
9.98098696e-01
9.98046105e-01
9.97997029e-01
9.97951560e-01
9.97909687e-01
9.97871206e-01
9.97836549e-01
9.97806247e-01
9.97779393e-01
9.97755127e-01
9.97737666e-01
9.97727074e-01
9.97713709e-01
9.97702578e-01
9.97734234e-01
9.97765194e-01
1.00253224e+00
1.00254269e+00
1.00256586e+00
1.00256917e+00
1.00257159e+00
1.00257216e+00
1.00257049e+00
1.00256492e+00
1.00255669e+00
1.00254502e+00
1.00252971e+00
1.00251027e+00
1.00248658e+00
1.00245832e+00
1.00242533e+00
1.00238745e+00
1.00234466e+00
1.00229695e+00
1.00224445e+00
1.00218734e+00
1.00212589e+00
1.00206046e+00
1.00199144e+00
1.00191930e+00
1.00184456e+00
1.00176776e+00
1.00168945e+00
1.00161020e+00
1.00153053e+00
1.00145099e+00
1.00137205e+00
1.00129416e+00
1.00121772e+00
1.00114306e+00
1.00107047e+00
1.00100017e+00
1.00093236e+00
1.00086716e+00
1.00080465e+00
1.00074489e+00
1.00068790e+00
1.00063368e+00
1.00058220e+00
1.00053345e+00
1.00048739e+00
1.00044397e+00
1.00040318e+00
1.00036498e+00
1.00032934e+00
1.00029626e+00
1.00026572e+00
1.00023772e+00
1.00021226e+00
1.00018934e+00
1.00016894e+00
1.00015106e+00
1.00013568e+00
1.00012276e+00
1.00011225e+00
1.00010409e+00
1.00009817e+00
1.00009439e+00
1.00009260e+00
1.00009264e+00
1.00009430e+00
1.00009738e+00
1.00010162e+00
1.00010677e+00
1.00011255e+00
1.00011865e+00
1.00012478e+00
1.00013061e+00
1.00013582e+00
1.00014008e+00
1.00014306e+00
1.00014443e+00
1.00014386e+00
1.00014100e+00
1.00013554e+00
1.00012714e+00
1.00011548e+00
1.00010024e+00
1.00008110e+00
1.00005778e+00
1.00003000e+00
9.99997533e-01
9.99960176e-01
9.99917785e-01
9.99870277e-01
9.99817642e-01
9.99759950e-01
9.99697358e-01
9.99630115e-01
9.99558558e-01
9.99483113e-01
9.99404281e-01
9.99322631e-01
9.99238781e-01
9.99153383e-01
9.99067102e-01
9.98980599e-01
9.98894509e-01
9.98809426e-01
9.98725889e-01
9.98644374e-01
9.98565284e-01
9.98488949e-01
9.98415628e-01
9.98345514e-01
9.98278742e-01
9.98215403e-01
9.98155544e-01
9.98099201e-01
9.98046380e-01
9.97997121e-01
9.97951406e-01
9.97909319e-01
9.97870838e-01
9.97836212e-01
9.97805344e-01
9.97778481e-01
9.97755296e-01
9.97737624e-01
9.97724086e-01
9.97714512e-01
9.97708532e-01
9.97726885e-01
9.97734069e-01
1.00256609e+00
1.00256427e+00
1.00255857e+00
1.00257025e+00
1.00257766e+00
1.00257436e+00
1.00257076e+00
1.00256639e+00
1.00255790e+00
1.00254541e+00
1.00252974e+00
1.00251013e+00
1.00248606e+00
1.00245745e+00
1.00242420e+00
1.00238609e+00
1.00234307e+00
1.00229520e+00
1.00224259e+00
1.00218542e+00
1.00212396e+00
1.00205855e+00
1.00198961e+00
1.00191760e+00
1.00184302e+00
1.00176640e+00
1.00168831e+00
1.00160928e+00
1.00152985e+00
1.00145055e+00
1.00137185e+00
1.00129419e+00
1.00121796e+00
1.00114349e+00
1.00107107e+00
1.00100093e+00
1.00093325e+00
1.00086816e+00
1.00080574e+00
1.00074605e+00
1.00068912e+00
1.00063495e+00
1.00058351e+00
1.00053479e+00
1.00048876e+00
1.00044537e+00
1.00040461e+00
1.00036644e+00
1.00033084e+00
1.00029779e+00
1.00026729e+00
1.00023933e+00
1.00021390e+00
1.00019101e+00
1.00017063e+00
1.00015277e+00
1.00013740e+00
1.00012448e+00
1.00011395e+00
1.00010575e+00
1.00009978e+00
1.00009592e+00
1.00009403e+00
1.00009395e+00
1.00009548e+00
1.00009839e+00
1.00010246e+00
1.00010741e+00
1.00011297e+00
1.00011885e+00
1.00012473e+00
1.00013031e+00
1.00013526e+00
1.00013925e+00
1.00014197e+00
1.00014307e+00
1.00014223e+00
1.00013912e+00
1.00013341e+00
1.00012477e+00
1.00011290e+00
1.00009746e+00
1.00007817e+00
1.00005472e+00
1.00002687e+00
9.99994368e-01
9.99957029e-01
9.99914709e-01
9.99867328e-01
9.99814874e-01
9.99757414e-01
9.99695101e-01
9.99628176e-01
9.99556967e-01
9.99481888e-01
9.99403429e-01
9.99322146e-01
9.99238645e-01
9.99153567e-01
9.99067569e-01
9.98981301e-01
9.98895395e-01
9.98810442e-01
9.98726984e-01
9.98645496e-01
9.98566388e-01
9.98489997e-01
9.98416590e-01
9.98346367e-01
9.98279475e-01
9.98216012e-01
9.98156031e-01
9.98099566e-01
9.98046660e-01
9.97997335e-01
9.97951521e-01
9.97909336e-01
9.97871019e-01
9.97836375e-01
9.97804977e-01
9.97778248e-01
9.97756786e-01
9.97737292e-01
9.97719712e-01
9.97716046e-01
9.97719540e-01
9.97706460e-01
9.97700431e-01
1.00256412e+00
1.00256693e+00
1.00256936e+00
1.00257555e+00
1.00257581e+00
1.00257489e+00
1.00257254e+00
1.00256659e+00
1.00255730e+00
1.00254507e+00
1.00252917e+00
1.00250913e+00
1.00248487e+00
1.00245616e+00
1.00242275e+00
1.00238453e+00
1.00234147e+00
1.00229360e+00
1.00224102e+00
1.00218393e+00
1.00212258e+00
1.00205733e+00
1.00198857e+00
1.00191676e+00
1.00184241e+00
1.00176603e+00
1.00168817e+00
1.00160938e+00
1.00153019e+00
1.00145110e+00
1.00137260e+00
1.00129511e+00
1.00121903e+00
1.00114469e+00
1.00107237e+00
1.00100231e+00
1.00093468e+00
1.00086962e+00
1.00080722e+00
1.00074755e+00
1.00069061e+00
1.00063644e+00
1.00058500e+00
1.00053628e+00
1.00049025e+00
1.00044689e+00
1.00040615e+00
1.00036801e+00
1.00033246e+00
1.00029947e+00
1.00026903e+00
1.00024113e+00
1.00021578e+00
1.00019295e+00
1.00017265e+00
1.00015484e+00
1.00013951e+00
1.00012662e+00
1.00011611e+00
1.00010790e+00
1.00010190e+00
1.00009798e+00
1.00009600e+00
1.00009580e+00
1.00009718e+00
1.00009992e+00
1.00010378e+00
1.00010851e+00
1.00011382e+00
1.00011942e+00
1.00012501e+00
1.00013028e+00
1.00013491e+00
1.00013857e+00
1.00014095e+00
1.00014171e+00
1.00014054e+00
1.00013710e+00
1.00013107e+00
1.00012213e+00
1.00010996e+00
1.00009426e+00
1.00007473e+00
1.00005109e+00
1.00002307e+00
9.99990444e-01
9.99953031e-01
9.99910688e-01
9.99863336e-01
9.99810965e-01
9.99753640e-01
9.99691511e-01
9.99624813e-01
9.99553868e-01
9.99479082e-01
9.99400935e-01
9.99319974e-01
9.99236794e-01
9.99152027e-01
9.99066320e-01
9.98980320e-01
9.98894652e-01
9.98809907e-01
9.98726623e-01
9.98645282e-01
9.98566294e-01
9.98490004e-01
9.98416684e-01
9.98346545e-01
9.98279733e-01
9.98216355e-01
9.98156479e-01
9.98100138e-01
9.98047346e-01
9.97998145e-01
9.97952572e-01
9.97910575e-01
9.97872226e-01
9.97837792e-01
9.97807177e-01
9.97780021e-01
9.97757252e-01
9.97739597e-01
9.97725103e-01
9.97713901e-01
9.97711544e-01
9.97707599e-01
9.97706849e-01
1.00256350e+00
1.00256924e+00
1.00257655e+00
1.00257565e+00
1.00257458e+00
1.00257606e+00
1.00257259e+00
1.00256520e+00
1.00255606e+00
1.00254390e+00
1.00252755e+00
1.00250728e+00
1.00248299e+00
1.00245422e+00
1.00242075e+00
1.00238256e+00
1.00233959e+00
1.00229184e+00
1.00223942e+00
1.00218253e+00
1.00212143e+00
1.00205645e+00
1.00198798e+00
1.00191649e+00
1.00184244e+00
1.00176638e+00
1.00168883e+00
1.00161033e+00
1.00153140e+00
1.00145255e+00
1.00137425e+00
1.00129694e+00
1.00122099e+00
1.00114675e+00
1.00107449e+00
1.00100446e+00
1.00093684e+00
1.00087177e+00
1.00080934e+00
1.00074962e+00
1.00069264e+00
1.00063841e+00
1.00058694e+00
1.00053819e+00
1.00049214e+00
1.00044877e+00
1.00040805e+00
1.00036995e+00
1.00033445e+00
1.00030152e+00
1.00027116e+00
1.00024336e+00
1.00021810e+00
1.00019537e+00
1.00017516e+00
1.00015744e+00
1.00014219e+00
1.00012935e+00
1.00011887e+00
1.00011066e+00
1.00010463e+00
1.00010066e+00
1.00009859e+00
1.00009825e+00
1.00009946e+00
1.00010199e+00
1.00010561e+00
1.00011005e+00
1.00011505e+00
1.00012031e+00
1.00012554e+00
1.00013042e+00
1.00013465e+00
1.00013789e+00
1.00013984e+00
1.00014018e+00
1.00013857e+00
1.00013470e+00
1.00012825e+00
1.00011891e+00
1.00010635e+00
1.00009029e+00
1.00007042e+00
1.00004647e+00
1.00001819e+00
9.99985352e-01
9.99947777e-01
9.99905329e-01
9.99857931e-01
9.99805575e-01
9.99748327e-01
9.99686334e-01
9.99619827e-01
9.99549123e-01
9.99474619e-01
9.99396786e-01
9.99316162e-01
9.99233332e-01
9.99148919e-01
9.99063563e-01
9.98977901e-01
9.98892557e-01
9.98808116e-01
9.98725119e-01
9.98644048e-01
9.98565319e-01
9.98489278e-01
9.98416206e-01
9.98346319e-01
9.98279773e-01
9.98216670e-01
9.98157087e-01
9.98101073e-01
9.98048622e-01
9.97999738e-01
9.97954535e-01
9.97913009e-01
9.97874940e-01
9.97840583e-01
9.97810639e-01
9.97784244e-01
9.97760417e-01
9.97742050e-01
9.97730728e-01
9.97718446e-01
9.97708575e-01
9.97710430e-01
9.97713044e-01
1.00256822e+00
1.00257093e+00
1.00257424e+00
1.00257563e+00
1.00257695e+00
1.00257489e+00
1.00256995e+00
1.00256378e+00
1.00255456e+00
1.00254148e+00
1.00252501e+00
1.00250489e+00
1.00248050e+00
1.00245165e+00
1.00241828e+00
1.00238024e+00
1.00233743e+00
1.00228989e+00
1.00223775e+00
1.00218118e+00
1.00212042e+00
1.00205580e+00
1.00198772e+00
1.00191661e+00
1.00184296e+00
1.00176728e+00
1.00169009e+00
1.00161192e+00
1.00153329e+00
1.00145471e+00
1.00137663e+00
1.00129949e+00
1.00122367e+00
1.00114952e+00
1.00107731e+00
1.00100729e+00
1.00093965e+00
1.00087454e+00
1.00081205e+00
1.00075226e+00
1.00069520e+00
1.00064091e+00
1.00058937e+00
1.00054057e+00
1.00049450e+00
1.00045112e+00
1.00041041e+00
1.00037234e+00
1.00033690e+00
1.00030405e+00
1.00027378e+00
1.00024608e+00
1.00022093e+00
1.00019832e+00
1.00017822e+00
1.00016061e+00
1.00014544e+00
1.00013267e+00
1.00012222e+00
1.00011403e+00
1.00010797e+00
1.00010392e+00
1.00010173e+00
1.00010124e+00
1.00010224e+00
1.00010452e+00
1.00010785e+00
1.00011195e+00
1.00011657e+00
1.00012142e+00
1.00012621e+00
1.00013062e+00
1.00013435e+00
1.00013710e+00
1.00013853e+00
1.00013834e+00
1.00013620e+00
1.00013181e+00
1.00012485e+00
1.00011500e+00
1.00010197e+00
1.00008546e+00
1.00006517e+00
1.00004084e+00
1.00001223e+00
9.99979110e-01
9.99941311e-01
9.99898701e-01
9.99851208e-01
9.99798825e-01
9.99741619e-01
9.99679736e-01
9.99613402e-01
9.99542929e-01
9.99468707e-01
9.99391200e-01
9.99310934e-01
9.99228487e-01
9.99144471e-01
9.99059519e-01
9.98974263e-01
9.98889319e-01
9.98805273e-01
9.98722663e-01
9.98641974e-01
9.98563625e-01
9.98487968e-01
9.98415287e-01
9.98345802e-01
9.98279677e-01
9.98217024e-01
9.98157901e-01
9.98102360e-01
9.98050446e-01
9.98002125e-01
9.97957360e-01
9.97916309e-01
9.97879047e-01
9.97845212e-01
9.97814919e-01
9.97789114e-01
9.97767316e-01
9.97747925e-01
9.97733185e-01
9.97724039e-01
9.97717136e-01
9.97714792e-01
9.97714187e-01
1.00256956e+00
1.00257179e+00
1.00257313e+00
1.00257569e+00
1.00257587e+00
1.00257233e+00
1.00256816e+00
1.00256181e+00
1.00255165e+00
1.00253846e+00
1.00252217e+00
1.00250191e+00
1.00247741e+00
1.00244868e+00
1.00241548e+00
1.00237760e+00
1.00233503e+00
1.00228781e+00
1.00223602e+00
1.00217983e+00
1.00211950e+00
1.00205533e+00
1.00198771e+00
1.00191706e+00
1.00184387e+00
1.00176862e+00
1.00169184e+00
1.00161405e+00
1.00153576e+00
1.00145746e+00
1.00137961e+00
1.00130266e+00
1.00122697e+00
1.00115290e+00
1.00108073e+00
1.00101071e+00
1.00094304e+00
1.00087786e+00
1.00081529e+00
1.00075541e+00
1.00069826e+00
1.00064388e+00
1.00059227e+00
1.00054341e+00
1.00049730e+00
1.00045391e+00
1.00041322e+00
1.00037519e+00
1.00033981e+00
1.00030705e+00
1.00027689e+00
1.00024931e+00
1.00022429e+00
1.00020181e+00
1.00018184e+00
1.00016434e+00
1.00014926e+00
1.00013656e+00
1.00012616e+00
1.00011796e+00
1.00011186e+00
1.00010772e+00
1.00010540e+00
1.00010471e+00
1.00010547e+00
1.00010745e+00
1.00011042e+00
1.00011413e+00
1.00011831e+00
1.00012268e+00
1.00012694e+00
1.00013080e+00
1.00013396e+00
1.00013611e+00
1.00013694e+00
1.00013614e+00
1.00013339e+00
1.00012839e+00
1.00012084e+00
1.00011042e+00
1.00009683e+00
1.00007979e+00
1.00005902e+00
1.00003424e+00
1.00000524e+00
9.99971783e-01
9.99933711e-01
9.99890897e-01
9.99843272e-01
9.99790832e-01
9.99733645e-01
9.99671855e-01
9.99605687e-01
9.99535446e-01
9.99461515e-01
9.99384350e-01
9.99304469e-01
9.99222439e-01
9.99138865e-01
9.99054370e-01
9.98969581e-01
9.98885109e-01
9.98801536e-01
9.98719402e-01
9.98639191e-01
9.98561326e-01
9.98486163e-01
9.98413993e-01
9.98345038e-01
9.98279462e-01
9.98217389e-01
9.98158885e-01
9.98103969e-01
9.98052681e-01
9.98005070e-01
9.97961045e-01
9.97920539e-01
9.97883826e-01
9.97850954e-01
9.97821304e-01
9.97795198e-01
9.97773934e-01
9.97756094e-01
9.97740317e-01
9.97730433e-01
9.97725279e-01
9.97721003e-01
9.97720054e-01
1.00256779e+00
1.00257078e+00
1.00257325e+00
1.00257418e+00
1.00257288e+00
1.00257052e+00
1.00256615e+00
1.00255845e+00
1.00254828e+00
1.00253542e+00
1.00251883e+00
1.00249835e+00
1.00247402e+00
1.00244546e+00
1.00241237e+00
1.00237473e+00
1.00233249e+00
1.00228563e+00
1.00223425e+00
1.00217852e+00
1.00211867e+00
1.00205502e+00
1.00198791e+00
1.00191779e+00
1.00184511e+00
1.00177034e+00
1.00169402e+00
1.00161664e+00
1.00153871e+00
1.00146071e+00
1.00138312e+00
1.00130636e+00
1.00123081e+00
1.00115682e+00
1.00108469e+00
1.00101466e+00
1.00094693e+00
1.00088168e+00
1.00081901e+00
1.00075903e+00
1.00070178e+00
1.00064730e+00
1.00059561e+00
1.00054669e+00
1.00050054e+00
1.00045714e+00
1.00041647e+00
1.00037849e+00
1.00034318e+00
1.00031052e+00
1.00028048e+00
1.00025304e+00
1.00022816e+00
1.00020582e+00
1.00018599e+00
1.00016861e+00
1.00015364e+00
1.00014102e+00
1.00013065e+00
1.00012244e+00
1.00011628e+00
1.00011203e+00
1.00010954e+00
1.00010862e+00
1.00010909e+00
1.00011073e+00
1.00011329e+00
1.00011654e+00
1.00012021e+00
1.00012402e+00
1.00012769e+00
1.00013092e+00
1.00013343e+00
1.00013491e+00
1.00013505e+00
1.00013355e+00
1.00013012e+00
1.00012443e+00
1.00011621e+00
1.00010514e+00
1.00009093e+00
1.00007330e+00
1.00005198e+00
1.00002671e+00
9.99997260e-01
9.99963425e-01
9.99925040e-01
9.99881987e-01
9.99834201e-01
9.99781682e-01
9.99724498e-01
9.99662792e-01
9.99596787e-01
9.99526782e-01
9.99453154e-01
9.99376351e-01
9.99296882e-01
9.99215305e-01
9.99132215e-01
9.99048228e-01
9.98963963e-01
9.98880028e-01
9.98797001e-01
9.98715421e-01
9.98635774e-01
9.98558485e-01
9.98483913e-01
9.98412354e-01
9.98344038e-01
9.98279130e-01
9.98217743e-01
9.98159966e-01
9.98105831e-01
9.98055308e-01
9.98008425e-01
9.97965263e-01
9.97925689e-01
9.97889535e-01
9.97857151e-01
9.97828722e-01
9.97803447e-01
9.97781463e-01
9.97764148e-01
9.97750371e-01
9.97739392e-01
9.97732871e-01
9.97730225e-01
9.97730338e-01
1.00256677e+00
1.00256955e+00
1.00257180e+00
1.00257192e+00
1.00257071e+00
1.00256820e+00
1.00256285e+00
1.00255510e+00
1.00254513e+00
1.00253186e+00
1.00251502e+00
1.00249471e+00
1.00247048e+00
1.00244196e+00
1.00240908e+00
1.00237175e+00
1.00232985e+00
1.00228338e+00
1.00223246e+00
1.00217723e+00
1.00211791e+00
1.00205481e+00
1.00198828e+00
1.00191872e+00
1.00184659e+00
1.00177235e+00
1.00169652e+00
1.00161958e+00
1.00154204e+00
1.00146439e+00
1.00138707e+00
1.00131051e+00
1.00123511e+00
1.00116121e+00
1.00108911e+00
1.00101907e+00
1.00095129e+00
1.00088596e+00
1.00082320e+00
1.00076310e+00
1.00070575e+00
1.00065117e+00
1.00059939e+00
1.00055041e+00
1.00050423e+00
1.00046082e+00
1.00042017e+00
1.00038225e+00
1.00034703e+00
1.00031448e+00
1.00028458e+00
1.00025728e+00
1.00023256e+00
1.00021038e+00
1.00019069e+00
1.00017345e+00
1.00015858e+00
1.00014602e+00
1.00013568e+00
1.00012745e+00
1.00012121e+00
1.00011682e+00
1.00011412e+00
1.00011294e+00
1.00011307e+00
1.00011430e+00
1.00011640e+00
1.00011912e+00
1.00012221e+00
1.00012539e+00
1.00012839e+00
1.00013092e+00
1.00013270e+00
1.00013342e+00
1.00013280e+00
1.00013053e+00
1.00012633e+00
1.00011989e+00
1.00011092e+00
1.00009914e+00
1.00008425e+00
1.00006598e+00
1.00004406e+00
1.00001824e+00
9.99988304e-01
9.99954052e-01
9.99915324e-01
9.99872008e-01
9.99824044e-01
9.99771434e-01
9.99714247e-01
9.99652627e-01
9.99586792e-01
9.99517038e-01
9.99443735e-01
9.99367321e-01
9.99288298e-01
9.99207213e-01
9.99124653e-01
9.99041225e-01
9.98957540e-01
9.98874202e-01
9.98791787e-01
9.98710831e-01
9.98631820e-01
9.98555184e-01
9.98481286e-01
9.98410422e-01
9.98342827e-01
9.98278678e-01
9.98218083e-01
9.98161110e-01
9.98107819e-01
9.98058215e-01
9.98012218e-01
9.97969848e-01
9.97931211e-01
9.97896123e-01
9.97864373e-01
9.97836388e-01
9.97812251e-01
9.97791089e-01
9.97773460e-01
9.97760250e-01
9.97749995e-01
9.97743033e-01
9.97740513e-01
9.97740623e-01
1.00256592e+00
1.00256806e+00
1.00256953e+00
1.00256988e+00
1.00256866e+00
1.00256516e+00
1.00255959e+00
1.00255209e+00
1.00254165e+00
1.00252803e+00
1.00251134e+00
1.00249107e+00
1.00246678e+00
1.00243840e+00
1.00240579e+00
1.00236873e+00
1.00232715e+00
1.00228111e+00
1.00223067e+00
1.00217596e+00
1.00211720e+00
1.00205468e+00
1.00198875e+00
1.00191979e+00
1.00184824e+00
1.00177456e+00
1.00169925e+00
1.00162279e+00
1.00154567e+00
1.00146838e+00
1.00139135e+00
1.00131503e+00
1.00123979e+00
1.00116599e+00
1.00109393e+00
1.00102388e+00
1.00095607e+00
1.00089066e+00
1.00082780e+00
1.00076761e+00
1.00071015e+00
1.00065547e+00
1.00060361e+00
1.00055458e+00
1.00050837e+00
1.00046497e+00
1.00042436e+00
1.00038651e+00
1.00035139e+00
1.00031897e+00
1.00028921e+00
1.00026208e+00
1.00023753e+00
1.00021551e+00
1.00019597e+00
1.00017885e+00
1.00016409e+00
1.00015158e+00
1.00014125e+00
1.00013298e+00
1.00012663e+00
1.00012207e+00
1.00011913e+00
1.00011762e+00
1.00011736e+00
1.00011813e+00
1.00011970e+00
1.00012183e+00
1.00012426e+00
1.00012674e+00
1.00012899e+00
1.00013074e+00
1.00013170e+00
1.00013160e+00
1.00013013e+00
1.00012702e+00
1.00012198e+00
1.00011472e+00
1.00010495e+00
1.00009239e+00
1.00007677e+00
1.00005780e+00
1.00003524e+00
1.00000884e+00
9.99978387e-01
9.99943691e-01
9.99904601e-01
9.99861008e-01
9.99812859e-01
9.99760156e-01
9.99702972e-01
9.99641448e-01
9.99575800e-01
9.99506319e-01
9.99433367e-01
9.99357376e-01
9.99278836e-01
9.99198285e-01
9.99116301e-01
9.99033482e-01
9.98950432e-01
9.98867747e-01
9.98786001e-01
9.98705729e-01
9.98627417e-01
9.98551497e-01
9.98478336e-01
9.98408235e-01
9.98341429e-01
9.98278097e-01
9.98218366e-01
9.98162291e-01
9.98109894e-01
9.98061220e-01
9.98016250e-01
9.97974851e-01
9.97937026e-01
9.97902923e-01
9.97872318e-01
9.97844928e-01
9.97821224e-01
9.97801264e-01
9.97784255e-01
9.97770679e-01
9.97761078e-01
9.97754886e-01
9.97751866e-01
9.97751495e-01
1.00256463e+00
1.00256671e+00
1.00256788e+00
1.00256794e+00
1.00256620e+00
1.00256244e+00
1.00255689e+00
1.00254894e+00
1.00253814e+00
1.00252459e+00
1.00250784e+00
1.00248740e+00
1.00246317e+00
1.00243499e+00
1.00240254e+00
1.00236572e+00
1.00232451e+00
1.00227889e+00
1.00222891e+00
1.00217471e+00
1.00211652e+00
1.00205460e+00
1.00198928e+00
1.00192093e+00
1.00184999e+00
1.00177689e+00
1.00170213e+00
1.00162616e+00
1.00154949e+00
1.00147258e+00
1.00139587e+00
1.00131980e+00
1.00124474e+00
1.00117106e+00
1.00109907e+00
1.00102904e+00
1.00096119e+00
1.00089573e+00
1.00083279e+00
1.00077251e+00
1.00071496e+00
1.00066021e+00
1.00060828e+00
1.00055921e+00
1.00051300e+00
1.00046962e+00
1.00042906e+00
1.00039130e+00
1.00035629e+00
1.00032401e+00
1.00029441e+00
1.00026745e+00
1.00024307e+00
1.00022122e+00
1.00020183e+00
1.00018484e+00
1.00017016e+00
1.00015770e+00
1.00014736e+00
1.00013901e+00
1.00013252e+00
1.00012775e+00
1.00012451e+00
1.00012264e+00
1.00012193e+00
1.00012217e+00
1.00012314e+00
1.00012460e+00
1.00012631e+00
1.00012801e+00
1.00012943e+00
1.00013032e+00
1.00013039e+00
1.00012938e+00
1.00012700e+00
1.00012298e+00
1.00011704e+00
1.00010889e+00
1.00009826e+00
1.00008488e+00
1.00006847e+00
1.00004877e+00
1.00002553e+00
9.99998520e-01
9.99967530e-01
9.99932376e-01
9.99892915e-01
9.99849043e-01
9.99800710e-01
9.99747925e-01
9.99690758e-01
9.99629350e-01
9.99563915e-01
9.99494737e-01
9.99422171e-01
9.99346641e-01
9.99268625e-01
9.99188654e-01
9.99107293e-01
9.99025130e-01
9.98942763e-01
9.98860782e-01
9.98779755e-01
9.98700216e-01
9.98622653e-01
9.98547496e-01
9.98475117e-01
9.98405824e-01
9.98339857e-01
9.98277387e-01
9.98218545e-01
9.98163412e-01
9.98111997e-01
9.98064276e-01
9.98020278e-01
9.97979969e-01
9.97943171e-01
9.97909879e-01
9.97880237e-01
9.97853976e-01
9.97830882e-01
9.97811382e-01
9.97795308e-01
9.97782234e-01
9.97772714e-01
9.97766744e-01
9.97763765e-01
9.97763562e-01
1.00256362e+00
1.00256565e+00
1.00256669e+00
1.00256626e+00
1.00256416e+00
1.00256036e+00
1.00255445e+00
1.00254605e+00
1.00253521e+00
1.00252154e+00
1.00250452e+00
1.00248405e+00
1.00245992e+00
1.00243178e+00
1.00239946e+00
1.00236290e+00
1.00232201e+00
1.00227676e+00
1.00222722e+00
1.00217353e+00
1.00211589e+00
1.00205455e+00
1.00198983e+00
1.00192210e+00
1.00185177e+00
1.00177927e+00
1.00170506e+00
1.00162961e+00
1.00155341e+00
1.00147690e+00
1.00140053e+00
1.00132473e+00
1.00124989e+00
1.00117636e+00
1.00110446e+00
1.00103446e+00
1.00096661e+00
1.00090111e+00
1.00083812e+00
1.00077777e+00
1.00072016e+00
1.00066535e+00
1.00061339e+00
1.00056430e+00
1.00051809e+00
1.00047476e+00
1.00043428e+00
1.00039662e+00
1.00036175e+00
1.00032963e+00
1.00030020e+00
1.00027342e+00
1.00024922e+00
1.00022754e+00
1.00020830e+00
1.00019143e+00
1.00017682e+00
1.00016438e+00
1.00015400e+00
1.00014555e+00
1.00013887e+00
1.00013383e+00
1.00013025e+00
1.00012795e+00
1.00012673e+00
1.00012637e+00
1.00012667e+00
1.00012739e+00
1.00012830e+00
1.00012914e+00
1.00012966e+00
1.00012960e+00
1.00012871e+00
1.00012672e+00
1.00012336e+00
1.00011836e+00
1.00011145e+00
1.00010237e+00
1.00009083e+00
1.00007658e+00
1.00005935e+00
1.00003888e+00
1.00001495e+00
9.99987310e-01
9.99955770e-01
9.99920154e-01
9.99880321e-01
9.99836177e-01
9.99787674e-01
9.99734823e-01
9.99677696e-01
9.99616433e-01
9.99551242e-01
9.99482402e-01
9.99410262e-01
9.99335234e-01
9.99257787e-01
9.99178439e-01
9.99097745e-01
9.99016285e-01
9.98934645e-01
9.98853410e-01
9.98773142e-01
9.98694374e-01
9.98617594e-01
9.98543234e-01
9.98471668e-01
9.98403206e-01
9.98338096e-01
9.98276521e-01
9.98218593e-01
9.98164393e-01
9.98113967e-01
9.98067279e-01
9.98024263e-01
9.97984937e-01
9.97949246e-01
9.97916977e-01
9.97888124e-01
9.97862813e-01
9.97840743e-01
9.97821762e-01
9.97806203e-01
9.97793914e-01
9.97784679e-01
9.97778713e-01
9.97775982e-01
9.97775950e-01
1.00256350e+00
1.00256530e+00
1.00256600e+00
1.00256530e+00
1.00256299e+00
1.00255884e+00
1.00255253e+00
1.00254398e+00
1.00253294e+00
1.00251893e+00
1.00250178e+00
1.00248128e+00
1.00245707e+00
1.00242893e+00
1.00239675e+00
1.00236038e+00
1.00231973e+00
1.00227480e+00
1.00222567e+00
1.00217245e+00
1.00211532e+00
1.00205453e+00
1.00199040e+00
1.00192327e+00
1.00185353e+00
1.00178162e+00
1.00170798e+00
1.00163306e+00
1.00155733e+00
1.00148125e+00
1.00140524e+00
1.00132975e+00
1.00125514e+00
1.00118178e+00
1.00111000e+00
1.00104008e+00
1.00097226e+00
1.00090676e+00
1.00084374e+00
1.00078336e+00
1.00072571e+00
1.00067088e+00
1.00061891e+00
1.00056983e+00
1.00052367e+00
1.00048041e+00
1.00044003e+00
1.00040250e+00
1.00036779e+00
1.00033584e+00
1.00030660e+00
1.00028001e+00
1.00025599e+00
1.00023448e+00
1.00021538e+00
1.00019861e+00
1.00018406e+00
1.00017162e+00
1.00016117e+00
1.00015256e+00
1.00014566e+00
1.00014031e+00
1.00013632e+00
1.00013353e+00
1.00013172e+00
1.00013070e+00
1.00013026e+00
1.00013016e+00
1.00013018e+00
1.00013008e+00
1.00012962e+00
1.00012856e+00
1.00012663e+00
1.00012359e+00
1.00011919e+00
1.00011315e+00
1.00010522e+00
1.00009515e+00
1.00008266e+00
1.00006751e+00
1.00004943e+00
1.00002818e+00
1.00000352e+00
9.99975246e-01
9.99943154e-01
9.99907077e-01
9.99866884e-01
9.99822482e-01
9.99773829e-01
9.99720938e-01
9.99663881e-01
9.99602796e-01
9.99537886e-01
9.99469426e-01
9.99397753e-01
9.99323270e-01
9.99246435e-01
9.99167754e-01
9.99087770e-01
9.99007051e-01
9.98926177e-01
9.98845721e-01
9.98766244e-01
9.98688274e-01
9.98612296e-01
9.98538749e-01
9.98468008e-01
9.98400387e-01
9.98336134e-01
9.98275442e-01
9.98218438e-01
9.98165179e-01
9.98115701e-01
9.98070015e-01
9.98028047e-01
9.97989698e-01
9.97954969e-01
9.97923779e-01
9.97895905e-01
9.97871346e-01
9.97850149e-01
9.97832041e-01
9.97816986e-01
9.97805149e-01
9.97796392e-01
9.97790665e-01
9.97787946e-01
9.97787895e-01
1.00256431e+00
1.00256589e+00
1.00256627e+00
1.00256534e+00
1.00256273e+00
1.00255818e+00
1.00255161e+00
1.00254282e+00
1.00253140e+00
1.00251714e+00
1.00249985e+00
1.00247916e+00
1.00245481e+00
1.00242666e+00
1.00239453e+00
1.00235825e+00
1.00231778e+00
1.00227313e+00
1.00222433e+00
1.00217150e+00
1.00211484e+00
1.00205456e+00
1.00199097e+00
1.00192441e+00
1.00185525e+00
1.00178391e+00
1.00171082e+00
1.00163643e+00
1.00156119e+00
1.00148554e+00
1.00140992e+00
1.00133475e+00
1.00126041e+00
1.00118726e+00
1.00111563e+00
1.00104581e+00
1.00097806e+00
1.00091259e+00
1.00084960e+00
1.00078922e+00
1.00073158e+00
1.00067676e+00
1.00062482e+00
1.00057580e+00
1.00052971e+00
1.00048655e+00
1.00044630e+00
1.00040894e+00
1.00037440e+00
1.00034265e+00
1.00031361e+00
1.00028722e+00
1.00026339e+00
1.00024204e+00
1.00022308e+00
1.00020640e+00
1.00019188e+00
1.00017941e+00
1.00016885e+00
1.00016005e+00
1.00015287e+00
1.00014715e+00
1.00014270e+00
1.00013934e+00
1.00013688e+00
1.00013512e+00
1.00013386e+00
1.00013287e+00
1.00013193e+00
1.00013082e+00
1.00012931e+00
1.00012715e+00
1.00012412e+00
1.00011997e+00
1.00011446e+00
1.00010733e+00
1.00009834e+00
1.00008724e+00
1.00007376e+00
1.00005767e+00
1.00003872e+00
1.00001667e+00
9.99991293e-01
9.99962378e-01
9.99929738e-01
9.99893211e-01
9.99852672e-01
9.99808034e-01
9.99759258e-01
9.99706358e-01
9.99649405e-01
9.99588535e-01
9.99523948e-01
9.99455907e-01
9.99384744e-01
9.99310849e-01
9.99234668e-01
9.99156694e-01
9.99077458e-01
9.98997516e-01
9.98917436e-01
9.98837786e-01
9.98759118e-01
9.98681959e-01
9.98606794e-01
9.98534059e-01
9.98464136e-01
9.98397346e-01
9.98333939e-01
9.98274106e-01
9.98217985e-01
9.98165652e-01
9.98117112e-01
9.98072361e-01
9.98031378e-01
9.97994054e-01
9.97960266e-01
9.97929995e-01
9.97903130e-01
9.97879453e-01
9.97858962e-01
9.97841638e-01
9.97827265e-01
9.97815840e-01
9.97807462e-01
9.97802031e-01
9.97799341e-01
9.97799264e-01
1.00256625e+00
1.00256769e+00
1.00256781e+00
1.00256655e+00
1.00256359e+00
1.00255874e+00
1.00255186e+00
1.00254267e+00
1.00253092e+00
1.00251642e+00
1.00249882e+00
1.00247787e+00
1.00245337e+00
1.00242512e+00
1.00239291e+00
1.00235666e+00
1.00231630e+00
1.00227183e+00
1.00222328e+00
1.00217078e+00
1.00211450e+00
1.00205467e+00
1.00199157e+00
1.00192553e+00
1.00185691e+00
1.00178612e+00
1.00171356e+00
1.00163969e+00
1.00156493e+00
1.00148972e+00
1.00141450e+00
1.00133967e+00
1.00126562e+00
1.00119271e+00
1.00112127e+00
1.00105159e+00
1.00098395e+00
1.00091857e+00
1.00085564e+00
1.00079531e+00
1.00073772e+00
1.00068296e+00
1.00063110e+00
1.00058217e+00
1.00053620e+00
1.00049319e+00
1.00045310e+00
1.00041592e+00
1.00038160e+00
1.00035006e+00
1.00032124e+00
1.00029506e+00
1.00027142e+00
1.00025024e+00
1.00023140e+00
1.00021479e+00
1.00020028e+00
1.00018774e+00
1.00017703e+00
1.00016800e+00
1.00016049e+00
1.00015433e+00
1.00014935e+00
1.00014537e+00
1.00014219e+00
1.00013961e+00
1.00013745e+00
1.00013549e+00
1.00013352e+00
1.00013132e+00
1.00012868e+00
1.00012537e+00
1.00012118e+00
1.00011586e+00
1.00010918e+00
1.00010092e+00
1.00009082e+00
1.00007865e+00
1.00006416e+00
1.00004712e+00
1.00002728e+00
1.00000442e+00
9.99978312e-01
9.99948761e-01
9.99915583e-01
9.99878624e-01
9.99837760e-01
9.99792912e-01
9.99744043e-01
9.99691167e-01
9.99634356e-01
9.99573741e-01
9.99509515e-01
9.99441937e-01
9.99371325e-01
9.99298058e-01
9.99222570e-01
9.99145339e-01
9.99066882e-01
9.98987743e-01
9.98908480e-01
9.98829650e-01
9.98751801e-01
9.98675454e-01
9.98601095e-01
9.98529161e-01
9.98460036e-01
9.98394045e-01
9.98331450e-01
9.98272444e-01
9.98217159e-01
9.98165684e-01
9.98118045e-01
9.98074203e-01
9.98034116e-01
9.97997732e-01
9.97964911e-01
9.97935518e-01
9.97909506e-01
9.97886733e-01
9.97867012e-01
9.97850318e-01
9.97836580e-01
9.97825679e-01
9.97817627e-01
9.97812380e-01
9.97809765e-01
9.97809738e-01
1.00256963e+00
1.00257090e+00
1.00257075e+00
1.00256915e+00
1.00256587e+00
1.00256069e+00
1.00255341e+00
1.00254382e+00
1.00253173e+00
1.00251685e+00
1.00249888e+00
1.00247764e+00
1.00245290e+00
1.00242441e+00
1.00239207e+00
1.00235575e+00
1.00231540e+00
1.00227099e+00
1.00222261e+00
1.00217034e+00
1.00211437e+00
1.00205490e+00
1.00199222e+00
1.00192664e+00
1.00185851e+00
1.00178822e+00
1.00171618e+00
1.00164280e+00
1.00156851e+00
1.00149375e+00
1.00141893e+00
1.00134446e+00
1.00127072e+00
1.00119808e+00
1.00112686e+00
1.00105737e+00
1.00098989e+00
1.00092463e+00
1.00086181e+00
1.00080159e+00
1.00074410e+00
1.00068945e+00
1.00063771e+00
1.00058893e+00
1.00054312e+00
1.00050029e+00
1.00046042e+00
1.00042346e+00
1.00038937e+00
1.00035807e+00
1.00032949e+00
1.00030353e+00
1.00028009e+00
1.00025907e+00
1.00024034e+00
1.00022378e+00
1.00020925e+00
1.00019661e+00
1.00018571e+00
1.00017639e+00
1.00016850e+00
1.00016185e+00
1.00015627e+00
1.00015159e+00
1.00014761e+00