# vtk DataFile Version 2.0
LBM Flow Field - Timestep 1180
ASCII
DATASET STRUCTURED_POINTS
DIMENSIONS 128 128 1
ORIGIN 0.0 0.0 0.0
SPACING 1.0 1.0 1.0
POINT_DATA 16384
SCALARS density double 1
LOOKUP_TABLE default
1.00215208e+00
1.00214509e+00
1.00213399e+00
1.00210869e+00
1.00207638e+00
1.00204053e+00
1.00199750e+00
1.00194724e+00
1.00189141e+00
1.00182973e+00
1.00176148e+00
1.00168710e+00
1.00160702e+00
1.00152131e+00
1.00143026e+00
1.00133446e+00
1.00123453e+00
1.00113113e+00
1.00102513e+00
1.00091747e+00
1.00080920e+00
1.00070140e+00
1.00059520e+00
1.00049174e+00
1.00039210e+00
1.00029733e+00
1.00020835e+00
1.00012599e+00
1.00005090e+00
9.99983602e-01
9.99924447e-01
9.99873620e-01
9.99831143e-01
9.99796894e-01
9.99770614e-01
9.99751926e-01
9.99740357e-01
9.99735355e-01
9.99736309e-01
9.99742568e-01
9.99753460e-01
9.99768303e-01
9.99786421e-01
9.99807156e-01
9.99829874e-01
9.99853976e-01
9.99878902e-01
9.99904133e-01
9.99929201e-01
9.99953688e-01
9.99977225e-01
9.99999499e-01
1.00002025e+00
1.00003928e+00
1.00005643e+00
1.00007160e+00
1.00008477e+00
1.00009593e+00
1.00010515e+00
1.00011254e+00
1.00011824e+00
1.00012246e+00
1.00012541e+00
1.00012737e+00
1.00012861e+00
1.00012945e+00
1.00013020e+00
1.00013118e+00
1.00013273e+00
1.00013515e+00
1.00013874e+00
1.00014375e+00
1.00015042e+00
1.00015891e+00
1.00016936e+00
1.00018183e+00
1.00019629e+00
1.00021266e+00
1.00023077e+00
1.00025035e+00
1.00027106e+00
1.00029246e+00
1.00031405e+00
1.00033523e+00
1.00035537e+00
1.00037377e+00
1.00038971e+00
1.00040245e+00
1.00041128e+00
1.00041549e+00
1.00041446e+00
1.00040762e+00
1.00039454e+00
1.00037486e+00
1.00034840e+00
1.00031508e+00
1.00027500e+00
1.00022841e+00
1.00017567e+00
1.00011732e+00
1.00005399e+00
9.99986415e-01
9.99915407e-01
9.99841829e-01
9.99766570e-01
9.99690520e-01
9.99614541e-01
9.99539449e-01
9.99466001e-01
9.99394857e-01
9.99326584e-01
9.99261671e-01
9.99200495e-01
9.99143266e-01
9.99090156e-01
9.99041339e-01
9.98996730e-01
9.98956063e-01
9.98919435e-01
9.98886953e-01
9.98857740e-01
9.98831363e-01
9.98808905e-01
9.98790127e-01
9.98772285e-01
9.98758122e-01
9.98751187e-01
9.98745565e-01
1.00214327e+00
1.00213100e+00
1.00211616e+00
1.00209271e+00
1.00206137e+00
1.00202491e+00
1.00198203e+00
1.00193260e+00
1.00187703e+00
1.00181550e+00
1.00174781e+00
1.00167409e+00
1.00159461e+00
1.00150962e+00
1.00141946e+00
1.00132462e+00
1.00122569e+00
1.00112338e+00
1.00101850e+00
1.00091198e+00
1.00080483e+00
1.00069810e+00
1.00059291e+00
1.00049036e+00
1.00039151e+00
1.00029738e+00
1.00020890e+00
1.00012686e+00
1.00005195e+00
9.99984678e-01
9.99925402e-01
9.99874324e-01
9.99831487e-01
9.99796786e-01
9.99769982e-01
9.99750720e-01
9.99738546e-01
9.99732927e-01
9.99733267e-01
9.99738932e-01
9.99749259e-01
9.99763578e-01
9.99781221e-01
9.99801536e-01
9.99823894e-01
9.99847699e-01
9.99872392e-01
9.99897458e-01
9.99922430e-01
9.99946887e-01
9.99970462e-01
9.99992842e-01
1.00001376e+00
1.00003303e+00
1.00005047e+00
1.00006601e+00
1.00007959e+00
1.00009122e+00
1.00010096e+00
1.00010892e+00
1.00011523e+00
1.00012008e+00
1.00012371e+00
1.00012637e+00
1.00012833e+00
1.00012989e+00
1.00013137e+00
1.00013309e+00
1.00013535e+00
1.00013847e+00
1.00014272e+00
1.00014835e+00
1.00015559e+00
1.00016460e+00
1.00017550e+00
1.00018834e+00
1.00020309e+00
1.00021967e+00
1.00023788e+00
1.00025747e+00
1.00027809e+00
1.00029931e+00
1.00032062e+00
1.00034144e+00
1.00036114e+00
1.00037904e+00
1.00039442e+00
1.00040658e+00
1.00041481e+00
1.00041843e+00
1.00041685e+00
1.00040951e+00
1.00039599e+00
1.00037598e+00
1.00034927e+00
1.00031583e+00
1.00027576e+00
1.00022929e+00
1.00017682e+00
1.00011884e+00
1.00005600e+00
9.99989017e-01
9.99918678e-01
9.99845834e-01
9.99771351e-01
9.99696099e-01
9.99620922e-01
9.99546619e-01
9.99473922e-01
9.99403484e-01
9.99335871e-01
9.99271547e-01
9.99210871e-01
9.99154101e-01
9.99101410e-01
9.99052882e-01
9.99008477e-01
9.98968118e-01
9.98931741e-01
9.98899204e-01
9.98870039e-01
9.98844239e-01
9.98821846e-01
9.98802681e-01
9.98785397e-01
9.98772578e-01
9.98763081e-01
9.98754141e-01
1.00212535e+00
1.00210865e+00
1.00208636e+00
1.00206480e+00
1.00203641e+00
1.00199875e+00
1.00195549e+00
1.00190733e+00
1.00185248e+00
1.00179116e+00
1.00172420e+00
1.00165147e+00
1.00157285e+00
1.00148880e+00
1.00139977e+00
1.00130611e+00
1.00120839e+00
1.00110733e+00
1.00100374e+00
1.00089848e+00
1.00079254e+00
1.00068698e+00
1.00058285e+00
1.00048123e+00
1.00038320e+00
1.00028973e+00
1.00020176e+00
1.00012008e+00
1.00004536e+00
9.99978137e-01
9.99918780e-01
9.99867504e-01
9.99824370e-01
9.99789293e-01
9.99762057e-01
9.99742326e-01
9.99729665e-01
9.99723557e-01
9.99723425e-01
9.99728645e-01
9.99738570e-01
9.99752537e-01
9.99769886e-01
9.99789971e-01
9.99812169e-01
9.99835887e-01
9.99860568e-01
9.99885700e-01
9.99910814e-01
9.99935492e-01
9.99959365e-01
9.99982120e-01
1.00000349e+00
1.00002328e+00
1.00004132e+00
1.00005752e+00
1.00007183e+00
1.00008426e+00
1.00009485e+00
1.00010370e+00
1.00011095e+00
1.00011680e+00
1.00012145e+00
1.00012515e+00
1.00012817e+00
1.00013080e+00
1.00013336e+00
1.00013613e+00
1.00013944e+00
1.00014357e+00
1.00014879e+00
1.00015535e+00
1.00016345e+00
1.00017326e+00
1.00018487e+00
1.00019834e+00
1.00021363e+00
1.00023063e+00
1.00024917e+00
1.00026898e+00
1.00028971e+00
1.00031094e+00
1.00033215e+00
1.00035279e+00
1.00037223e+00
1.00038980e+00
1.00040480e+00
1.00041655e+00
1.00042435e+00
1.00042756e+00
1.00042559e+00
1.00041792e+00
1.00040415e+00
1.00038396e+00
1.00035719e+00
1.00032380e+00
1.00028390e+00
1.00023774e+00
1.00018569e+00
1.00012827e+00
1.00006609e+00
9.99999866e-01
9.99930369e-01
9.99858428e-01
9.99784892e-01
9.99710610e-01
9.99636406e-01
9.99563059e-01
9.99491281e-01
9.99421716e-01
9.99354924e-01
9.99291338e-01
9.99231313e-01
9.99175153e-01
9.99123009e-01
9.99074861e-01
9.99030791e-01
9.98990903e-01
9.98954800e-01
9.98922118e-01
9.98893309e-01
9.98868310e-01
9.98845458e-01
9.98825312e-01
9.98810252e-01
9.98798329e-01
9.98783997e-01
9.98771629e-01
1.00208674e+00
1.00207137e+00
1.00205126e+00
1.00202745e+00
1.00199750e+00
1.00196147e+00
1.00191944e+00
1.00187121e+00
1.00181690e+00
1.00175677e+00
1.00169073e+00
1.00161884e+00
1.00154137e+00
1.00145859e+00
1.00137079e+00
1.00127845e+00
1.00118213e+00
1.00108250e+00
1.00098032e+00
1.00087647e+00
1.00077190e+00
1.00066762e+00
1.00056470e+00
1.00046417e+00
1.00036709e+00
1.00027444e+00
1.00018712e+00
1.00010594e+00
1.00003157e+00
9.99964550e-01
9.99905257e-01
9.99853926e-01
9.99810635e-01
9.99775321e-01
9.99747785e-01
9.99727714e-01
9.99714691e-01
9.99708220e-01
9.99707739e-01
9.99712641e-01
9.99722288e-01
9.99736032e-01
9.99753221e-01
9.99773216e-01
9.99795401e-01
9.99819185e-01
9.99844018e-01
9.99869389e-01
9.99894830e-01
9.99919925e-01
9.99944306e-01
9.99967657e-01
9.99989717e-01
1.00001027e+00
1.00002918e+00
1.00004632e+00
1.00006164e+00
1.00007515e+00
1.00008690e+00
1.00009697e+00
1.00010550e+00
1.00011266e+00
1.00011867e+00
1.00012375e+00
1.00012818e+00
1.00013223e+00
1.00013619e+00
1.00014036e+00
1.00014503e+00
1.00015048e+00
1.00015697e+00
1.00016474e+00
1.00017397e+00
1.00018481e+00
1.00019737e+00
1.00021166e+00
1.00022766e+00
1.00024526e+00
1.00026427e+00
1.00028443e+00
1.00030538e+00
1.00032671e+00
1.00034793e+00
1.00036848e+00
1.00038774e+00
1.00040507e+00
1.00041979e+00
1.00043124e+00
1.00043876e+00
1.00044170e+00
1.00043952e+00
1.00043172e+00
1.00041790e+00
1.00039779e+00
1.00037122e+00
1.00033817e+00
1.00029875e+00
1.00025320e+00
1.00020190e+00
1.00014536e+00
1.00008417e+00
1.00001903e+00
9.99950684e-01
9.99879949e-01
9.99807648e-01
9.99734603e-01
9.99661616e-01
9.99589446e-01
9.99518792e-01
9.99450273e-01
9.99384430e-01
9.99321718e-01
9.99262480e-01
9.99206965e-01
9.99155357e-01
9.99107749e-01
9.99064108e-01
9.99024381e-01
9.98988521e-01
9.98956339e-01
9.98927553e-01
9.98902090e-01
9.98879836e-01
9.98860632e-01
9.98844383e-01
9.98830542e-01
9.98817536e-01
9.98805848e-01
1.00203563e+00
1.00202138e+00
1.00200387e+00
1.00197842e+00
1.00194791e+00
1.00191342e+00
1.00187208e+00
1.00182406e+00
1.00177076e+00
1.00171187e+00
1.00164683e+00
1.00157607e+00
1.00150000e+00
1.00141865e+00
1.00133232e+00
1.00124155e+00
1.00114687e+00
1.00104890e+00
1.00094838e+00
1.00084618e+00
1.00074321e+00
1.00064046e+00
1.00053896e+00
1.00043974e+00
1.00034382e+00
1.00025217e+00
1.00016569e+00
1.00008518e+00
1.00001131e+00
9.99944624e-01
9.99885523e-01
9.99834252e-01
9.99790910e-01
9.99755454e-01
9.99727709e-01
9.99707382e-01
9.99694081e-01
9.99687327e-01
9.99686577e-01
9.99691243e-01
9.99700700e-01
9.99714312e-01
9.99731439e-01
9.99751451e-01
9.99773738e-01
9.99797716e-01
9.99822839e-01
9.99848599e-01
9.99874532e-01
9.99900222e-01
9.99925304e-01
9.99949461e-01
9.99972430e-01
9.99994001e-01
1.00001401e+00
1.00003236e+00
1.00004899e+00
1.00006389e+00
1.00007710e+00
1.00008871e+00
1.00009885e+00
1.00010767e+00
1.00011538e+00
1.00012220e+00
1.00012838e+00
1.00013419e+00
1.00013990e+00
1.00014580e+00
1.00015217e+00
1.00015926e+00
1.00016733e+00
1.00017658e+00
1.00018721e+00
1.00019934e+00
1.00021307e+00
1.00022840e+00
1.00024530e+00
1.00026365e+00
1.00028328e+00
1.00030390e+00
1.00032518e+00
1.00034670e+00
1.00036799e+00
1.00038851e+00
1.00040765e+00
1.00042481e+00
1.00043932e+00
1.00045054e+00
1.00045784e+00
1.00046062e+00
1.00045834e+00
1.00045054e+00
1.00043685e+00
1.00041699e+00
1.00039084e+00
1.00035836e+00
1.00031968e+00
1.00027503e+00
1.00022479e+00
1.00016945e+00
1.00010958e+00
1.00004585e+00
9.99979003e-01
9.99909809e-01
9.99839067e-01
9.99767573e-01
9.99696100e-01
9.99625383e-01
9.99556101e-01
9.99488858e-01
9.99424168e-01
9.99362488e-01
9.99304173e-01
9.99249439e-01
9.99198455e-01
9.99151408e-01
9.99108257e-01
9.99068785e-01
9.99033089e-01
9.99001294e-01
9.98972691e-01
9.98946869e-01
9.98924779e-01
9.98906274e-01
9.98889147e-01
9.98873991e-01
9.98862723e-01
9.98851769e-01
1.00197545e+00
1.00196053e+00
1.00194178e+00
1.00191802e+00
1.00188902e+00
1.00185383e+00
1.00181285e+00
1.00176658e+00
1.00171445e+00
1.00165633e+00
1.00159266e+00
1.00152356e+00
1.00144898e+00
1.00136921e+00
1.00128468e+00
1.00119576e+00
1.00110293e+00
1.00100684e+00
1.00090824e+00
1.00080793e+00
1.00070679e+00
1.00060579e+00
1.00050593e+00
1.00040823e+00
1.00031366e+00
1.00022320e+00
1.00013774e+00
1.00005805e+00
9.99984831e-01
9.99918625e-01
9.99859844e-01
9.99808752e-01
9.99765467e-01
9.99729969e-01
9.99702106e-01
9.99681611e-01
9.99668111e-01
9.99661153e-01
9.99660213e-01
9.99664720e-01
9.99674068e-01
9.99687633e-01
9.99704789e-01
9.99724915e-01
9.99747410e-01
9.99771699e-01
9.99797241e-01
9.99823531e-01
9.99850111e-01
9.99876567e-01
9.99902534e-01
9.99927698e-01
9.99951793e-01
9.99974608e-01
9.99995982e-01
1.00001580e+00
1.00003401e+00
1.00005059e+00
1.00006557e+00
1.00007904e+00
1.00009110e+00
1.00010192e+00
1.00011166e+00
1.00012056e+00
1.00012883e+00
1.00013674e+00
1.00014455e+00
1.00015251e+00
1.00016088e+00
1.00016992e+00
1.00017986e+00
1.00019088e+00
1.00020317e+00
1.00021683e+00
1.00023194e+00
1.00024850e+00
1.00026648e+00
1.00028575e+00
1.00030611e+00
1.00032732e+00
1.00034902e+00
1.00037083e+00
1.00039227e+00
1.00041281e+00
1.00043190e+00
1.00044894e+00
1.00046329e+00
1.00047435e+00
1.00048152e+00
1.00048422e+00
1.00048195e+00
1.00047428e+00
1.00046085e+00
1.00044142e+00
1.00041586e+00
1.00038416e+00
1.00034645e+00
1.00030295e+00
1.00025403e+00
1.00020016e+00
1.00014190e+00
1.00007989e+00
1.00001484e+00
9.99947490e-01
9.99878606e-01
9.99808954e-01
9.99739279e-01
9.99670283e-01
9.99602620e-01
9.99536881e-01
9.99473575e-01
9.99413114e-01
9.99355852e-01
9.99302072e-01
9.99251911e-01
9.99205429e-01
9.99162739e-01
9.99123844e-01
9.99088485e-01
9.99056540e-01
9.99028147e-01
9.99003053e-01
9.98980672e-01
9.98961142e-01
9.98944682e-01
9.98930533e-01
9.98918089e-01
9.98906576e-01
1.00190285e+00
1.00188815e+00
1.00186909e+00
1.00184656e+00
1.00181823e+00
1.00178342e+00
1.00174368e+00
1.00169865e+00
1.00164755e+00
1.00159085e+00
1.00152888e+00
1.00146142e+00
1.00138856e+00
1.00131073e+00
1.00122821e+00
1.00114133e+00
1.00105061e+00
1.00095668e+00
1.00086023e+00
1.00076202e+00
1.00066294e+00
1.00056392e+00
1.00046592e+00
1.00036992e+00
1.00027691e+00
1.00018783e+00
1.00010355e+00
1.00002485e+00
9.99952436e-01
9.99886850e-01
9.99828518e-01
9.99777723e-01
9.99734605e-01
9.99699165e-01
9.99671277e-01
9.99650699e-01
9.99637083e-01
9.99629998e-01
9.99628945e-01
9.99633370e-01
9.99642687e-01
9.99656287e-01
9.99673558e-01
9.99693892e-01
9.99716697e-01
9.99741408e-01
9.99767489e-01
9.99794445e-01
9.99821819e-01
9.99849202e-01
9.99876231e-01
9.99902593e-01
9.99928022e-01
9.99952306e-01
9.99975279e-01
9.99996827e-01
1.00001688e+00
1.00003542e+00
1.00005247e+00
1.00006810e+00
1.00008241e+00
1.00009553e+00
1.00010764e+00
1.00011894e+00
1.00012964e+00
1.00013997e+00
1.00015018e+00
1.00016052e+00
1.00017121e+00
1.00018249e+00
1.00019457e+00
1.00020763e+00
1.00022181e+00
1.00023723e+00
1.00025393e+00
1.00027191e+00
1.00029113e+00
1.00031146e+00
1.00033270e+00
1.00035459e+00
1.00037682e+00
1.00039898e+00
1.00042064e+00
1.00044128e+00
1.00046037e+00
1.00047733e+00
1.00049158e+00
1.00050254e+00
1.00050963e+00
1.00051234e+00
1.00051017e+00
1.00050272e+00
1.00048967e+00
1.00047081e+00
1.00044601e+00
1.00041528e+00
1.00037873e+00
1.00033660e+00
1.00028924e+00
1.00023710e+00
1.00018071e+00
1.00012069e+00
1.00005771e+00
9.99992491e-01
9.99925748e-01
9.99858216e-01
9.99790606e-01
9.99723595e-01
9.99657803e-01
9.99593795e-01
9.99532075e-01
9.99473051e-01
9.99417037e-01
9.99364320e-01
9.99315104e-01
9.99269416e-01
9.99227283e-01
9.99188847e-01
9.99153972e-01
9.99122294e-01
9.99093935e-01
9.99069067e-01
9.99046896e-01
9.99027090e-01
9.99010734e-01
9.98997131e-01
9.98984189e-01
9.98972687e-01
1.00181811e+00
1.00180443e+00
1.00178677e+00
1.00176417e+00
1.00173613e+00
1.00170312e+00
1.00166464e+00
1.00162035e+00
1.00157081e+00
1.00151605e+00
1.00145572e+00
1.00139002e+00
1.00131928e+00
1.00124363e+00
1.00116327e+00
1.00107867e+00
1.00099032e+00
1.00089877e+00
1.00080467e+00
1.00070880e+00
1.00061200e+00
1.00051516e+00
1.00041922e+00
1.00032514e+00
1.00023388e+00
1.00014635e+00
1.00006343e+00
9.99985899e-01
9.99914440e-01
9.99849619e-01
9.99791874e-01
9.99741503e-01
9.99698668e-01
9.99663394e-01
9.99635582e-01
9.99615013e-01
9.99601368e-01
9.99594240e-01
9.99593152e-01
9.99597573e-01
9.99606936e-01
9.99620651e-01
9.99638120e-01
9.99658750e-01
9.99681960e-01
9.99707196e-01
9.99733931e-01
9.99761676e-01
9.99789981e-01
9.99818442e-01
9.99846698e-01
9.99874438e-01
9.99901397e-01
9.99927359e-01
9.99952158e-01
9.99975674e-01
9.99997831e-01
1.00001860e+00
1.00003800e+00
1.00005608e+00
1.00007292e+00
1.00008866e+00
1.00010345e+00
1.00011746e+00
1.00013089e+00
1.00014396e+00
1.00015688e+00
1.00016988e+00
1.00018317e+00
1.00019696e+00
1.00021144e+00
1.00022678e+00
1.00024308e+00
1.00026046e+00
1.00027894e+00
1.00029852e+00
1.00031913e+00
1.00034065e+00
1.00036288e+00
1.00038556e+00
1.00040839e+00
1.00043099e+00
1.00045292e+00
1.00047371e+00
1.00049285e+00
1.00050979e+00
1.00052399e+00
1.00053490e+00
1.00054198e+00
1.00054474e+00
1.00054275e+00
1.00053562e+00
1.00052307e+00
1.00050490e+00
1.00048100e+00
1.00045139e+00
1.00041618e+00
1.00037562e+00
1.00033002e+00
1.00027983e+00
1.00022556e+00
1.00016778e+00
1.00010713e+00
1.00004429e+00
9.99979954e-01
9.99914803e-01
9.99849513e-01
9.99784730e-01
9.99721052e-01
9.99659010e-01
9.99599076e-01
9.99541674e-01
9.99487126e-01
9.99435648e-01
9.99387448e-01
9.99342706e-01
9.99301393e-01
9.99263420e-01
9.99228908e-01
9.99197850e-01
9.99169817e-01
9.99144677e-01
9.99122740e-01
9.99103695e-01
9.99087001e-01
9.99072894e-01
9.99060811e-01
9.99049974e-01
1.00172356e+00
1.00171039e+00
1.00169355e+00
1.00167158e+00
1.00164464e+00
1.00161286e+00
1.00157547e+00
1.00153277e+00
1.00148506e+00
1.00143200e+00
1.00137357e+00
1.00131008e+00
1.00124160e+00
1.00116824e+00
1.00109032e+00
1.00100827e+00
1.00092248e+00
1.00083350e+00
1.00074200e+00
1.00064869e+00
1.00055438e+00
1.00045993e+00
1.00036626e+00
1.00027429e+00
1.00018496e+00
1.00009918e+00
1.00001780e+00
9.99941597e-01
9.99871256e-01
9.99807351e-01
9.99750332e-01
9.99700515e-01
9.99658084e-01
9.99623088e-01
9.99595454e-01
9.99574990e-01
9.99561403e-01
9.99554313e-01
9.99553268e-01
9.99557761e-01
9.99567244e-01
9.99581148e-01
9.99598892e-01
9.99619898e-01
9.99643601e-01
9.99669455e-01
9.99696946e-01
9.99725594e-01
9.99754956e-01
9.99784632e-01
9.99814267e-01
9.99843550e-01
9.99872220e-01
9.99900057e-01
9.99926893e-01
9.99952601e-01
9.99977099e-01
1.00000035e+00
1.00002236e+00
1.00004315e+00
1.00006282e+00
1.00008146e+00
1.00009921e+00
1.00011622e+00
1.00013268e+00
1.00014876e+00
1.00016467e+00
1.00018061e+00
1.00019676e+00
1.00021332e+00
1.00023044e+00
1.00024826e+00
1.00026690e+00
1.00028643e+00
1.00030687e+00
1.00032819e+00
1.00035033e+00
1.00037316e+00
1.00039648e+00
1.00042005e+00
1.00044356e+00
1.00046666e+00
1.00048893e+00
1.00050992e+00
1.00052915e+00
1.00054611e+00
1.00056030e+00
1.00057119e+00
1.00057831e+00
1.00058119e+00
1.00057944e+00
1.00057271e+00
1.00056074e+00
1.00054336e+00
1.00052047e+00
1.00049212e+00
1.00045841e+00
1.00041957e+00
1.00037593e+00
1.00032788e+00
1.00027592e+00
1.00022060e+00
1.00016252e+00
1.00010230e+00
1.00004060e+00
9.99978076e-01
9.99915352e-01
9.99853034e-01
9.99791692e-01
9.99731843e-01
9.99673927e-01
9.99618332e-01
9.99565403e-01
9.99515382e-01
9.99468412e-01
9.99424654e-01
9.99384230e-01
9.99347052e-01
9.99313050e-01
9.99282348e-01
9.99254790e-01
9.99229999e-01
9.99208126e-01
9.99189324e-01
9.99172883e-01
9.99158839e-01
9.99147139e-01
9.99136573e-01
1.00161948e+00
1.00160672e+00
1.00159026e+00
1.00156960e+00
1.00154401e+00
1.00151311e+00
1.00147723e+00
1.00143652e+00
1.00139054e+00
1.00133934e+00
1.00128321e+00
1.00122209e+00
1.00115596e+00
1.00108515e+00
1.00100994e+00
1.00093060e+00
1.00084756e+00
1.00076140e+00
1.00067270e+00
1.00058215e+00
1.00049052e+00
1.00039867e+00
1.00030747e+00
1.00021781e+00
1.00013061e+00
1.00004676e+00
9.99967095e-01
9.99892391e-01
9.99823332e-01
9.99760499e-01
9.99704351e-01
9.99655225e-01
9.99613324e-01
9.99578723e-01
9.99551373e-01
9.99531113e-01
9.99517675e-01
9.99510708e-01
9.99509784e-01
9.99514422e-01
9.99524096e-01
9.99538259e-01
9.99556349e-01
9.99577804e-01
9.99602076e-01
9.99628632e-01
9.99656971e-01
9.99686621e-01
9.99717150e-01
9.99748164e-01
9.99779313e-01
9.99810291e-01
9.99840834e-01
9.99870724e-01
9.99899787e-01
9.99927893e-01
9.99954951e-01
9.99980913e-01
1.00000577e+00
1.00002953e+00
1.00005228e+00
1.00007408e+00
1.00009505e+00
1.00011533e+00
1.00013507e+00
1.00015443e+00
1.00017359e+00
1.00019271e+00
1.00021196e+00
1.00023150e+00
1.00025148e+00
1.00027200e+00
1.00029315e+00
1.00031500e+00
1.00033754e+00
1.00036075e+00
1.00038455e+00
1.00040880e+00
1.00043331e+00
1.00045784e+00
1.00048211e+00
1.00050576e+00
1.00052842e+00
1.00054966e+00
1.00056902e+00
1.00058605e+00
1.00060026e+00
1.00061118e+00
1.00061838e+00
1.00062143e+00
1.00061997e+00
1.00061369e+00
1.00060238e+00
1.00058586e+00
1.00056409e+00
1.00053710e+00
1.00050500e+00
1.00046803e+00
1.00042648e+00
1.00038075e+00
1.00033129e+00
1.00027862e+00
1.00022329e+00
1.00016590e+00
1.00010706e+00
1.00004737e+00
9.99987433e-01
9.99927806e-01
9.99869018e-01
9.99811561e-01
9.99755873e-01
9.99702308e-01
9.99651168e-01
9.99602742e-01
9.99557216e-01
9.99514648e-01
9.99475156e-01
9.99438873e-01
9.99405674e-01
9.99375405e-01
9.99348213e-01
9.99324074e-01
9.99302529e-01
9.99283645e-01
9.99267670e-01
9.99254238e-01
9.99242518e-01
9.99232172e-01
1.00150587e+00
1.00149398e+00
1.00147842e+00
1.00145881e+00
1.00143436e+00
1.00140496e+00
1.00137089e+00
1.00133191e+00
1.00128788e+00
1.00123900e+00
1.00118524e+00
1.00112653e+00
1.00106305e+00
1.00099504e+00
1.00092265e+00
1.00084620e+00
1.00076616e+00
1.00068300e+00
1.00059729e+00
1.00050969e+00
1.00042096e+00
1.00033190e+00
1.00024335e+00
1.00015620e+00
1.00007132e+00
9.99989578e-01
9.99911810e-01
9.99838779e-01
9.99771168e-01
9.99709563e-01
9.99654437e-01
9.99606141e-01
9.99564900e-01
9.99530813e-01
9.99503859e-01
9.99483903e-01
9.99470707e-01
9.99463946e-01
9.99463220e-01
9.99468074e-01
9.99478008e-01
9.99492494e-01
9.99510994e-01
9.99532963e-01
9.99557871e-01
9.99585202e-01
9.99614467e-01
9.99645207e-01
9.99676999e-01
9.99709458e-01
9.99742240e-01
9.99775041e-01
9.99807602e-01
9.99839702e-01
9.99871164e-01
9.99901850e-01
9.99931662e-01
9.99960540e-01
9.99988456e-01
1.00001542e+00
1.00004147e+00
1.00006667e+00
1.00009110e+00
1.00011489e+00
1.00013815e+00
1.00016101e+00
1.00018364e+00
1.00020616e+00
1.00022872e+00
1.00025145e+00
1.00027446e+00
1.00029785e+00
1.00032168e+00
1.00034599e+00
1.00037078e+00
1.00039600e+00
1.00042156e+00
1.00044732e+00
1.00047311e+00
1.00049869e+00
1.00052377e+00
1.00054805e+00
1.00057114e+00
1.00059267e+00
1.00061222e+00
1.00062934e+00
1.00064361e+00
1.00065461e+00
1.00066191e+00
1.00066517e+00
1.00066404e+00
1.00065828e+00
1.00064766e+00
1.00063208e+00
1.00061150e+00
1.00058594e+00
1.00055556e+00
1.00052055e+00
1.00048122e+00
1.00043793e+00
1.00039111e+00
1.00034124e+00
1.00028884e+00
1.00023446e+00
1.00017866e+00
1.00012200e+00
1.00006504e+00
1.00000830e+00
9.99952276e-01
9.99897413e-01
9.99844127e-01
9.99792782e-01
9.99743657e-01
9.99696986e-01
9.99653003e-01
9.99611842e-01
9.99573527e-01
9.99538149e-01
9.99505791e-01
9.99476326e-01
9.99449661e-01
9.99425919e-01
9.99404929e-01
9.99386485e-01
9.99370787e-01
9.99357729e-01
9.99346474e-01
9.99336759e-01
1.00138391e+00
1.00137302e+00
1.00135863e+00
1.00134001e+00
1.00131685e+00
1.00128925e+00
1.00125694e+00
1.00121982e+00
1.00117807e+00
1.00113161e+00
1.00108027e+00
1.00102422e+00
1.00096361e+00
1.00089850e+00
1.00082909e+00
1.00075577e+00
1.00067889e+00
1.00059889e+00
1.00051635e+00
1.00043190e+00
1.00034625e+00
1.00026016e+00
1.00017446e+00
1.00008999e+00
1.00000761e+00
9.99928161e-01
9.99852468e-01
9.99781282e-01
9.99715286e-01
9.99655070e-01
9.99601117e-01
9.99553794e-01
9.99513347e-01
9.99479899e-01
9.99453454e-01
9.99433905e-01
9.99421043e-01
9.99414573e-01
9.99414123e-01
9.99419262e-01
9.99429519e-01
9.99444389e-01
9.99463355e-01
9.99485896e-01
9.99511499e-01
9.99539666e-01
9.99569922e-01
9.99601824e-01
9.99634959e-01
9.99668952e-01
9.99703466e-01
9.99738203e-01
9.99772904e-01
9.99807348e-01
9.99841355e-01
9.99874780e-01
9.99907515e-01
9.99939487e-01
9.99970654e-01
1.00000100e+00
1.00003056e+00
1.00005935e+00
1.00008746e+00
1.00011495e+00
1.00014193e+00
1.00016851e+00
1.00019479e+00
1.00022091e+00
1.00024695e+00
1.00027304e+00
1.00029925e+00
1.00032566e+00
1.00035230e+00
1.00037921e+00
1.00040636e+00
1.00043369e+00
1.00046111e+00
1.00048848e+00
1.00051562e+00
1.00054231e+00
1.00056828e+00
1.00059323e+00
1.00061683e+00
1.00063869e+00
1.00065846e+00
1.00067572e+00
1.00069009e+00
1.00070119e+00
1.00070864e+00
1.00071214e+00
1.00071138e+00
1.00070616e+00
1.00069629e+00
1.00068169e+00
1.00066234e+00
1.00063829e+00
1.00060968e+00
1.00057672e+00
1.00053969e+00
1.00049894e+00
1.00045486e+00
1.00040791e+00
1.00035857e+00
1.00030734e+00
1.00025473e+00
1.00020127e+00
1.00014745e+00
1.00009377e+00
1.00004068e+00
9.99988598e-01
9.99937900e-01
9.99888927e-01
9.99841984e-01
9.99797282e-01
9.99754997e-01
9.99715332e-01
9.99678385e-01
9.99644136e-01
9.99612664e-01
9.99584076e-01
9.99558209e-01
9.99534965e-01
9.99514501e-01
9.99496747e-01
9.99481451e-01
9.99468723e-01
9.99458188e-01
9.99449247e-01
1.00125486e+00
1.00124490e+00
1.00123156e+00
1.00121424e+00
1.00119264e+00
1.00116669e+00
1.00113624e+00
1.00110134e+00
1.00106193e+00
1.00101787e+00
1.00096920e+00
1.00091603e+00
1.00085833e+00
1.00079625e+00
1.00073005e+00
1.00065999e+00
1.00058640e+00
1.00050973e+00
1.00043054e+00
1.00034940e+00
1.00026698e+00
1.00018404e+00
1.00010136e+00
1.00001975e+00
9.99940042e-01
9.99863068e-01
9.99789622e-01
9.99720451e-01
9.99656236e-01
9.99597568e-01
9.99544941e-01
9.99498735e-01
9.99459217e-01
9.99426531e-01
9.99400710e-01
9.99381672e-01
9.99369240e-01
9.99363144e-01
9.99363044e-01
9.99368536e-01
9.99379175e-01
9.99394484e-01
9.99413968e-01
9.99437130e-01
9.99463476e-01
9.99492528e-01
9.99523829e-01
9.99556950e-01
9.99591493e-01
9.99627093e-01
9.99663420e-01
9.99700182e-01
9.99737123e-01
9.99774022e-01
9.99810694e-01
9.99846988e-01
9.99882786e-01
9.99918000e-01
9.99952573e-01
9.99986474e-01
1.00001970e+00
1.00005226e+00
1.00008420e+00
1.00011558e+00
1.00014645e+00
1.00017690e+00
1.00020701e+00
1.00023686e+00
1.00026654e+00
1.00029612e+00
1.00032567e+00
1.00035522e+00
1.00038480e+00
1.00041441e+00
1.00044402e+00
1.00047355e+00
1.00050292e+00
1.00053198e+00
1.00056055e+00
1.00058842e+00
1.00061534e+00
1.00064103e+00
1.00066517e+00
1.00068743e+00
1.00070746e+00
1.00072491e+00
1.00073942e+00
1.00075065e+00
1.00075829e+00
1.00076205e+00
1.00076170e+00
1.00075705e+00
1.00074795e+00
1.00073436e+00
1.00071627e+00
1.00069376e+00
1.00066697e+00
1.00063610e+00
1.00060142e+00
1.00056328e+00
1.00052202e+00
1.00047808e+00
1.00043189e+00
1.00038391e+00
1.00033461e+00
1.00028446e+00
1.00023393e+00
1.00018345e+00
1.00013343e+00
1.00008428e+00
1.00003634e+00
9.99989905e-01
9.99945269e-01
9.99902680e-01
9.99862301e-01
9.99824270e-01
9.99788752e-01
9.99755826e-01
9.99725470e-01
9.99697758e-01
9.99672749e-01
9.99650335e-01
9.99630488e-01
9.99613299e-01
9.99598650e-01
9.99586550e-01
9.99576646e-01
9.99568449e-01
1.00111963e+00
1.00111073e+00
1.00109851e+00
1.00108259e+00
1.00106258e+00
1.00103836e+00
1.00100997e+00
1.00097734e+00
1.00094029e+00
1.00089882e+00
1.00085298e+00
1.00080270e+00
1.00074804e+00
1.00068917e+00
1.00062628e+00
1.00055957e+00
1.00048942e+00
1.00041624e+00
1.00034052e+00
1.00026283e+00
1.00018381e+00
1.00010417e+00
1.00002467e+00
9.99946075e-01
9.99869211e-01
9.99794873e-01
9.99723840e-01
9.99656849e-01
9.99594576e-01
9.99537614e-01
9.99486462e-01
9.99441517e-01
9.99403061e-01
9.99371264e-01
9.99346180e-01
9.99327758e-01
9.99315847e-01
9.99310209e-01
9.99310531e-01
9.99316441e-01
9.99327519e-01
9.99343315e-01
9.99363362e-01
9.99387185e-01
9.99414313e-01
9.99444290e-01
9.99476677e-01
9.99511062e-01
9.99547060e-01
9.99584320e-01
9.99622520e-01
9.99661376e-01
9.99700634e-01
9.99740073e-01
9.99779504e-01
9.99818769e-01
9.99857739e-01
9.99896313e-01
9.99934414e-01
9.99971993e-01
1.00000902e+00
1.00004548e+00
1.00008140e+00
1.00011679e+00
1.00015168e+00
1.00018614e+00
1.00022020e+00
1.00025392e+00
1.00028735e+00
1.00032054e+00
1.00035352e+00
1.00038631e+00
1.00041892e+00
1.00045133e+00
1.00048348e+00
1.00051531e+00
1.00054670e+00
1.00057751e+00
1.00060758e+00
1.00063670e+00
1.00066464e+00
1.00069112e+00
1.00071587e+00
1.00073858e+00
1.00075893e+00
1.00077661e+00
1.00079130e+00
1.00080272e+00
1.00081058e+00
1.00081464e+00
1.00081472e+00
1.00081066e+00
1.00080236e+00
1.00078980e+00
1.00077299e+00
1.00075203e+00
1.00072706e+00
1.00069830e+00
1.00066601e+00
1.00063049e+00
1.00059210e+00
1.00055121e+00
1.00050822e+00
1.00046356e+00
1.00041765e+00
1.00037090e+00
1.00032374e+00
1.00027656e+00
1.00022974e+00
1.00018363e+00
1.00013855e+00
1.00009481e+00
1.00005263e+00
1.00001225e+00
9.99973897e-01
9.99937683e-01
9.99903724e-01
9.99872175e-01
9.99843094e-01
9.99816452e-01
9.99792341e-01
9.99770832e-01
9.99751801e-01
9.99735266e-01
9.99721327e-01
9.99709974e-01
9.99700788e-01
9.99693481e-01
1.00097938e+00
1.00097169e+00
1.00096074e+00
1.00094619e+00
1.00092778e+00
1.00090548e+00
1.00087920e+00
1.00084882e+00
1.00081425e+00
1.00077551e+00
1.00073249e+00
1.00068518e+00
1.00063369e+00
1.00057811e+00
1.00051857e+00
1.00045534e+00
1.00038874e+00
1.00031914e+00
1.00024701e+00
1.00017289e+00
1.00009740e+00
1.00002120e+00
9.99945007e-01
9.99869588e-01
9.99795715e-01
9.99724166e-01
9.99655702e-01
9.99591048e-01
9.99530871e-01
9.99475763e-01
9.99426233e-01
9.99382687e-01
9.99345425e-01
9.99314637e-01
9.99290403e-01
9.99272697e-01
9.99261399e-01
9.99256298e-01
9.99257113e-01
9.99263499e-01
9.99275067e-01
9.99291396e-01
9.99312043e-01
9.99336560e-01
9.99364502e-01
9.99395431e-01
9.99428932e-01
9.99464610e-01
9.99502097e-01
9.99541053e-01
9.99581168e-01
9.99622165e-01
9.99663792e-01
9.99705830e-01
9.99748086e-01
9.99790395e-01
9.99832616e-01
9.99874633e-01
9.99916352e-01
9.99957700e-01
9.99998625e-01
1.00003909e+00
1.00007908e+00
1.00011857e+00
1.00015759e+00
1.00019614e+00
1.00023425e+00
1.00027192e+00
1.00030920e+00
1.00034608e+00
1.00038258e+00
1.00041870e+00
1.00045441e+00
1.00048968e+00
1.00052445e+00
1.00055863e+00
1.00059211e+00
1.00062476e+00
1.00065640e+00
1.00068684e+00
1.00071585e+00
1.00074320e+00
1.00076862e+00
1.00079184e+00
1.00081258e+00
1.00083054e+00
1.00084548e+00
1.00085712e+00
1.00086524e+00
1.00086964e+00
1.00087017e+00
1.00086672e+00
1.00085923e+00
1.00084769e+00
1.00083217e+00
1.00081275e+00
1.00078961e+00
1.00076295e+00
1.00073303e+00
1.00070014e+00
1.00066461e+00
1.00062677e+00
1.00058700e+00
1.00054568e+00
1.00050319e+00
1.00045989e+00
1.00041615e+00
1.00037234e+00
1.00032879e+00
1.00028581e+00
1.00024368e+00
1.00020270e+00
1.00016309e+00
1.00012505e+00
1.00008879e+00
1.00005449e+00
1.00002225e+00
9.99992181e-01
9.99964411e-01
9.99939000e-01
9.99915946e-01
9.99895341e-01
9.99877217e-01
9.99861547e-01
9.99848358e-01
9.99837739e-01
9.99829453e-01
9.99823210e-01
1.00083556e+00
1.00082910e+00
1.00081945e+00
1.00080631e+00
1.00078957e+00
1.00076920e+00
1.00074503e+00
1.00071696e+00
1.00068495e+00
1.00064891e+00
1.00060874e+00
1.00056450e+00
1.00051621e+00
1.00046393e+00
1.00040783e+00
1.00034815e+00
1.00028515e+00
1.00021921e+00
1.00015076e+00
1.00008031e+00
1.00000844e+00
9.99935787e-01
9.99863037e-01
9.99790913e-01
9.99720164e-01
9.99651543e-01
9.99585791e-01
9.99523615e-01
9.99465676e-01
9.99412565e-01
9.99364793e-01
9.99322777e-01
9.99286833e-01
9.99257169e-01
9.99233891e-01
9.99216998e-01
9.99206397e-01
9.99201909e-01
9.99203281e-01
9.99210200e-01
9.99222305e-01
9.99239204e-01
9.99260483e-01
9.99285721e-01
9.99314496e-01
9.99346397e-01
9.99381029e-01
9.99418017e-01
9.99457008e-01
9.99497680e-01
9.99539732e-01
9.99582894e-01
9.99626921e-01
9.99671592e-01
9.99716712e-01
9.99762107e-01
9.99807626e-01
9.99853138e-01
9.99898529e-01
9.99943705e-01
9.99988588e-01
1.00003311e+00
1.00007723e+00
1.00012091e+00
1.00016411e+00