# vtk DataFile Version 2.0
LBM Flow Field - Timestep 280
ASCII
DATASET STRUCTURED_POINTS
DIMENSIONS 128 128 1
ORIGIN 0.0 0.0 0.0
SPACING 1.0 1.0 1.0
POINT_DATA 16384
SCALARS density double 1
LOOKUP_TABLE default
9.92193246e-01
9.92193057e-01
9.92192956e-01
9.92194216e-01
9.92196014e-01
9.92198569e-01
9.92202664e-01
9.92207955e-01
9.92214250e-01
9.92221904e-01
9.92231559e-01
9.92243786e-01
9.92259463e-01
9.92279726e-01
9.92305941e-01
9.92339671e-01
9.92382705e-01
9.92437007e-01
9.92504672e-01
9.92587859e-01
9.92688722e-01
9.92809309e-01
9.92951440e-01
9.93116571e-01
9.93305662e-01
9.93519023e-01
9.93756193e-01
9.94015858e-01
9.94295809e-01
9.94592969e-01
9.94903492e-01
9.95222921e-01
9.95546410e-01
9.95868976e-01
9.96185772e-01
9.96492341e-01
9.96784840e-01
9.97060208e-01
9.97316270e-01
9.97551764e-01
9.97766309e-01
9.97960310e-01
9.98134825e-01
9.98291403e-01
9.98431917e-01
9.98558405e-01
9.98672927e-01
9.98777455e-01
9.98873791e-01
9.98963514e-01
9.99047961e-01
9.99128230e-01
9.99205193e-01
9.99279530e-01
9.99351761e-01
9.99422281e-01
9.99491395e-01
9.99559342e-01
9.99626321e-01
9.99692502e-01
9.99758044e-01
9.99823098e-01
9.99887810e-01
9.99952328e-01
1.00001680e+00
1.00008137e+00
1.00014618e+00
1.00021141e+00
1.00027720e+00
1.00034375e+00
1.00041126e+00
1.00048001e+00
1.00055030e+00
1.00062256e+00
1.00069730e+00
1.00077518e+00
1.00085702e+00
1.00094383e+00
1.00103677e+00
1.00113723e+00
1.00124674e+00
1.00136695e+00
1.00149959e+00
1.00164638e+00
1.00180892e+00
1.00198859e+00
1.00218647e+00
1.00240315e+00
1.00263872e+00
1.00289263e+00
1.00316364e+00
1.00344987e+00
1.00374873e+00
1.00405706e+00
1.00437125e+00
1.00468732e+00
1.00500114e+00
1.00530863e+00
1.00560589e+00
1.00588942e+00
1.00615624e+00
1.00640398e+00
1.00663095e+00
1.00683613e+00
1.00701915e+00
1.00718021e+00
1.00732003e+00
1.00743973e+00
1.00754075e+00
1.00762479e+00
1.00769371e+00
1.00774944e+00
1.00779395e+00
1.00782912e+00
1.00785672e+00
1.00787828e+00
1.00789517e+00
1.00790851e+00
1.00791915e+00
1.00792763e+00
1.00793458e+00
1.00794032e+00
1.00794466e+00
1.00794731e+00
1.00794909e+00
1.00795026e+00
1.00794973e+00
1.00794918e+00
9.92191524e-01
9.92192809e-01
9.92194396e-01
9.92196124e-01
9.92198754e-01
9.92201888e-01
9.92206251e-01
9.92211732e-01
9.92218656e-01
9.92227172e-01
9.92237947e-01
9.92251657e-01
9.92269292e-01
9.92291989e-01
9.92321163e-01
9.92358409e-01
9.92405524e-01
9.92464424e-01
9.92537125e-01
9.92625642e-01
9.92731924e-01
9.92857747e-01
9.93004607e-01
9.93173596e-01
9.93365293e-01
9.93579652e-01
9.93815914e-01
9.94072565e-01
9.94347323e-01
9.94637194e-01
9.94938571e-01
9.95247390e-01
9.95559317e-01
9.95869968e-01
9.96175121e-01
9.96470920e-01
9.96754046e-01
9.97021841e-01
9.97272380e-01
9.97504494e-01
9.97717737e-01
9.97912315e-01
9.98088983e-01
9.98248927e-01
9.98393630e-01
9.98524753e-01
9.98644022e-01
9.98753137e-01
9.98853698e-01
9.98947157e-01
9.99034794e-01
9.99117701e-01
9.99196789e-01
9.99272805e-01
9.99346349e-01
9.99417899e-01
9.99487837e-01
9.99556467e-01
9.99624039e-01
9.99690764e-01
9.99756826e-01
9.99822390e-01
9.99887612e-01
9.99952644e-01
1.00001764e+00
1.00008274e+00
1.00014813e+00
1.00021396e+00
1.00028044e+00
1.00034778e+00
1.00041625e+00
1.00048616e+00
1.00055790e+00
1.00063193e+00
1.00070883e+00
1.00078929e+00
1.00087415e+00
1.00096438e+00
1.00106110e+00
1.00116556e+00
1.00127915e+00
1.00140332e+00
1.00153954e+00
1.00168927e+00
1.00185384e+00
1.00203438e+00
1.00223172e+00
1.00244634e+00
1.00267820e+00
1.00292677e+00
1.00319094e+00
1.00346898e+00
1.00375861e+00
1.00405705e+00
1.00436107e+00
1.00466712e+00
1.00497152e+00
1.00527056e+00
1.00556067e+00
1.00583861e+00
1.00610153e+00
1.00634712e+00
1.00657361e+00
1.00677983e+00
1.00696519e+00
1.00712965e+00
1.00727361e+00
1.00739792e+00
1.00750379e+00
1.00759267e+00
1.00766626e+00
1.00772635e+00
1.00777481e+00
1.00781345e+00
1.00784401e+00
1.00786804e+00
1.00788694e+00
1.00790181e+00
1.00791360e+00
1.00792297e+00
1.00793056e+00
1.00793653e+00
1.00794119e+00
1.00794446e+00
1.00794706e+00
1.00794875e+00
1.00794998e+00
1.00795106e+00
9.92190167e-01
9.92192808e-01
9.92196550e-01
9.92199234e-01
9.92202184e-01
9.92206053e-01
9.92210980e-01
9.92217139e-01
9.92225080e-01
9.92235100e-01
9.92247776e-01
9.92263983e-01
9.92284809e-01
9.92311482e-01
9.92345472e-01
9.92388422e-01
9.92442107e-01
9.92508364e-01
9.92589038e-01
9.92685893e-01
9.92800522e-01
9.92934251e-01
9.93088056e-01
9.93262471e-01
9.93457507e-01
9.93672602e-01
9.93906593e-01
9.94157710e-01
9.94423622e-01
9.94701510e-01
9.94988174e-01
9.95280170e-01
9.95573957e-01
9.95866048e-01
9.96153153e-01
9.96432304e-01
9.96700950e-01
9.96957021e-01
9.97198967e-01
9.97425754e-01
9.97636850e-01
9.97832176e-01
9.98012054e-01
9.98177135e-01
9.98328331e-01
9.98466740e-01
9.98593579e-01
9.98710122e-01
9.98817645e-01
9.98917384e-01
9.99010496e-01
9.99098042e-01
9.99180968e-01
9.99260099e-01
9.99336144e-01
9.99409700e-01
9.99481261e-01
9.99551238e-01
9.99619967e-01
9.99687726e-01
9.99754749e-01
9.99821238e-01
9.99887373e-01
9.99953326e-01
1.00001926e+00
1.00008536e+00
1.00015180e+00
1.00021880e+00
1.00028661e+00
1.00035550e+00
1.00042581e+00
1.00049795e+00
1.00057238e+00
1.00064965e+00
1.00073041e+00
1.00081539e+00
1.00090543e+00
1.00100144e+00
1.00110444e+00
1.00121548e+00
1.00133569e+00
1.00146620e+00
1.00160811e+00
1.00176246e+00
1.00193017e+00
1.00211198e+00
1.00230840e+00
1.00251965e+00
1.00274558e+00
1.00298568e+00
1.00323898e+00
1.00350409e+00
1.00377915e+00
1.00406192e+00
1.00434980e+00
1.00463992e+00
1.00492924e+00
1.00521464e+00
1.00549308e+00
1.00576171e+00
1.00601792e+00
1.00625948e+00
1.00648458e+00
1.00669186e+00
1.00688041e+00
1.00704979e+00
1.00720000e+00
1.00733144e+00
1.00744488e+00
1.00754142e+00
1.00762244e+00
1.00768950e+00
1.00774428e+00
1.00778850e+00
1.00782385e+00
1.00785190e+00
1.00787406e+00
1.00789151e+00
1.00790528e+00
1.00791625e+00
1.00792493e+00
1.00793163e+00
1.00793690e+00
1.00794098e+00
1.00794395e+00
1.00794652e+00
1.00795012e+00
1.00795260e+00
9.92192097e-01
9.92195314e-01
9.92199076e-01
9.92202787e-01
9.92206673e-01
9.92211267e-01
9.92217119e-01
9.92224651e-01
9.92234217e-01
9.92246406e-01
9.92262004e-01
9.92281999e-01
9.92307550e-01
9.92340043e-01
9.92381022e-01
9.92432137e-01
9.92495088e-01
9.92571561e-01
9.92663114e-01
9.92771111e-01
9.92896625e-01
9.93040361e-01
9.93202594e-01
9.93383130e-01
9.93581284e-01
9.93795891e-01
9.94025342e-01
9.94267645e-01
9.94520508e-01
9.94781438e-01
9.95047841e-01
9.95317124e-01
9.95586783e-01
9.95854474e-01
9.96118065e-01
9.96375664e-01
9.96625638e-01
9.96866610e-01
9.97097452e-01
9.97317280e-01
9.97525442e-01
9.97721513e-01
9.97905290e-01
9.98076786e-01
9.98236222e-01
9.98384013e-01
9.98520750e-01
9.98647169e-01
9.98764126e-01
9.98872552e-01
9.98973421e-01
9.99067710e-01
9.99156366e-01
9.99240280e-01
9.99320265e-01
9.99397045e-01
9.99471252e-01
9.99543422e-01
9.99614008e-01
9.99683386e-01
9.99751870e-01
9.99819728e-01
9.99887194e-01
9.99954482e-01
1.00002180e+00
1.00008937e+00
1.00015744e+00
1.00022626e+00
1.00029616e+00
1.00036750e+00
1.00044072e+00
1.00051632e+00
1.00059485e+00
1.00067697e+00
1.00076337e+00
1.00085482e+00
1.00095212e+00
1.00105610e+00
1.00116760e+00
1.00128744e+00
1.00141640e+00
1.00155521e+00
1.00170449e+00
1.00186479e+00
1.00203650e+00
1.00221988e+00
1.00241503e+00
1.00262186e+00
1.00284006e+00
1.00306910e+00
1.00330822e+00
1.00355637e+00
1.00381225e+00
1.00407429e+00
1.00434068e+00
1.00460940e+00
1.00487823e+00
1.00514487e+00
1.00540697e+00
1.00566221e+00
1.00590836e+00
1.00614338e+00
1.00636544e+00
1.00657298e+00
1.00676476e+00
1.00693988e+00
1.00709778e+00
1.00723833e+00
1.00736171e+00
1.00746853e+00
1.00755970e+00
1.00763641e+00
1.00770007e+00
1.00775224e+00
1.00779448e+00
1.00782835e+00
1.00785530e+00
1.00787664e+00
1.00789346e+00
1.00790672e+00
1.00791714e+00
1.00792533e+00
1.00793162e+00
1.00793649e+00
1.00794050e+00
1.00794416e+00
1.00794778e+00
1.00795075e+00
9.92195937e-01
9.92199109e-01
9.92202891e-01
9.92207595e-01
9.92212554e-01
9.92218082e-01
9.92225252e-01
9.92234622e-01
9.92246554e-01
9.92261852e-01
9.92281521e-01
9.92306674e-01
9.92338618e-01
9.92378864e-01
9.92428993e-01
9.92490621e-01
9.92565311e-01
9.92654483e-01
9.92759303e-01
9.92880592e-01
9.93018758e-01
9.93173747e-01
9.93345018e-01
9.93531557e-01
9.93731936e-01
9.93944386e-01
9.94166901e-01
9.94397359e-01
9.94633634e-01
9.94873705e-01
9.95115733e-01
9.95358121e-01
9.95599523e-01
9.95838836e-01
9.96075154e-01
9.96307715e-01
9.96535836e-01
9.96758855e-01
9.96976099e-01
9.97186855e-01
9.97390384e-01
9.97585947e-01
9.97772843e-01
9.97950464e-01
9.98118342e-01
9.98276191e-01
9.98423937e-01
9.98561722e-01
9.98689904e-01
9.98809025e-01
9.98919782e-01
9.99022981e-01
9.99119492e-01
9.99210203e-01
9.99295983e-01
9.99377654e-01
9.99455966e-01
9.99531587e-01
9.99605101e-01
9.99677009e-01
9.99747739e-01
9.99817661e-01
9.99887102e-01
9.99956361e-01
1.00002573e+00
1.00009550e+00
1.00016601e+00
1.00023760e+00
1.00031069e+00
1.00038574e+00
1.00046328e+00
1.00054389e+00
1.00062824e+00
1.00071701e+00
1.00081093e+00
1.00091074e+00
1.00101717e+00
1.00113088e+00
1.00125251e+00
1.00138255e+00
1.00152141e+00
1.00166936e+00
1.00182652e+00
1.00199288e+00
1.00216833e+00
1.00235261e+00
1.00254539e+00
1.00274627e+00
1.00295478e+00
1.00317039e+00
1.00339253e+00
1.00362056e+00
1.00385375e+00
1.00409128e+00
1.00433220e+00
1.00457541e+00
1.00481967e+00
1.00506357e+00
1.00530558e+00
1.00554403e+00
1.00577718e+00
1.00600326e+00
1.00622048e+00
1.00642715e+00
1.00662168e+00
1.00680269e+00
1.00696906e+00
1.00711998e+00
1.00725501e+00
1.00737412e+00
1.00747766e+00
1.00756635e+00
1.00764122e+00
1.00770355e+00
1.00775476e+00
1.00779634e+00
1.00782973e+00
1.00785634e+00
1.00787738e+00
1.00789389e+00
1.00790685e+00
1.00791703e+00
1.00792478e+00
1.00793070e+00
1.00793587e+00
1.00794064e+00
1.00794434e+00
1.00794729e+00
9.92201116e-01
9.92204453e-01
9.92208890e-01
9.92214041e-01
9.92219856e-01
9.92226952e-01
9.92236060e-01
9.92247780e-01
9.92262943e-01
9.92282497e-01
9.92307537e-01
9.92339378e-01
9.92379514e-01
9.92429501e-01
9.92490904e-01
9.92565238e-01
9.92653826e-01
9.92757691e-01
9.92877466e-01
9.93013310e-01
9.93164849e-01
9.93331177e-01
9.93510894e-01
9.93702182e-01
9.93902929e-01
9.94110872e-01
9.94323764e-01
9.94539520e-01
9.94756346e-01
9.94972838e-01
9.95188015e-01
9.95401322e-01
9.95612564e-01
9.95821823e-01
9.96029328e-01
9.96235338e-01
9.96440020e-01
9.96643359e-01
9.96845095e-01
9.97044707e-01
9.97241430e-01
9.97434305e-01
9.97622262e-01
9.97804201e-01
9.97979087e-01
9.98146033e-01
9.98304357e-01
9.98453631e-01
9.98593692e-01
9.98724639e-01
9.98846807e-01
9.98960729e-01
9.99067090e-01
9.99166670e-01
9.99260306e-01
9.99348840e-01
9.99433091e-01
9.99513829e-01
9.99591758e-01
9.99667514e-01
9.99741665e-01
9.99814718e-01
9.99887133e-01
9.99959341e-01
1.00003176e+00
1.00010480e+00
1.00017890e+00
1.00025455e+00
1.00033224e+00
1.00041253e+00
1.00049605e+00
1.00058344e+00
1.00067538e+00
1.00077257e+00
1.00087570e+00
1.00098540e+00
1.00110225e+00
1.00122672e+00
1.00135913e+00
1.00149967e+00
1.00164833e+00
1.00180494e+00
1.00196916e+00
1.00214048e+00
1.00231831e+00
1.00250195e+00
1.00269072e+00
1.00288394e+00
1.00308100e+00
1.00328141e+00
1.00348479e+00
1.00369086e+00
1.00389946e+00
1.00411047e+00
1.00432377e+00
1.00453919e+00
1.00475643e+00
1.00497502e+00
1.00519429e+00
1.00541330e+00
1.00563089e+00
1.00584563e+00
1.00605591e+00
1.00625996e+00
1.00645597e+00
1.00664211e+00
1.00681671e+00
1.00697832e+00
1.00712581e+00
1.00725846e+00
1.00737596e+00
1.00747847e+00
1.00756654e+00
1.00764107e+00
1.00770325e+00
1.00775442e+00
1.00779599e+00
1.00782937e+00
1.00785593e+00
1.00787690e+00
1.00789329e+00
1.00790602e+00
1.00791590e+00
1.00792357e+00
1.00792973e+00
1.00793508e+00
1.00793955e+00
1.00794277e+00
9.92208071e-01
9.92211658e-01
9.92216684e-01
9.92222517e-01
9.92229564e-01
9.92238531e-01
9.92250078e-01
9.92265044e-01
9.92284500e-01
9.92309527e-01
9.92341413e-01
9.92381675e-01
9.92431877e-01
9.92493576e-01
9.92568256e-01
9.92657204e-01
9.92761368e-01
9.92881249e-01
9.93016818e-01
9.93167458e-01
9.93331952e-01
9.93508530e-01
9.93694977e-01
9.93888779e-01
9.94087304e-01
9.94288003e-01
9.94488601e-01
9.94687259e-01
9.94882685e-01
9.95074195e-01
9.95261697e-01
9.95445623e-01
9.95626808e-01
9.95806331e-01
9.95985348e-01
9.96164928e-01
9.96345905e-01
9.96528777e-01
9.96713638e-01
9.96900167e-01
9.97087655e-01
9.97275069e-01
9.97461144e-01
9.97644492e-01
9.97823706e-01
9.97997465e-01
9.98164617e-01
9.98324243e-01
9.98475697e-01
9.98618615e-01
9.98752916e-01
9.98878772e-01
9.98996576e-01
9.99106889e-01
9.99210400e-01
9.99307880e-01
9.99400135e-01
9.99487977e-01
9.99572198e-01
9.99653555e-01
9.99732758e-01
9.99810471e-01
9.99887321e-01
9.99963902e-01
1.00004079e+00
1.00011856e+00
1.00019779e+00
1.00027908e+00
1.00036305e+00
1.00045033e+00
1.00054159e+00
1.00063749e+00
1.00073870e+00
1.00084583e+00
1.00095945e+00
1.00108003e+00
1.00120791e+00
1.00134331e+00
1.00148624e+00
1.00163653e+00
1.00179380e+00
1.00195750e+00
1.00212688e+00
1.00230105e+00
1.00247906e+00
1.00265990e+00
1.00284262e+00
1.00302637e+00
1.00321048e+00
1.00339449e+00
1.00357821e+00
1.00376169e+00
1.00394523e+00
1.00412931e+00
1.00431455e+00
1.00450156e+00
1.00469094e+00
1.00488308e+00
1.00507814e+00
1.00527593e+00
1.00547591e+00
1.00567711e+00
1.00587820e+00
1.00607748e+00
1.00627301e+00
1.00646268e+00
1.00664433e+00
1.00681596e+00
1.00697576e+00
1.00712230e+00
1.00725460e+00
1.00737216e+00
1.00747497e+00
1.00756346e+00
1.00763844e+00
1.00770105e+00
1.00775257e+00
1.00779440e+00
1.00782794e+00
1.00785456e+00
1.00787548e+00
1.00789169e+00
1.00790425e+00
1.00791400e+00
1.00792162e+00
1.00792781e+00
1.00793303e+00
1.00793667e+00
9.92217091e-01
9.92220881e-01
9.92226388e-01
9.92233450e-01
9.92242198e-01
9.92253396e-01
9.92268150e-01
9.92287473e-01
9.92312417e-01
9.92344332e-01
9.92384752e-01
9.92435261e-01
9.92497408e-01
9.92572704e-01
9.92662425e-01
9.92767472e-01
9.92888275e-01
9.93024692e-01
9.93175923e-01
9.93340510e-01
9.93516390e-01
9.93701003e-01
9.93891458e-01
9.94084743e-01
9.94277957e-01
9.94468530e-01
9.94654414e-01
9.94834223e-01
9.95007307e-01
9.95173749e-01
9.95334292e-01
9.95490217e-01
9.95643164e-01
9.95794948e-01
9.95947363e-01
9.96102016e-01
9.96260182e-01
9.96422707e-01
9.96589961e-01
9.96761825e-01
9.96937727e-01
9.97116706e-01
9.97297505e-01
9.97478666e-01
9.97658640e-01
9.97835888e-01
9.98008968e-01
9.98176610e-01
9.98337771e-01
9.98491668e-01
9.98637794e-01
9.98775915e-01
9.98906053e-01
9.99028455e-01
9.99143560e-01
9.99251958e-01
9.99354350e-01
9.99451510e-01
9.99544255e-01
9.99633416e-01
9.99719823e-01
9.99804290e-01
9.99887610e-01
9.99970556e-01
1.00005388e+00
1.00013832e+00
1.00022461e+00
1.00031346e+00
1.00040559e+00
1.00050168e+00
1.00060240e+00
1.00070838e+00
1.00082019e+00
1.00093830e+00
1.00106310e+00
1.00119480e+00
1.00133351e+00
1.00147911e+00
1.00163131e+00
1.00178963e+00
1.00195335e+00
1.00212163e+00
1.00229342e+00
1.00246762e+00
1.00264304e+00
1.00281851e+00
1.00299298e+00
1.00316553e+00
1.00333550e+00
1.00350252e+00
1.00366654e+00
1.00382788e+00
1.00398718e+00
1.00414539e+00
1.00430365e+00
1.00446323e+00
1.00462541e+00
1.00479132e+00
1.00496187e+00
1.00513758e+00
1.00531854e+00
1.00550432e+00
1.00569398e+00
1.00588604e+00
1.00607861e+00
1.00626944e+00
1.00645610e+00
1.00663609e+00
1.00680707e+00
1.00696695e+00
1.00711406e+00
1.00724719e+00
1.00736570e+00
1.00746947e+00
1.00755885e+00
1.00763461e+00
1.00769784e+00
1.00774983e+00
1.00779196e+00
1.00782563e+00
1.00785226e+00
1.00787308e+00
1.00788912e+00
1.00790135e+00
1.00791093e+00
1.00791855e+00
1.00792443e+00
1.00792851e+00
9.92228016e-01
9.92232126e-01
9.92238509e-01
9.92247147e-01
9.92258046e-01
9.92272344e-01
9.92291335e-01
9.92316124e-01
9.92347965e-01
9.92388459e-01
9.92439196e-01
9.92501772e-01
9.92577698e-01
9.92668269e-01
9.92774380e-01
9.92896423e-01
9.93034178e-01
9.93186730e-01
9.93352454e-01
9.93529060e-01
9.93713715e-01
9.93903221e-01
9.94094236e-01
9.94283530e-01
9.94468227e-01
9.94646020e-01
9.94815330e-01
9.94975394e-01
9.95126276e-01
9.95268796e-01
9.95404406e-01
9.95535017e-01
9.95662805e-01
9.95790013e-01
9.95918769e-01
9.96050941e-01
9.96188019e-01
9.96331044e-01
9.96480574e-01
9.96636690e-01
9.96799024e-01
9.96966817e-01
9.97138987e-01
9.97314214e-01
9.97491023e-01
9.97667869e-01
9.97843217e-01
9.98015617e-01
9.98183764e-01
9.98346548e-01
9.98503088e-01
9.98652756e-01
9.98795181e-01
9.98930245e-01
9.99058062e-01
9.99178957e-01
9.99293434e-01
9.99402137e-01
9.99505826e-01
9.99605337e-01
9.99701557e-01
9.99795404e-01
9.99887803e-01
9.99979676e-01
1.00007193e+00
1.00016545e+00
1.00026110e+00
1.00035967e+00
1.00046194e+00
1.00056861e+00
1.00068030e+00
1.00079754e+00
1.00092076e+00
1.00105025e+00
1.00118613e+00
1.00132839e+00
1.00147681e+00
1.00163100e+00
1.00179038e+00
1.00195419e+00
1.00212149e+00
1.00229123e+00
1.00246224e+00
1.00263328e+00
1.00280312e+00
1.00297061e+00
1.00313471e+00
1.00329456e+00
1.00344959e+00
1.00359955e+00
1.00374453e+00
1.00388504e+00
1.00402193e+00
1.00415643e+00
1.00429002e+00
1.00442438e+00
1.00456129e+00
1.00470241e+00
1.00484925e+00
1.00500296e+00
1.00516423e+00
1.00533320e+00
1.00550941e+00
1.00569177e+00
1.00587861e+00
1.00606775e+00
1.00625665e+00
1.00644256e+00
1.00662270e+00
1.00679443e+00
1.00695546e+00
1.00710390e+00
1.00723842e+00
1.00735826e+00
1.00746324e+00
1.00755365e+00
1.00763022e+00
1.00769405e+00
1.00774644e+00
1.00778877e+00
1.00782247e+00
1.00784900e+00
1.00786954e+00
1.00788514e+00
1.00789714e+00
1.00790655e+00
1.00791348e+00
1.00791811e+00
9.92240809e-01
9.92245458e-01
9.92253239e-01
9.92263895e-01
9.92277679e-01
9.92296159e-01
9.92320549e-01
9.92352187e-01
9.92392600e-01
9.92443452e-01
9.92506315e-01
9.92582762e-01
9.92674107e-01
9.92781246e-01
9.92904553e-01
9.93043779e-01
9.93197930e-01
9.93365251e-01
9.93543295e-01
9.93729026e-01
9.93919004e-01
9.94109626e-01
9.94297391e-01
9.94479158e-01
9.94652381e-01
9.94815275e-01
9.94966920e-01
9.95107269e-01
9.95237091e-01
9.95357839e-01
9.95471484e-01
9.95580319e-01
9.95686765e-01
9.95793202e-01
9.95901818e-01
9.96014501e-01
9.96132766e-01
9.96257717e-01
9.96390032e-01
9.96529972e-01
9.96677414e-01
9.96831879e-01
9.96992586e-01
9.97158501e-01
9.97328389e-01
9.97500882e-01
9.97674537e-01
9.97847897e-01
9.98019558e-01
9.98188219e-01
9.98352737e-01
9.98512167e-01
9.98665787e-01
9.98813119e-01
9.98953934e-01
9.99088243e-01
9.99216282e-01
9.99338486e-01
9.99455465e-01
9.99567968e-01
9.99676852e-01
9.99783051e-01
9.99887544e-01
9.99991333e-01
1.00009541e+00
1.00020075e+00
1.00030827e+00
1.00041881e+00
1.00053315e+00
1.00065194e+00
1.00077572e+00
1.00090488e+00
1.00103967e+00
1.00118016e+00
1.00132623e+00
1.00147762e+00
1.00163383e+00
1.00179424e+00
1.00195803e+00
1.00212427e+00
1.00229188e+00
1.00245972e+00
1.00262661e+00
1.00279137e+00
1.00295285e+00
1.00311001e+00
1.00326196e+00
1.00340804e+00
1.00354781e+00
1.00368117e+00
1.00380835e+00
1.00392994e+00
1.00404693e+00
1.00416062e+00
1.00427267e+00
1.00438492e+00
1.00449941e+00
1.00461814e+00
1.00474302e+00
1.00487568e+00
1.00501735e+00
1.00516874e+00
1.00532992e+00
1.00550030e+00
1.00567861e+00
1.00586295e+00
1.00605088e+00
1.00623961e+00
1.00642613e+00
1.00660741e+00
1.00678062e+00
1.00694328e+00
1.00709338e+00
1.00722948e+00
1.00735073e+00
1.00745691e+00
1.00754828e+00
1.00762556e+00
1.00768985e+00
1.00774249e+00
1.00778484e+00
1.00781840e+00
1.00784456e+00
1.00786458e+00
1.00787972e+00
1.00789133e+00
1.00789979e+00
1.00790513e+00
9.92255457e-01
9.92260956e-01
9.92270628e-01
9.92284101e-01
9.92301813e-01
9.92325628e-01
9.92356831e-01
9.92397020e-01
9.92447783e-01
9.92510792e-01
9.92587598e-01
9.92679558e-01
9.92787581e-01
9.92912054e-01
9.93052696e-01
9.93208462e-01
9.93377518e-01
9.93557293e-01
9.93744596e-01
9.93935805e-01
9.94127115e-01
9.94314814e-01
9.94495556e-01
9.94666601e-01
9.94825993e-01
9.94972666e-01
9.95106456e-01
9.95228036e-01
9.95338791e-01
9.95440639e-01
9.95535844e-01
9.95626828e-01
9.95716003e-01
9.95805639e-01
9.95897771e-01
9.95994132e-01
9.96096131e-01
9.96204839e-01
9.96320995e-01
9.96445021e-01
9.96577039e-01
9.96716886e-01
9.96864135e-01
9.97018118e-01
9.97177949e-01
9.97342563e-01
9.97510751e-01
9.97681211e-01
9.97852599e-01
9.98023588e-01
9.98192918e-01
9.98359453e-01
9.98522222e-01
9.98680459e-01
9.98833623e-01
9.98981411e-01
9.99123763e-01
9.99260847e-01
9.99393044e-01
9.99520918e-01
9.99645189e-01
9.99766695e-01
9.99886357e-01
1.00000514e+00
1.00012402e+00
1.00024395e+00
1.00036582e+00
1.00049044e+00
1.00061852e+00
1.00075060e+00
1.00088709e+00
1.00102823e+00
1.00117407e+00
1.00132447e+00
1.00147912e+00
1.00163751e+00
1.00179899e+00
1.00196273e+00
1.00212780e+00
1.00229318e+00
1.00245778e+00
1.00262050e+00
1.00278024e+00
1.00293598e+00
1.00308677e+00
1.00323180e+00
1.00337043e+00
1.00350220e+00
1.00362689e+00
1.00374457e+00
1.00385557e+00
1.00396054e+00
1.00406047e+00
1.00415664e+00
1.00425067e+00
1.00434440e+00
1.00443989e+00
1.00453926e+00
1.00464463e+00
1.00475796e+00
1.00488088e+00
1.00501461e+00
1.00515978e+00
1.00531636e+00
1.00548361e+00
1.00566008e+00
1.00584368e+00
1.00603178e+00
1.00622135e+00
1.00640919e+00
1.00659210e+00
1.00676710e+00
1.00693155e+00
1.00708337e+00
1.00722102e+00
1.00734360e+00
1.00745084e+00
1.00754300e+00
1.00762080e+00
1.00768537e+00
1.00773801e+00
1.00778017e+00
1.00781329e+00
1.00783880e+00
1.00785804e+00
1.00787263e+00
1.00788302e+00
1.00788923e+00
9.92271813e-01
9.92278703e-01
9.92291030e-01
9.92308330e-01
9.92331171e-01
9.92361742e-01
9.92401459e-01
9.92452009e-01
9.92514959e-01
9.92591955e-01
9.92684356e-01
9.92793103e-01
9.92918576e-01
9.93060501e-01
9.93217804e-01
9.93388577e-01
9.93570157e-01
9.93759238e-01
9.93952052e-01
9.94144633e-01
9.94333110e-01
9.94513979e-01
9.94684354e-01
9.94842156e-01
9.94986211e-01
9.95116263e-01
9.95232907e-01
9.95337450e-01
9.95431732e-01
9.95517934e-01
9.95598388e-01
9.95675424e-01
9.95751242e-01
9.95827835e-01
9.95906948e-01
9.95990062e-01
9.96078403e-01
9.96172956e-01
9.96274479e-01
9.96383523e-01
9.96500427e-01
9.96625327e-01
9.96758147e-01
9.96898600e-01
9.97046188e-01
9.97200213e-01
9.97359796e-01
9.97523909e-01
9.97691412e-01
9.97861102e-01
9.98031764e-01
9.98202226e-01
9.98371405e-01
9.98538360e-01
9.98702323e-01
9.98862729e-01
9.99019234e-01
9.99171717e-01
9.99320275e-01
9.99465210e-01
9.99606997e-01
9.99746259e-01
9.99883724e-01
1.00002019e+00
1.00015649e+00
1.00029341e+00
1.00043174e+00
1.00057212e+00
1.00071512e+00
1.00086113e+00
1.00101039e+00
1.00116297e+00
1.00131875e+00
1.00147743e+00
1.00163852e+00
1.00180139e+00
1.00196528e+00
1.00212930e+00
1.00229251e+00
1.00245390e+00
1.00261249e+00
1.00276731e+00
1.00291745e+00
1.00306212e+00
1.00320064e+00
1.00333248e+00
1.00345727e+00
1.00357482e+00
1.00368515e+00
1.00378845e+00
1.00388516e+00
1.00397595e+00
1.00406173e+00
1.00414370e+00
1.00422328e+00
1.00430217e+00
1.00438228e+00
1.00446566e+00
1.00455444e+00
1.00465071e+00
1.00475641e+00
1.00487311e+00
1.00500198e+00
1.00514355e+00
1.00529771e+00
1.00546360e+00
1.00563963e+00
1.00582354e+00
1.00601256e+00
1.00620350e+00
1.00639301e+00
1.00657775e+00
1.00675461e+00
1.00692087e+00
1.00707434e+00
1.00721341e+00
1.00733715e+00
1.00744527e+00
1.00753802e+00
1.00761612e+00
1.00768069e+00
1.00773311e+00
1.00777475e+00
1.00780707e+00
1.00783151e+00
1.00785002e+00
1.00786298e+00
1.00787041e+00
9.92290014e-01
9.92299129e-01
9.92315126e-01
9.92337389e-01
9.92366794e-01
9.92405835e-01
9.92455897e-01
9.92518654e-01
9.92595654e-01
9.92688327e-01
9.92797618e-01
9.92923937e-01
9.93067005e-01
9.93225719e-01
9.93398135e-01
9.93581515e-01
9.93772450e-01
9.93967049e-01
9.94161223e-01
9.94350965e-01
9.94532648e-01
9.94703280e-01
9.94860694e-01
9.95003647e-01
9.95131830e-01
9.95245791e-01
9.95346787e-01
9.95436599e-01
9.95517326e-01
9.95591203e-01
9.95660436e-01
9.95727094e-01
9.95793039e-01
9.95859898e-01
9.95929071e-01
9.96001752e-01
9.96078960e-01
9.96161574e-01
9.96250343e-01
9.96345903e-01
9.96448769e-01
9.96559320e-01
9.96677783e-01
9.96804216e-01
9.96938492e-01
9.97080290e-01
9.97229102e-01
9.97384243e-01
9.97544879e-01
9.97710056e-01
9.97878744e-01
9.98049880e-01
9.98222419e-01
9.98395376e-01
9.98567870e-01
9.98739160e-01
9.98908672e-01
9.99076013e-01
9.99240983e-01
9.99403566e-01
9.99563916e-01
9.99722337e-01
9.99879246e-01
1.00003514e+00
1.00019057e+00
1.00034606e+00
1.00050213e+00
1.00065920e+00
1.00081761e+00
1.00097754e+00
1.00113905e+00
1.00130203e+00
1.00146621e+00
1.00163118e+00
1.00179639e+00
1.00196114e+00
1.00212467e+00
1.00228615e+00
1.00244472e+00
1.00259951e+00
1.00274972e+00
1.00289459e+00
1.00303349e+00
1.00316589e+00
1.00329141e+00
1.00340981e+00
1.00352101e+00
1.00362505e+00
1.00372217e+00
1.00381270e+00
1.00389715e+00
1.00397618e+00
1.00405061e+00
1.00412146e+00
1.00418993e+00
1.00425746e+00
1.00432568e+00
1.00439644e+00
1.00447173e+00
1.00455361e+00
1.00464411e+00
1.00474508e+00
1.00485808e+00
1.00498421e+00
1.00512394e+00
1.00527709e+00
1.00544272e+00
1.00561913e+00
1.00580397e+00
1.00599432e+00
1.00618691e+00
1.00637824e+00
1.00656488e+00
1.00674360e+00
1.00691159e+00
1.00706657e+00
1.00720692e+00
1.00733165e+00
1.00744043e+00
1.00753355e+00
1.00761168e+00
1.00767602e+00
1.00772784e+00
1.00776856e+00
1.00779950e+00
1.00782297e+00
1.00783943e+00
1.00784871e+00
9.92310891e-01
9.92323271e-01
9.92344095e-01
9.92372641e-01
9.92410276e-01
9.92459600e-01
9.92521879e-01
9.92598709e-01
9.92691463e-01
9.92801140e-01
9.92928148e-01
9.93072208e-01
9.93232226e-01
9.93406205e-01
9.93591353e-01
9.93784172e-01
9.93980674e-01
9.94176643e-01
9.94367964e-01
9.94550905e-01
9.94722387e-01
9.94880179e-01
9.95022996e-01
9.95150507e-01
9.95263245e-01
9.95362453e-01
9.95449882e-01
9.95527586e-01
9.95597721e-01
9.95662391e-01
9.95723533e-01
9.95782860e-01
9.95841840e-01
9.95901719e-01
9.95963560e-01
9.96028285e-01
9.96096725e-01
9.96169648e-01
9.96247776e-01
9.96331791e-01
9.96422322e-01
9.96519922e-01
9.96625050e-01
9.96738039e-01
9.96859076e-01
9.96988186e-01
9.97125221e-01
9.97269861e-01
9.97421625e-01
9.97579884e-01
9.97743890e-01
9.97912807e-01
9.98085746e-01
9.98261806e-01
9.98440110e-01
9.98619840e-01
9.98800273e-01
9.98980799e-01
9.99160939e-01
9.99340354e-01
9.99518839e-01
9.99696315e-01
9.99872806e-01
1.00004841e+00
1.00022329e+00
1.00039762e+00
1.00057154e+00
1.00074517e+00
1.00091854e+00
1.00109163e+00
1.00126425e+00
1.00143616e+00
1.00160697e+00
1.00177621e+00
1.00194330e+00
1.00210761e+00
1.00226847e+00
1.00242516e+00
1.00257702e+00
1.00272341e+00
1.00286376e+00
1.00299761e+00
1.00312458e+00
1.00324446e+00
1.00335714e+00
1.00346267e+00
1.00356120e+00
1.00365300e+00
1.00373847e+00
1.00381806e+00
1.00389232e+00
1.00396189e+00
1.00402748e+00
1.00408992e+00
1.00415019e+00
1.00420941e+00
1.00426890e+00
1.00433020e+00
1.00439504e+00
1.00446530e+00
1.00454298e+00
1.00463003e+00
1.00472829e+00
1.00483927e+00
1.00496403e+00
1.00510304e+00
1.00525607e+00
1.00542211e+00
1.00559942e+00
1.00578555e+00
1.00597752e+00
1.00617191e+00
1.00636516e+00
1.00655371e+00
1.00673425e+00
1.00690389e+00
1.00706029e+00
1.00720175e+00
1.00732728e+00
1.00743654e+00
1.00752974e+00
1.00760766e+00
1.00767135e+00
1.00772215e+00
1.00776113e+00
1.00779079e+00
1.00781186e+00
1.00782388e+00
9.92336277e-01
9.92353104e-01
9.92379972e-01
9.92416245e-01
9.92463863e-01
9.92525273e-01
9.92601597e-01
9.92694189e-01
9.92804033e-01
9.92931545e-01
9.93076465e-01
9.93237656e-01
9.93413124e-01
9.93600007e-01
9.93794743e-01
9.93993234e-01
9.94191167e-01
9.94384313e-01
9.94568844e-01
9.94741600e-01
9.94900299e-01
9.95043629e-01
9.95171252e-01
9.95283710e-01
9.95382257e-01
9.95468649e-01
9.95544925e-01
9.95613205e-01
9.95675522e-01
9.95733717e-01
9.95789375e-01
9.95843823e-01
9.95898148e-01
9.95953253e-01
9.96009913e-01
9.96068829e-01
9.96130674e-01
9.96196119e-01
9.96265843e-01
9.96340538e-01
9.96420888e-01
9.96507549e-01
9.96601129e-01
9.96702157e-01
9.96811059e-01
9.96928140e-01
9.97053570e-01
9.97187365e-01
9.97329393e-01
9.97479370e-01
9.97636873e-01
9.97801354e-01
9.97972162e-01
9.98148568e-01
9.98329796e-01
9.98515048e-01
9.98703536e-01
9.98894507e-01
9.99087262e-01
9.99281172e-01
9.99475687e-01
9.99670336e-01
9.99864722e-01
1.00005851e+00
1.00025142e+00
1.00044320e+00
1.00063359e+00
1.00082235e+00
1.00100919e+00
1.00119381e+00
1.00137584e+00
1.00155486e+00
1.00173042e+00
1.00190202e+00
1.00206914e+00
1.00223124e+00
1.00238780e+00
1.00253832e+00
1.00268237e+00
1.00281957e+00
1.00294963e+00
1.00307239e+00
1.00318776e+00
1.00329580e+00
1.00339666e+00
1.00349061e+00
1.00357801e+00
1.00365930e+00
1.00373499e+00
1.00380560e+00
1.00387172e+00
1.00393395e+00
1.00399289e+00
1.00404923e+00
1.00410370e+00
1.00415715e+00
1.00421057e+00
1.00426516e+00
1.00432232e+00
1.00438368e+00
1.00445104e+00
1.00452634e+00
1.00461151e+00
1.00470836e+00
1.00481840e+00
1.00494269e+00
1.00508171e+00
1.00523519e+00
1.00540212e+00
1.00558069e+00
1.00576840e+00
1.00596217e+00
1.00615851e+00
1.00635376e+00
1.00654426e+00
1.00672660e+00
1.00689782e+00
1.00705552e+00
1.00719795e+00
1.00732408e+00
1.00743353e+00
1.00752655e+00
1.00760379e+00
1.00766635e+00
1.00771502e+00
1.00775228e+00
1.00777920e+00
1.00779507e+00
9.92369335e-01
9.92391808e-01
9.92425899e-01
9.92471324e-01
9.92530603e-01
9.92605782e-01
9.92697741e-01
9.92807374e-01
9.92935121e-01
9.93080650e-01
9.93242869e-01
9.93419708e-01
9.93608283e-01
9.93804940e-01
9.94005507e-01
9.94205552e-01
9.94400742e-01
9.94587146e-01
9.94761529e-01
9.94921549e-01
9.95065872e-01
9.95194161e-01
9.95306975e-01
9.95405598e-01
9.95491813e-01
9.95567673e-01
9.95635291e-01
9.95696671e-01
9.95753595e-01
9.95807564e-01
9.95859796e-01
9.95911253e-01
9.95962701e-01
9.96014770e-01
9.96068018e-01
9.96122985e-01
9.96180222e-01
9.96240318e-01
9.96303904e-01
9.96371647e-01
9.96444237e-01
9.96522371e-01
9.96606730e-01
9.96697959e-01
9.96796646e-01
9.96903297e-01
9.97018323e-01
9.97142018e-01
9.97274549e-01
9.97415946e-01
9.97566096e-01
9.97724746e-01
9.97891509e-01
9.98065874e-01
9.98247223e-01
9.98434849e-01
9.98627979e-01
9.98825795e-01
9.99027454e-01
9.99232109e-01
9.99438922e-01
9.99647081e-01
9.99855805e-01
1.00006435e+00
1.00027200e+00