# vtk DataFile Version 2.0
LBM Flow Field - Timestep 390
ASCII
DATASET STRUCTURED_POINTS
DIMENSIONS 128 128 1
ORIGIN 0.0 0.0 0.0
SPACING 1.0 1.0 1.0
POINT_DATA 16384
SCALARS density double 1
LOOKUP_TABLE default
1.00541447e+00
1.00541692e+00
1.00541916e+00
1.00541697e+00
1.00541388e+00
1.00541059e+00
1.00540616e+00
1.00540082e+00
1.00539517e+00
1.00538919e+00
1.00538268e+00
1.00537569e+00
1.00536825e+00
1.00536027e+00
1.00535170e+00
1.00534254e+00
1.00533275e+00
1.00532227e+00
1.00531106e+00
1.00529908e+00
1.00528628e+00
1.00527260e+00
1.00525797e+00
1.00524234e+00
1.00522560e+00
1.00520764e+00
1.00518831e+00
1.00516744e+00
1.00514484e+00
1.00512032e+00
1.00509371e+00
1.00506485e+00
1.00503362e+00
1.00499992e+00
1.00496364e+00
1.00492461e+00
1.00488256e+00
1.00483702e+00
1.00478722e+00
1.00473207e+00
1.00467007e+00
1.00459929e+00
1.00451745e+00
1.00442197e+00
1.00431016e+00
1.00417947e+00
1.00402777e+00
1.00385364e+00
1.00365664e+00
1.00343754e+00
1.00319836e+00
1.00294241e+00
1.00267404e+00
1.00239836e+00
1.00212080e+00
1.00184663e+00
1.00158054e+00
1.00132617e+00
1.00108588e+00
1.00086051e+00
1.00064941e+00
1.00045055e+00
1.00026075e+00
1.00007604e+00
9.99892041e-01
9.99704366e-01
9.99509050e-01
9.99302883e-01
9.99083698e-01
9.98850560e-01
9.98603853e-01
9.98345260e-01
9.98077633e-01
9.97804776e-01
9.97531157e-01
9.97261572e-01
9.97000787e-01
9.96753209e-01
9.96522585e-01
9.96311786e-01
9.96122662e-01
9.95956001e-01
9.95811580e-01
9.95688290e-01
9.95584323e-01
9.95497397e-01
9.95424988e-01
9.95364542e-01
9.95313657e-01
9.95270210e-01
9.95232439e-01
9.95198964e-01
9.95168777e-01
9.95141185e-01
9.95115753e-01
9.95092226e-01
9.95070462e-01
9.95050374e-01
9.95031889e-01
9.95014922e-01
9.94999366e-01
9.94985093e-01
9.94971962e-01
9.94959835e-01
9.94948582e-01
9.94938094e-01
9.94928282e-01
9.94919081e-01
9.94910439e-01
9.94902314e-01
9.94894671e-01
9.94887482e-01
9.94880716e-01
9.94874333e-01
9.94868305e-01
9.94862626e-01
9.94857253e-01
9.94852126e-01
9.94847255e-01
9.94842684e-01
9.94838258e-01
9.94833989e-01
9.94830380e-01
9.94827672e-01
9.94825120e-01
9.94823237e-01
9.94824819e-01
9.94826588e-01
1.00541716e+00
1.00541707e+00
1.00541744e+00
1.00541531e+00
1.00541236e+00
1.00540885e+00
1.00540452e+00
1.00539948e+00
1.00539392e+00
1.00538791e+00
1.00538141e+00
1.00537443e+00
1.00536693e+00
1.00535889e+00
1.00535028e+00
1.00534106e+00
1.00533119e+00
1.00532064e+00
1.00530936e+00
1.00529730e+00
1.00528440e+00
1.00527062e+00
1.00525588e+00
1.00524011e+00
1.00522321e+00
1.00520507e+00
1.00518553e+00
1.00516444e+00
1.00514162e+00
1.00511688e+00
1.00509005e+00
1.00506098e+00
1.00502953e+00
1.00499557e+00
1.00495895e+00
1.00491945e+00
1.00487672e+00
1.00483023e+00
1.00477916e+00
1.00472240e+00
1.00465846e+00
1.00458551e+00
1.00450141e+00
1.00440380e+00
1.00429029e+00
1.00415862e+00
1.00400696e+00
1.00383410e+00
1.00363973e+00
1.00342459e+00
1.00319053e+00
1.00294052e+00
1.00267847e+00
1.00240896e+00
1.00213689e+00
1.00186707e+00
1.00160381e+00
1.00135053e+00
1.00110949e+00
1.00088162e+00
1.00066648e+00
1.00046235e+00
1.00026645e+00
1.00007525e+00
9.99884808e-01
9.99691180e-01
9.99490785e-01
9.99280737e-01
9.99059113e-01
9.98825123e-01
9.98579191e-01
9.98322930e-01
9.98059017e-01
9.97790988e-01
9.97522969e-01
9.97259368e-01
9.97004549e-01
9.96762535e-01
9.96536742e-01
9.96329786e-01
9.96143361e-01
9.95978205e-01
9.95834147e-01
9.95710218e-01
9.95604817e-01
9.95515904e-01
9.95441205e-01
9.95378394e-01
9.95325255e-01
9.95279800e-01
9.95240341e-01
9.95205524e-01
9.95174317e-01
9.95145985e-01
9.95120028e-01
9.95096128e-01
9.95074086e-01
9.95053770e-01
9.95035078e-01
9.95017907e-01
9.95002145e-01
9.94987666e-01
9.94974335e-01
9.94962020e-01
9.94950598e-01
9.94939961e-01
9.94930022e-01
9.94920711e-01
9.94911973e-01
9.94903764e-01
9.94896046e-01
9.94888786e-01
9.94881949e-01
9.94875509e-01
9.94869432e-01
9.94863701e-01
9.94858275e-01
9.94853146e-01
9.94848283e-01
9.94843711e-01
9.94839372e-01
9.94835388e-01
9.94831879e-01
9.94829000e-01
9.94826493e-01
9.94824614e-01
9.94824649e-01
9.94824362e-01
1.00542008e+00
1.00541796e+00
1.00541480e+00
1.00541301e+00
1.00541051e+00
1.00540650e+00
1.00540209e+00
1.00539733e+00
1.00539184e+00
1.00538573e+00
1.00537921e+00
1.00537221e+00
1.00536464e+00
1.00535652e+00
1.00534784e+00
1.00533854e+00
1.00532858e+00
1.00531793e+00
1.00530654e+00
1.00529436e+00
1.00528133e+00
1.00526740e+00
1.00525250e+00
1.00523655e+00
1.00521945e+00
1.00520107e+00
1.00518129e+00
1.00515993e+00
1.00513682e+00
1.00511178e+00
1.00508464e+00
1.00505524e+00
1.00502343e+00
1.00498903e+00
1.00495186e+00
1.00491163e+00
1.00486792e+00
1.00482012e+00
1.00476737e+00
1.00470851e+00
1.00464211e+00
1.00456644e+00
1.00447954e+00
1.00437933e+00
1.00426374e+00
1.00413089e+00
1.00397927e+00
1.00380796e+00
1.00361677e+00
1.00340641e+00
1.00317854e+00
1.00293572e+00
1.00268133e+00
1.00241935e+00
1.00215405e+00
1.00188965e+00
1.00163001e+00
1.00137826e+00
1.00113654e+00
1.00090586e+00
1.00068602e+00
1.00047569e+00
1.00027255e+00
1.00007362e+00
9.99875508e-01
9.99674800e-01
9.99468399e-01
9.99253824e-01
9.99029449e-01
9.98794664e-01
9.98549941e-01
9.98296801e-01
9.98037702e-01
9.97775846e-01
9.97514935e-01
9.97258893e-01
9.97011589e-01
9.96776571e-01
9.96556845e-01
9.96354712e-01
9.96171676e-01
9.96008413e-01
9.95864814e-01
9.95740085e-01
9.95632879e-01
9.95541455e-01
9.95463846e-01
9.95398008e-01
9.95341960e-01
9.95293879e-01
9.95252177e-01
9.95215532e-01
9.95182899e-01
9.95153488e-01
9.95126731e-01
9.95102235e-01
9.95079736e-01
9.95059049e-01
9.95040033e-01
9.95022563e-01
9.95006516e-01
9.94991764e-01
9.94978175e-01
9.94965619e-01
9.94953977e-01
9.94943143e-01
9.94933030e-01
9.94923565e-01
9.94914689e-01
9.94906357e-01
9.94898530e-01
9.94891168e-01
9.94884236e-01
9.94877713e-01
9.94871568e-01
9.94865756e-01
9.94860267e-01
9.94855118e-01
9.94850237e-01
9.94845578e-01
9.94841309e-01
9.94837559e-01
9.94834016e-01
9.94830729e-01
9.94828532e-01
9.94826807e-01
9.94823954e-01
9.94821945e-01
1.00541908e+00
1.00541677e+00
1.00541374e+00
1.00541094e+00
1.00540752e+00
1.00540370e+00
1.00539941e+00
1.00539444e+00
1.00538890e+00
1.00538285e+00
1.00537630e+00
1.00536921e+00
1.00536158e+00
1.00535340e+00
1.00534463e+00
1.00533523e+00
1.00532517e+00
1.00531440e+00
1.00530289e+00
1.00529057e+00
1.00527740e+00
1.00526331e+00
1.00524823e+00
1.00523208e+00
1.00521475e+00
1.00519613e+00
1.00517607e+00
1.00515440e+00
1.00513097e+00
1.00510559e+00
1.00507809e+00
1.00504829e+00
1.00501602e+00
1.00498109e+00
1.00494322e+00
1.00490206e+00
1.00485709e+00
1.00480760e+00
1.00475265e+00
1.00469106e+00
1.00462140e+00
1.00454207e+00
1.00445133e+00
1.00434742e+00
1.00422870e+00
1.00409371e+00
1.00394140e+00
1.00377121e+00
1.00358318e+00
1.00337803e+00
1.00315723e+00
1.00292293e+00
1.00267790e+00
1.00242535e+00
1.00216879e+00
1.00191168e+00
1.00165727e+00
1.00140824e+00
1.00116654e+00
1.00093321e+00
1.00070832e+00
1.00049098e+00
1.00027949e+00
1.00007154e+00
9.99864443e-01
9.99655497e-01
9.99442223e-01
9.99222653e-01
9.98995533e-01
9.98760460e-01
9.98517930e-01
9.98269317e-01
9.98016761e-01
9.97763008e-01
9.97511197e-01
9.97264634e-01
9.97026561e-01
9.96799945e-01
9.96587305e-01
9.96390590e-01
9.96211106e-01
9.96049499e-01
9.95905786e-01
9.95779423e-01
9.95669407e-01
9.95574384e-01
9.95492774e-01
9.95422881e-01
9.95363001e-01
9.95311506e-01
9.95266913e-01
9.95227932e-01
9.95193485e-01
9.95162709e-01
9.95134945e-01
9.95109707e-01
9.95086645e-01
9.95065508e-01
9.95046108e-01
9.95028292e-01
9.95011922e-01
9.94996866e-01
9.94982992e-01
9.94970173e-01
9.94958292e-01
9.94947244e-01
9.94936939e-01
9.94927302e-01
9.94918275e-01
9.94909805e-01
9.94901850e-01
9.94894374e-01
9.94887342e-01
9.94880720e-01
9.94874484e-01
9.94868608e-01
9.94863063e-01
9.94857827e-01
9.94852914e-01
9.94848306e-01
9.94844001e-01
9.94840074e-01
9.94836626e-01
9.94833458e-01
9.94830500e-01
9.94827916e-01
9.94825046e-01
9.94822700e-01
1.00541730e+00
1.00541475e+00
1.00541195e+00
1.00540819e+00
1.00540428e+00
1.00540059e+00
1.00539617e+00
1.00539101e+00
1.00538545e+00
1.00537942e+00
1.00537277e+00
1.00536559e+00
1.00535791e+00
1.00534964e+00
1.00534076e+00
1.00533125e+00
1.00532108e+00
1.00531018e+00
1.00529852e+00
1.00528605e+00
1.00527272e+00
1.00525844e+00
1.00524315e+00
1.00522676e+00
1.00520917e+00
1.00519025e+00
1.00516986e+00
1.00514784e+00
1.00512401e+00
1.00509821e+00
1.00507025e+00
1.00503994e+00
1.00500707e+00
1.00497139e+00
1.00493254e+00
1.00489006e+00
1.00484334e+00
1.00479153e+00
1.00473363e+00
1.00466840e+00
1.00459450e+00
1.00451047e+00
1.00441485e+00
1.00430629e+00
1.00418361e+00
1.00404592e+00
1.00389267e+00
1.00372372e+00
1.00353936e+00
1.00334036e+00
1.00312795e+00
1.00290378e+00
1.00266991e+00
1.00242870e+00
1.00218272e+00
1.00193456e+00
1.00168671e+00
1.00144132e+00
1.00120009e+00
1.00096407e+00
1.00073363e+00
1.00050839e+00
1.00028736e+00
1.00006905e+00
9.99851634e-01
9.99633241e-01
9.99412146e-01
9.99186997e-01
9.98956981e-01
9.98721933e-01
9.98482374e-01
9.98239484e-01
9.97995014e-01
9.97751150e-01
9.97510358e-01
9.97275200e-01
9.97048174e-01
9.96831562e-01
9.96627314e-01
9.96436969e-01
9.96261608e-01
9.96101847e-01
9.95957854e-01
9.95829385e-01
9.95715839e-01
9.95616321e-01
9.95529706e-01
9.95454713e-01
9.95389975e-01
9.95334105e-01
9.95285762e-01
9.95243703e-01
9.95206827e-01
9.95174198e-01
9.95145051e-01
9.95118789e-01
9.95094959e-01
9.95073226e-01
9.95053336e-01
9.95035096e-01
9.95018341e-01
9.95002928e-01
9.94988723e-01
9.94975600e-01
9.94963442e-01
9.94952147e-01
9.94941621e-01
9.94931790e-01
9.94922590e-01
9.94913965e-01
9.94905869e-01
9.94898266e-01
9.94891120e-01
9.94884392e-01
9.94878053e-01
9.94872094e-01
9.94866486e-01
9.94861170e-01
9.94856176e-01
9.94851563e-01
9.94847248e-01
9.94843164e-01
9.94839587e-01
9.94836498e-01
9.94833100e-01
9.94829695e-01
9.94826922e-01
9.94824281e-01
1.00541516e+00
1.00541208e+00
1.00540862e+00
1.00540494e+00
1.00540111e+00
1.00539689e+00
1.00539219e+00
1.00538713e+00
1.00538152e+00
1.00537530e+00
1.00536859e+00
1.00536137e+00
1.00535357e+00
1.00534518e+00
1.00533619e+00
1.00532656e+00
1.00531623e+00
1.00530518e+00
1.00529336e+00
1.00528070e+00
1.00526715e+00
1.00525264e+00
1.00523710e+00
1.00522042e+00
1.00520251e+00
1.00518322e+00
1.00516243e+00
1.00513997e+00
1.00511567e+00
1.00508934e+00
1.00506078e+00
1.00502978e+00
1.00499607e+00
1.00495933e+00
1.00491911e+00
1.00487484e+00
1.00482578e+00
1.00477100e+00
1.00470941e+00
1.00463979e+00
1.00456089e+00
1.00447144e+00
1.00437033e+00
1.00425663e+00
1.00412970e+00
1.00398920e+00
1.00383511e+00
1.00366771e+00
1.00348757e+00
1.00329546e+00
1.00309236e+00
1.00287941e+00
1.00265792e+00
1.00242932e+00
1.00219519e+00
1.00195716e+00
1.00171688e+00
1.00147591e+00
1.00123560e+00
1.00099701e+00
1.00076077e+00
1.00052711e+00
1.00029579e+00
1.00006622e+00
9.99837580e-01
9.99608919e-01
9.99379372e-01
9.99148283e-01
9.98915333e-01
9.98680617e-01
9.98444669e-01
9.98208437e-01
9.97973223e-01
9.97740582e-01
9.97512219e-01
9.97289875e-01
9.97075226e-01
9.96869809e-01
9.96674957e-01
9.96491767e-01
9.96321082e-01
9.96163488e-01
9.96019310e-01
9.95888623e-01
9.95771251e-01
9.95666784e-01
9.95574584e-01
9.95493818e-01
9.95423488e-01
9.95362485e-01
9.95309640e-01
9.95263792e-01
9.95223839e-01
9.95188785e-01
9.95157773e-01
9.95130095e-01
9.95105189e-01
9.95082622e-01
9.95062064e-01
9.95043265e-01
9.95026023e-01
9.95010174e-01
9.94995571e-01
9.94982085e-01
9.94969598e-01
9.94958005e-01
9.94947214e-01
9.94937146e-01
9.94927734e-01
9.94918921e-01
9.94910658e-01
9.94902900e-01
9.94895611e-01
9.94888762e-01
9.94882317e-01
9.94876241e-01
9.94870527e-01
9.94865167e-01
9.94860106e-01
9.94855342e-01
9.94850961e-01
9.94846946e-01
9.94843125e-01
9.94839581e-01
9.94836208e-01
9.94832820e-01
9.94829481e-01
9.94826385e-01
1.00541159e+00
1.00540840e+00
1.00540469e+00
1.00540103e+00
1.00539702e+00
1.00539251e+00
1.00538776e+00
1.00538262e+00
1.00537682e+00
1.00537051e+00
1.00536373e+00
1.00535639e+00
1.00534846e+00
1.00533995e+00
1.00533082e+00
1.00532103e+00
1.00531053e+00
1.00529930e+00
1.00528727e+00
1.00527438e+00
1.00526059e+00
1.00524580e+00
1.00522995e+00
1.00521293e+00
1.00519462e+00
1.00517491e+00
1.00515365e+00
1.00513067e+00
1.00510579e+00
1.00507882e+00
1.00504952e+00
1.00501764e+00
1.00498285e+00
1.00494471e+00
1.00490271e+00
1.00485613e+00
1.00480412e+00
1.00474568e+00
1.00467969e+00
1.00460497e+00
1.00452040e+00
1.00442498e+00
1.00431796e+00
1.00419890e+00
1.00406767e+00
1.00392450e+00
1.00376990e+00
1.00360455e+00
1.00342922e+00
1.00324470e+00
1.00305168e+00
1.00285078e+00
1.00264252e+00
1.00242741e+00
1.00220599e+00
1.00197890e+00
1.00174690e+00
1.00151091e+00
1.00127191e+00
1.00103090e+00
1.00078882e+00
1.00054646e+00
1.00030441e+00
1.00006306e+00
9.99822623e-01
9.99583184e-01
9.99344804e-01
9.99107583e-01
9.98871734e-01
9.98637628e-01
9.98405801e-01
9.98176945e-01
9.97951866e-01
9.97731437e-01
9.97516549e-01
9.97308066e-01
9.97106803e-01
9.96913512e-01
9.96728883e-01
9.96553554e-01
9.96388116e-01
9.96233113e-01
9.96089025e-01
9.95956236e-01
9.95834997e-01
9.95725382e-01
9.95627250e-01
9.95540231e-01
9.95463725e-01
9.95396929e-01
9.95338889e-01
9.95288558e-01
9.95244869e-01
9.95206796e-01
9.95173402e-01
9.95143879e-01
9.95117554e-01
9.95093889e-01
9.95072465e-01
9.95052959e-01
9.95035118e-01
9.95018744e-01
9.95003672e-01
9.94989759e-01
9.94976885e-01
9.94964942e-01
9.94953836e-01
9.94943486e-01
9.94933822e-01
9.94924782e-01
9.94916317e-01
9.94908378e-01
9.94900922e-01
9.94893918e-01
9.94887341e-01
9.94881147e-01
9.94875307e-01
9.94869835e-01
9.94864704e-01
9.94859850e-01
9.94855315e-01
9.94851208e-01
9.94847323e-01
9.94843517e-01
9.94839971e-01
9.94836571e-01
9.94833025e-01
9.94829829e-01
1.00540675e+00
1.00540372e+00
1.00540018e+00
1.00539623e+00
1.00539197e+00
1.00538753e+00
1.00538269e+00
1.00537726e+00
1.00537137e+00
1.00536502e+00
1.00535809e+00
1.00535059e+00
1.00534254e+00
1.00533389e+00
1.00532459e+00
1.00531461e+00
1.00530392e+00
1.00529247e+00
1.00528020e+00
1.00526706e+00
1.00525298e+00
1.00523787e+00
1.00522166e+00
1.00520424e+00
1.00518549e+00
1.00516529e+00
1.00514349e+00
1.00511991e+00
1.00509436e+00
1.00506661e+00
1.00503641e+00
1.00500341e+00
1.00496721e+00
1.00492729e+00
1.00488298e+00
1.00483350e+00
1.00477788e+00
1.00471508e+00
1.00464399e+00
1.00456354e+00
1.00447280e+00
1.00437108e+00
1.00425803e+00
1.00413369e+00
1.00399846e+00
1.00385310e+00
1.00369855e+00
1.00353586e+00
1.00336597e+00
1.00318960e+00
1.00300716e+00
1.00281874e+00
1.00262410e+00
1.00242285e+00
1.00221451e+00
1.00199874e+00
1.00177543e+00
1.00154480e+00
1.00130745e+00
1.00106431e+00
1.00081657e+00
1.00056559e+00
1.00031279e+00
1.00005956e+00
9.99807192e-01
9.99556862e-01
9.99309593e-01
9.99066278e-01
9.98827685e-01
9.98594463e-01
9.98367146e-01
9.98146147e-01
9.97931752e-01
9.97724125e-01
9.97523320e-01
9.97329310e-01
9.97142037e-01
9.96961465e-01
9.96787641e-01
9.96620741e-01
9.96461098e-01
9.96309201e-01
9.96165658e-01
9.96031138e-01
9.95906284e-01
9.95791628e-01
9.95687509e-01
9.95594014e-01
9.95510950e-01
9.95437847e-01
9.95373997e-01
9.95318515e-01
9.95270412e-01
9.95228670e-01
9.95192308e-01
9.95160433e-01
9.95132272e-01
9.95107181e-01
9.95084642e-01
9.95064244e-01
9.95045672e-01
9.95028675e-01
9.95013057e-01
9.94998658e-01
9.94985343e-01
9.94973001e-01
9.94961534e-01
9.94950859e-01
9.94940903e-01
9.94931602e-01
9.94922898e-01
9.94914748e-01
9.94907106e-01
9.94899926e-01
9.94893180e-01
9.94886851e-01
9.94880897e-01
9.94875277e-01
9.94870008e-01
9.94865102e-01
9.94860471e-01
9.94856118e-01
9.94852129e-01
9.94848356e-01
9.94844600e-01
9.94840950e-01
9.94837531e-01
9.94834461e-01
1.00540121e+00
1.00539818e+00
1.00539464e+00
1.00539058e+00
1.00538627e+00
1.00538174e+00
1.00537671e+00
1.00537118e+00
1.00536521e+00
1.00535870e+00
1.00535161e+00
1.00534399e+00
1.00533579e+00
1.00532696e+00
1.00531747e+00
1.00530730e+00
1.00529639e+00
1.00528469e+00
1.00527215e+00
1.00525871e+00
1.00524430e+00
1.00522882e+00
1.00521220e+00
1.00519433e+00
1.00517508e+00
1.00515432e+00
1.00513190e+00
1.00510763e+00
1.00508129e+00
1.00505262e+00
1.00502128e+00
1.00498687e+00
1.00494888e+00
1.00490668e+00
1.00485950e+00
1.00480644e+00
1.00474651e+00
1.00467863e+00
1.00460179e+00
1.00451508e+00
1.00441783e+00
1.00430971e+00
1.00419078e+00
1.00406156e+00
1.00392295e+00
1.00377614e+00
1.00362246e+00
1.00346320e+00
1.00329939e+00
1.00313166e+00
1.00296011e+00
1.00278429e+00
1.00260326e+00
1.00241577e+00
1.00222043e+00
1.00201595e+00
1.00180138e+00
1.00157629e+00
1.00134087e+00
1.00109593e+00
1.00084290e+00
1.00058367e+00
1.00032047e+00
1.00005568e+00
9.99791677e-01
9.99530717e-01
9.99274808e-01
9.99025644e-01
9.98784551e-01
9.98552457e-01
9.98329888e-01
9.98116971e-01
9.97913470e-01
9.97718840e-01
9.97532308e-01
9.97352975e-01
9.97179932e-01
9.97012383e-01
9.96849749e-01
9.96691754e-01
9.96538468e-01
9.96390300e-01
9.96247950e-01
9.96112317e-01
9.95984383e-01
9.95865087e-01
9.95755203e-01
9.95655253e-01
9.95565447e-01
9.95485666e-01
9.95415485e-01
9.95354225e-01
9.95301027e-01
9.95254929e-01
9.95214950e-01
9.95180144e-01
9.95149654e-01
9.95122736e-01
9.95098769e-01
9.95077246e-01
9.95057769e-01
9.95040025e-01
9.95023769e-01
9.95008811e-01
9.94994998e-01
9.94982205e-01
9.94970331e-01
9.94959287e-01
9.94948998e-01
9.94939399e-01
9.94930429e-01
9.94922034e-01
9.94914173e-01
9.94906802e-01
9.94899878e-01
9.94893374e-01
9.94887275e-01
9.94881535e-01
9.94876122e-01
9.94871065e-01
9.94866347e-01
9.94861889e-01
9.94857732e-01
9.94853866e-01
9.94850055e-01
9.94846302e-01
9.94842882e-01
9.94839812e-01
1.00539496e+00
1.00539186e+00
1.00538819e+00
1.00538415e+00
1.00537982e+00
1.00537509e+00
1.00536995e+00
1.00536437e+00
1.00535823e+00
1.00535154e+00
1.00534434e+00
1.00533657e+00
1.00532817e+00
1.00531915e+00
1.00530947e+00
1.00529907e+00
1.00528790e+00
1.00527593e+00
1.00526309e+00
1.00524931e+00
1.00523452e+00
1.00521863e+00
1.00520154e+00
1.00518315e+00
1.00516334e+00
1.00514196e+00
1.00511883e+00
1.00509376e+00
1.00506647e+00
1.00503665e+00
1.00500390e+00
1.00496770e+00
1.00492746e+00
1.00488241e+00
1.00483170e+00
1.00477436e+00
1.00470939e+00
1.00463578e+00
1.00455265e+00
1.00445933e+00
1.00435546e+00
1.00424111e+00
1.00411676e+00
1.00398337e+00
1.00384227e+00
1.00369499e+00
1.00354314e+00
1.00338815e+00
1.00323105e+00
1.00307230e+00
1.00291168e+00
1.00274824e+00
1.00258041e+00
1.00240618e+00
1.00222331e+00
1.00202970e+00
1.00182363e+00
1.00160405e+00
1.00137073e+00
1.00112440e+00
1.00086665e+00
1.00059986e+00
1.00032700e+00
1.00005140e+00
9.99776478e-01
9.99505542e-01
9.99241560e-01
9.98987009e-01
9.98743763e-01
9.98513024e-01
9.98295303e-01
9.98090449e-01
9.97897721e-01
9.97715893e-01
9.97543407e-01
9.97378542e-01
9.97219596e-01
9.97065059e-01
9.96913770e-01
9.96765023e-01
9.96618618e-01
9.96474860e-01
9.96334487e-01
9.96198565e-01
9.96068337e-01
9.95945074e-01
9.95829928e-01
9.95723812e-01
9.95627320e-01
9.95540689e-01
9.95463804e-01
9.95396237e-01
9.95337309e-01
9.95286174e-01
9.95241895e-01
9.95203518e-01
9.95170131e-01
9.95140905e-01
9.95115120e-01
9.95092169e-01
9.95071559e-01
9.95052900e-01
9.95035885e-01
9.95020278e-01
9.95005896e-01
9.94992595e-01
9.94980264e-01
9.94968806e-01
9.94958142e-01
9.94948203e-01
9.94938930e-01
9.94930263e-01
9.94922151e-01
9.94914557e-01
9.94907441e-01
9.94900753e-01
9.94894470e-01
9.94888586e-01
9.94883056e-01
9.94877833e-01
9.94872959e-01
9.94868440e-01
9.94864175e-01
9.94860131e-01
9.94856283e-01
9.94852537e-01
9.94848998e-01
9.94845881e-01
1.00538782e+00
1.00538472e+00
1.00538101e+00
1.00537691e+00
1.00537247e+00
1.00536765e+00
1.00536243e+00
1.00535670e+00
1.00535041e+00
1.00534360e+00
1.00533623e+00
1.00532827e+00
1.00531968e+00
1.00531046e+00
1.00530054e+00
1.00528988e+00
1.00527844e+00
1.00526616e+00
1.00525298e+00
1.00523881e+00
1.00522360e+00
1.00520723e+00
1.00518963e+00
1.00517067e+00
1.00515022e+00
1.00512812e+00
1.00510418e+00
1.00507815e+00
1.00504972e+00
1.00501848e+00
1.00498395e+00
1.00494552e+00
1.00490246e+00
1.00485392e+00
1.00479898e+00
1.00473665e+00
1.00466596e+00
1.00458604e+00
1.00449623e+00
1.00439614e+00
1.00428580e+00
1.00416565e+00
1.00403662e+00
1.00390005e+00
1.00375757e+00
1.00361099e+00
1.00346205e+00
1.00331220e+00
1.00316238e+00
1.00301283e+00
1.00286297e+00
1.00271141e+00
1.00255602e+00
1.00239413e+00
1.00222284e+00
1.00203932e+00
1.00184121e+00
1.00162689e+00
1.00139580e+00
1.00114852e+00
1.00088678e+00
1.00061338e+00
1.00033196e+00
1.00004669e+00
9.99761966e-01
9.99482072e-01
9.99210877e-01
9.98951603e-01
9.98706639e-01
9.98477448e-01
9.98264530e-01
9.98067478e-01
9.97885080e-01
9.97715491e-01
9.97556437e-01
9.97405456e-01
9.97260132e-01
9.97118319e-01
9.96978327e-01
9.96839047e-01
9.96700011e-01
9.96561385e-01
9.96423889e-01
9.96288670e-01
9.96157147e-01
9.96030834e-01
9.95911182e-01
9.95799438e-01
9.95696551e-01
9.95603105e-01
9.95519313e-01
9.95445034e-01
9.95379822e-01
9.95323001e-01
9.95273734e-01
9.95231108e-01
9.95194193e-01
9.95162104e-01
9.95134033e-01
9.95109277e-01
9.95087243e-01
9.95067450e-01
9.95049514e-01
9.95033141e-01
9.95018102e-01
9.95004226e-01
9.94991380e-01
9.94979458e-01
9.94968375e-01
9.94958056e-01
9.94948437e-01
9.94939463e-01
9.94931076e-01
9.94923227e-01
9.94915880e-01
9.94908998e-01
9.94902532e-01
9.94896461e-01
9.94890775e-01
9.94885432e-01
9.94880409e-01
9.94875742e-01
9.94871393e-01
9.94867262e-01
9.94863312e-01
9.94859505e-01
9.94855924e-01
9.94852801e-01
1.00537987e+00
1.00537677e+00
1.00537304e+00
1.00536883e+00
1.00536430e+00
1.00535943e+00
1.00535408e+00
1.00534818e+00
1.00534177e+00
1.00533481e+00
1.00532725e+00
1.00531909e+00
1.00531031e+00
1.00530085e+00
1.00529067e+00
1.00527973e+00
1.00526798e+00
1.00525535e+00
1.00524177e+00
1.00522718e+00
1.00521148e+00
1.00519460e+00
1.00517641e+00
1.00515681e+00
1.00513564e+00
1.00511272e+00
1.00508782e+00
1.00506064e+00
1.00503079e+00
1.00499780e+00
1.00496105e+00
1.00491984e+00
1.00487333e+00
1.00482061e+00
1.00476072e+00
1.00469270e+00
1.00461570e+00
1.00452905e+00
1.00443237e+00
1.00432561e+00
1.00420920e+00
1.00408399e+00
1.00395127e+00
1.00381269e+00
1.00367014e+00
1.00352552e+00
1.00338060e+00
1.00323673e+00
1.00309464e+00
1.00295432e+00
1.00281483e+00
1.00267438e+00
1.00253037e+00
1.00237963e+00
1.00221869e+00
1.00204420e+00
1.00185324e+00
1.00164379e+00
1.00141496e+00
1.00116719e+00
1.00090234e+00
1.00062353e+00
1.00033495e+00
1.00004152e+00
9.99748480e-01
9.99460981e-01
9.99183711e-01
9.98920563e-01
9.98674401e-01
9.98446927e-01
9.98238641e-01
9.98048912e-01
9.97876120e-01
9.97717877e-01
9.97571295e-01
9.97433275e-01
9.97300791e-01
9.97171150e-01
9.97042199e-01
9.96912464e-01
9.96781210e-01
9.96648429e-01
9.96514757e-01
9.96381342e-01
9.96249676e-01
9.96121423e-01
9.95998245e-01
9.95881654e-01
9.95772905e-01
9.95672911e-01
9.95582218e-01
9.95500995e-01
9.95429074e-01
9.95365997e-01
9.95311088e-01
9.95263525e-01
9.95222411e-01
9.95186837e-01
9.95155935e-01
9.95128916e-01
9.95105091e-01
9.95083878e-01
9.95064809e-01
9.95047512e-01
9.95031703e-01
9.95017166e-01
9.95003739e-01
9.94991297e-01
9.94979745e-01
9.94969003e-01
9.94958999e-01
9.94949675e-01
9.94940977e-01
9.94932851e-01
9.94925245e-01
9.94918130e-01
9.94911469e-01
9.94905210e-01
9.94899336e-01
9.94893846e-01
9.94888699e-01
9.94883875e-01
9.94879402e-01
9.94875211e-01
9.94871167e-01
9.94867259e-01
9.94863652e-01
9.94860518e-01
1.00537115e+00
1.00536800e+00
1.00536420e+00
1.00535994e+00
1.00535533e+00
1.00535035e+00
1.00534486e+00
1.00533884e+00
1.00533228e+00
1.00532512e+00
1.00531737e+00
1.00530902e+00
1.00530000e+00
1.00529027e+00
1.00527981e+00
1.00526856e+00
1.00525645e+00
1.00524343e+00
1.00522942e+00
1.00521435e+00
1.00519813e+00
1.00518065e+00
1.00516182e+00
1.00514149e+00
1.00511950e+00
1.00509562e+00
1.00506958e+00
1.00504099e+00
1.00500940e+00
1.00497421e+00
1.00493471e+00
1.00489010e+00
1.00483946e+00
1.00478183e+00
1.00471628e+00
1.00464197e+00
1.00455820e+00
1.00446459e+00
1.00436107e+00
1.00424801e+00
1.00412622e+00
1.00399691e+00
1.00386172e+00
1.00372251e+00
1.00358127e+00
1.00343992e+00
1.00330009e+00
1.00316293e+00
1.00302891e+00
1.00289768e+00
1.00276797e+00
1.00263764e+00
1.00250371e+00
1.00236265e+00
1.00221060e+00
1.00204382e+00
1.00185904e+00
1.00165391e+00
1.00142729e+00
1.00117954e+00
1.00091255e+00
1.00062971e+00
1.00033565e+00
1.00003587e+00
9.99736310e-01
9.99442855e-01
9.99160885e-01
9.98894874e-01
9.98648103e-01
9.98422490e-01
9.98218550e-01
9.98035475e-01
9.97871314e-01
9.97723244e-01
9.97587880e-01
9.97461610e-01
9.97340919e-01
9.97222669e-01
9.97104318e-01
9.96984067e-01
9.96860914e-01
9.96734646e-01
9.96605753e-01
9.96475294e-01
9.96344740e-01
9.96215803e-01
9.96090261e-01
9.95969817e-01
9.95855971e-01
9.95749934e-01
9.95652569e-01
9.95564372e-01
9.95485479e-01
9.95415699e-01
9.95354565e-01
9.95301405e-01
9.95255404e-01
9.95215677e-01
9.95181331e-01
9.95151513e-01
9.95125446e-01
9.95102455e-01
9.95081975e-01
9.95063547e-01
9.95046814e-01
9.95031504e-01
9.95017412e-01
9.95004387e-01
9.94992311e-01
9.94981096e-01
9.94970667e-01
9.94960955e-01
9.94951903e-01
9.94943463e-01
9.94935579e-01
9.94928204e-01
9.94921307e-01
9.94914852e-01
9.94908794e-01
9.94903118e-01
9.94897821e-01
9.94892876e-01
9.94888269e-01
9.94883963e-01
9.94879847e-01
9.94875874e-01
9.94872197e-01
9.94869011e-01
1.00536159e+00
1.00535840e+00
1.00535452e+00
1.00535019e+00
1.00534550e+00
1.00534039e+00
1.00533478e+00
1.00532863e+00
1.00532188e+00
1.00531453e+00
1.00530659e+00
1.00529800e+00
1.00528871e+00
1.00527871e+00
1.00526793e+00
1.00525633e+00
1.00524382e+00
1.00523037e+00
1.00521588e+00
1.00520027e+00
1.00518346e+00
1.00516534e+00
1.00514578e+00
1.00512463e+00
1.00510168e+00
1.00507666e+00
1.00504921e+00
1.00501890e+00
1.00498513e+00
1.00494722e+00
1.00490436e+00
1.00485566e+00
1.00480016e+00
1.00473692e+00
1.00466509e+00
1.00458399e+00
1.00449320e+00
1.00439263e+00
1.00428261e+00
1.00416389e+00
1.00403766e+00
1.00390547e+00
1.00376918e+00
1.00363079e+00
1.00349227e+00
1.00335543e+00
1.00322166e+00
1.00309181e+00
1.00296601e+00
1.00284356e+00
1.00272286e+00
1.00260146e+00
1.00247614e+00
1.00234312e+00
1.00219832e+00
1.00203780e+00
1.00185807e+00
1.00165660e+00
1.00143210e+00
1.00118486e+00
1.00091680e+00
1.00063147e+00
1.00033380e+00
1.00002972e+00
9.99725694e-01
9.99428170e-01
9.99143073e-01
9.98875346e-01
9.98628615e-01
9.98404990e-01
9.98205018e-01
9.98027775e-01
9.97871078e-01
9.97731785e-01
9.97606152e-01
9.97490195e-01
9.97380036e-01
9.97272199e-01
9.97163833e-01
9.97052853e-01
9.96938001e-01
9.96818826e-01
9.96695610e-01
9.96569248e-01
9.96441097e-01
9.96312815e-01
9.96186207e-01
9.96063081e-01
9.95945119e-01
9.95833776e-01
9.95730211e-01
9.95635239e-01
9.95549317e-01
9.95472550e-01
9.95404729e-01
9.95345380e-01
9.95293828e-01
9.95249263e-01
9.95210809e-01
9.95177583e-01
9.95148745e-01
9.95123533e-01
9.95101286e-01
9.95081454e-01
9.95063594e-01
9.95047361e-01
9.95032496e-01
9.95018804e-01
9.95006142e-01
9.94994401e-01
9.94983496e-01
9.94973355e-01
9.94963914e-01
9.94955118e-01
9.94946920e-01
9.94939265e-01
9.94932108e-01
9.94925420e-01
9.94919166e-01
9.94913303e-01
9.94907829e-01
9.94902744e-01
9.94898013e-01
9.94893584e-01
9.94889379e-01
9.94885338e-01
9.94881579e-01
9.94878339e-01
1.00535117e+00
1.00534793e+00
1.00534399e+00
1.00533957e+00
1.00533478e+00
1.00532956e+00
1.00532381e+00
1.00531748e+00
1.00531055e+00
1.00530302e+00
1.00529484e+00
1.00528599e+00
1.00527642e+00
1.00526611e+00
1.00525498e+00
1.00524297e+00
1.00523004e+00
1.00521610e+00
1.00520107e+00
1.00518488e+00
1.00516742e+00
1.00514857e+00
1.00512818e+00
1.00510608e+00
1.00508199e+00
1.00505558e+00
1.00502642e+00
1.00499395e+00
1.00495750e+00
1.00491626e+00
1.00486936e+00
1.00481583e+00
1.00475475e+00
1.00468526e+00
1.00460664e+00
1.00451847e+00
1.00442062e+00
1.00431338e+00
1.00419746e+00
1.00407400e+00
1.00394452e+00
1.00381084e+00
1.00367494e+00
1.00353885e+00
1.00340441e+00
1.00327320e+00
1.00314630e+00
1.00302417e+00
1.00290655e+00
1.00279237e+00
1.00267975e+00
1.00256597e+00
1.00244767e+00
1.00232094e+00
1.00218167e+00
1.00202585e+00
1.00184998e+00
1.00165144e+00
1.00142893e+00
1.00118269e+00
1.00091467e+00
1.00062848e+00
1.00032921e+00
1.00002306e+00
9.99716808e-01
9.99417281e-01
9.99130780e-01
9.98862586e-01
9.98616591e-01
9.98395068e-01
9.98198620e-01
9.98026279e-01
9.97875735e-01
9.97743664e-01
9.97626109e-01
9.97518858e-01
9.97417806e-01
9.97319246e-01
9.97220096e-01
9.97118031e-01
9.97011538e-01
9.96899910e-01
9.96783172e-01
9.96661982e-01
9.96537498e-01
9.96411238e-01
9.96284945e-01
9.96160446e-01
9.96039529e-01
9.95923838e-01
9.95814786e-01
9.95713482e-01
9.95620702e-01
9.95536867e-01
9.95462055e-01
9.95396040e-01
9.95338337e-01
9.95288264e-01
9.95245015e-01
9.95207720e-01
9.95175508e-01
9.95147550e-01
9.95123101e-01
9.95101516e-01
9.95082259e-01
9.95064902e-01
9.95049115e-01
9.95034649e-01
9.95021320e-01
9.95008990e-01
9.94997556e-01
9.94986938e-01
9.94977067e-01
9.94967880e-01
9.94959325e-01
9.94951356e-01
9.94943920e-01
9.94936973e-01
9.94930487e-01
9.94924431e-01
9.94918776e-01
9.94913519e-01
9.94908652e-01
9.94904112e-01
9.94899803e-01
9.94895668e-01
9.94891837e-01
9.94888548e-01
1.00533987e+00
1.00533658e+00
1.00533257e+00
1.00532805e+00
1.00532315e+00
1.00531781e+00
1.00531191e+00
1.00530540e+00
1.00529828e+00
1.00529051e+00
1.00528208e+00
1.00527295e+00
1.00526308e+00
1.00525241e+00
1.00524088e+00
1.00522845e+00
1.00521503e+00
1.00520056e+00
1.00518494e+00
1.00516810e+00
1.00514991e+00
1.00513023e+00
1.00510890e+00
1.00508566e+00
1.00506019e+00
1.00503208e+00
1.00500080e+00
1.00496567e+00
1.00492592e+00
1.00488067e+00
1.00482899e+00
1.00476992e+00
1.00470261e+00
1.00462633e+00
1.00454060e+00
1.00444529e+00
1.00434063e+00
1.00422729e+00
1.00410636e+00
1.00397934e+00
1.00384800e+00
1.00371432e+00
1.00358034e+00
1.00344797e+00
1.00331886e+00
1.00319424e+00
1.00307479e+00
1.00296056e+00
1.00285088e+00
1.00274431e+00
1.00263868e+00
1.00253112e+00
1.00241818e+00
1.00229598e+00
1.00216049e+00
1.00200782e+00
1.00183456e+00
1.00163824e+00
1.00141757e+00
1.00117283e+00
1.00090595e+00
1.00062057e+00
1.00032180e+00
1.00001590e+00
9.99709772e-01