# vtk DataFile Version 2.0
LBM Flow Field - Timestep 2160
ASCII
DATASET STRUCTURED_POINTS
DIMENSIONS 128 128 1
ORIGIN 0.0 0.0 0.0
SPACING 1.0 1.0 1.0
POINT_DATA 16384
SCALARS density double 1
LOOKUP_TABLE default
1.00193993e+00
1.00194241e+00
1.00194490e+00
1.00194215e+00
1.00193844e+00
1.00193496e+00
1.00193040e+00
1.00192473e+00
1.00191860e+00
1.00191186e+00
1.00190422e+00
1.00189576e+00
1.00188656e+00
1.00187650e+00
1.00186554e+00
1.00185368e+00
1.00184089e+00
1.00182714e+00
1.00181238e+00
1.00179661e+00
1.00177980e+00
1.00176191e+00
1.00174293e+00
1.00172283e+00
1.00170159e+00
1.00167918e+00
1.00165560e+00
1.00163081e+00
1.00160481e+00
1.00157759e+00
1.00154913e+00
1.00151943e+00
1.00148851e+00
1.00145636e+00
1.00142302e+00
1.00138850e+00
1.00135284e+00
1.00131608e+00
1.00127827e+00
1.00123946e+00
1.00119971e+00
1.00115909e+00
1.00111766e+00
1.00107548e+00
1.00103264e+00
1.00098919e+00
1.00094521e+00
1.00090075e+00
1.00085589e+00
1.00081066e+00
1.00076513e+00
1.00071933e+00
1.00067331e+00
1.00062709e+00
1.00058070e+00
1.00053416e+00
1.00048750e+00
1.00044071e+00
1.00039382e+00
1.00034683e+00
1.00029977e+00
1.00025264e+00
1.00020546e+00
1.00015826e+00
1.00011108e+00
1.00006396e+00
1.00001695e+00
9.99970130e-01
9.99923570e-01
9.99877371e-01
9.99831642e-01
9.99786507e-01
9.99742103e-01
9.99698579e-01
9.99656095e-01
9.99614815e-01
9.99574912e-01
9.99536556e-01
9.99499918e-01
9.99465161e-01
9.99432436e-01
9.99401884e-01
9.99373625e-01
9.99347758e-01
9.99324360e-01
9.99303480e-01
9.99285140e-01
9.99269331e-01
9.99256016e-01
9.99245130e-01
9.99236580e-01
9.99230248e-01
9.99225992e-01
9.99223654e-01
9.99223055e-01
9.99224010e-01
9.99226321e-01
9.99229791e-01
9.99234220e-01
9.99239415e-01
9.99245190e-01
9.99251371e-01
9.99257795e-01
9.99264318e-01
9.99270812e-01
9.99277167e-01
9.99283292e-01
9.99289112e-01
9.99294572e-01
9.99299632e-01
9.99304264e-01
9.99308459e-01
9.99312216e-01
9.99315533e-01
9.99318425e-01
9.99320935e-01
9.99323074e-01
9.99324819e-01
9.99326270e-01
9.99327550e-01
9.99328490e-01
9.99328969e-01
9.99329679e-01
9.99330695e-01
9.99330551e-01
9.99330171e-01
9.99335540e-01
9.99340382e-01
1.00194139e+00
1.00194106e+00
1.00194172e+00
1.00193962e+00
1.00193652e+00
1.00193285e+00
1.00192841e+00
1.00192306e+00
1.00191703e+00
1.00191030e+00
1.00190278e+00
1.00189444e+00
1.00188528e+00
1.00187526e+00
1.00186435e+00
1.00185250e+00
1.00183971e+00
1.00182593e+00
1.00181114e+00
1.00179531e+00
1.00177843e+00
1.00176046e+00
1.00174138e+00
1.00172117e+00
1.00169980e+00
1.00167727e+00
1.00165356e+00
1.00162863e+00
1.00160250e+00
1.00157514e+00
1.00154656e+00
1.00151674e+00
1.00148571e+00
1.00145348e+00
1.00142006e+00
1.00138548e+00
1.00134978e+00
1.00131299e+00
1.00127518e+00
1.00123638e+00
1.00119667e+00
1.00115609e+00
1.00111473e+00
1.00107264e+00
1.00102990e+00
1.00098658e+00
1.00094273e+00
1.00089842e+00
1.00085371e+00
1.00080865e+00
1.00076330e+00
1.00071768e+00
1.00067185e+00
1.00062583e+00
1.00057965e+00
1.00053332e+00
1.00048687e+00
1.00044031e+00
1.00039364e+00
1.00034688e+00
1.00030005e+00
1.00025315e+00
1.00020622e+00
1.00015926e+00
1.00011233e+00
1.00006546e+00
1.00001870e+00
9.99972133e-01
9.99925829e-01
9.99879885e-01
9.99834410e-01
9.99789526e-01
9.99745367e-01
9.99702081e-01
9.99659824e-01
9.99618759e-01
9.99579055e-01
9.99540880e-01
9.99504401e-01
9.99469780e-01
9.99437166e-01
9.99406696e-01
9.99378489e-01
9.99352645e-01
9.99329238e-01
9.99308318e-01
9.99289907e-01
9.99273997e-01
9.99260553e-01
9.99249511e-01
9.99240782e-01
9.99234249e-01
9.99229775e-01
9.99227202e-01
9.99226359e-01
9.99227060e-01
9.99229114e-01
9.99232324e-01
9.99236495e-01
9.99241437e-01
9.99246965e-01
9.99252908e-01
9.99259105e-01
9.99265413e-01
9.99271704e-01
9.99277871e-01
9.99283821e-01
9.99289482e-01
9.99294796e-01
9.99299724e-01
9.99304240e-01
9.99308330e-01
9.99311993e-01
9.99315235e-01
9.99318073e-01
9.99320525e-01
9.99322616e-01
9.99324369e-01
9.99325842e-01
9.99327048e-01
9.99327999e-01
9.99328719e-01
9.99329475e-01
9.99330128e-01
9.99330587e-01
9.99331128e-01
9.99334434e-01
9.99335593e-01
1.00194174e+00
1.00193944e+00
1.00193627e+00
1.00193524e+00
1.00193320e+00
1.00192904e+00
1.00192441e+00
1.00191948e+00
1.00191360e+00
1.00190682e+00
1.00189938e+00
1.00189117e+00
1.00188205e+00
1.00187205e+00
1.00186117e+00
1.00184935e+00
1.00183654e+00
1.00182274e+00
1.00180791e+00
1.00179203e+00
1.00177507e+00
1.00175701e+00
1.00173783e+00
1.00171751e+00
1.00169603e+00
1.00167337e+00
1.00164952e+00
1.00162447e+00
1.00159821e+00
1.00157073e+00
1.00154203e+00
1.00151211e+00
1.00148099e+00
1.00144868e+00
1.00141521e+00
1.00138059e+00
1.00134487e+00
1.00130810e+00
1.00127031e+00
1.00123157e+00
1.00119193e+00
1.00115145e+00
1.00111021e+00
1.00106827e+00
1.00102570e+00
1.00098256e+00
1.00093891e+00
1.00089483e+00
1.00085036e+00
1.00080556e+00
1.00076048e+00
1.00071515e+00
1.00066962e+00
1.00062390e+00
1.00057804e+00
1.00053204e+00
1.00048592e+00
1.00043969e+00
1.00039337e+00
1.00034696e+00
1.00030048e+00
1.00025395e+00
1.00020737e+00
1.00016078e+00
1.00011422e+00
1.00006771e+00
1.00002132e+00
9.99975121e-01
9.99929180e-01
9.99883595e-01
9.99838472e-01
9.99793932e-01
9.99750107e-01
9.99707142e-01
9.99665191e-01
9.99624414e-01
9.99584977e-01
9.99547047e-01
9.99510788e-01
9.99476358e-01
9.99443907e-01
9.99413568e-01
9.99385460e-01
9.99359681e-01
9.99336305e-01
9.99315382e-01
9.99296934e-01
9.99280955e-01
9.99267410e-01
9.99256239e-01
9.99247353e-01
9.99240638e-01
9.99235960e-01
9.99233164e-01
9.99232081e-01
9.99232529e-01
9.99234320e-01
9.99237261e-01
9.99241158e-01
9.99245824e-01
9.99251078e-01
9.99256750e-01
9.99262681e-01
9.99268730e-01
9.99274770e-01
9.99280695e-01
9.99286414e-01
9.99291854e-01
9.99296959e-01
9.99301690e-01
9.99306022e-01
9.99309940e-01
9.99313441e-01
9.99316540e-01
9.99319252e-01
9.99321576e-01
9.99323556e-01
9.99325262e-01
9.99326665e-01
9.99327711e-01
9.99328662e-01
9.99329630e-01
9.99330075e-01
9.99330110e-01
9.99331611e-01
9.99333474e-01
9.99331886e-01
9.99330791e-01
1.00193593e+00
1.00193423e+00
1.00193201e+00
1.00193000e+00
1.00192702e+00
1.00192337e+00
1.00191906e+00
1.00191391e+00
1.00190800e+00
1.00190139e+00
1.00189400e+00
1.00188575e+00
1.00187667e+00
1.00186670e+00
1.00185581e+00
1.00184397e+00
1.00183114e+00
1.00181731e+00
1.00180243e+00
1.00178649e+00
1.00176947e+00
1.00175133e+00
1.00173207e+00
1.00171166e+00
1.00169009e+00
1.00166733e+00
1.00164339e+00
1.00161825e+00
1.00159190e+00
1.00156434e+00
1.00153557e+00
1.00150560e+00
1.00147444e+00
1.00144211e+00
1.00140862e+00
1.00137403e+00
1.00133835e+00
1.00130163e+00
1.00126393e+00
1.00122530e+00
1.00118580e+00
1.00114548e+00
1.00110443e+00
1.00106269e+00
1.00102035e+00
1.00097747e+00
1.00093410e+00
1.00089031e+00
1.00084616e+00
1.00080169e+00
1.00075695e+00
1.00071199e+00
1.00066683e+00
1.00062151e+00
1.00057604e+00
1.00053045e+00
1.00048475e+00
1.00043896e+00
1.00039307e+00
1.00034710e+00
1.00030107e+00
1.00025498e+00
1.00020886e+00
1.00016273e+00
1.00011662e+00
1.00007057e+00
1.00002464e+00
9.99978887e-01
9.99933397e-01
9.99888257e-01
9.99843573e-01
9.99799463e-01
9.99756057e-01
9.99713497e-01
9.99671934e-01
9.99631528e-01
9.99592440e-01
9.99554835e-01
9.99518874e-01
9.99484713e-01
9.99452498e-01
9.99422362e-01
9.99394422e-01
9.99368774e-01
9.99345491e-01
9.99324622e-01
9.99306190e-01
9.99290188e-01
9.99276584e-01
9.99265317e-01
9.99256301e-01
9.99249424e-01
9.99244555e-01
9.99241542e-01
9.99240218e-01
9.99240406e-01
9.99241920e-01
9.99244569e-01
9.99248166e-01
9.99252524e-01
9.99257466e-01
9.99262824e-01
9.99268443e-01
9.99274184e-01
9.99279923e-01
9.99285553e-01
9.99290986e-01
9.99296150e-01
9.99300991e-01
9.99305469e-01
9.99309560e-01
9.99313253e-01
9.99316545e-01
9.99319443e-01
9.99321966e-01
9.99324138e-01
9.99325974e-01
9.99327503e-01
9.99328789e-01
9.99329838e-01
9.99330617e-01
9.99331271e-01
9.99331937e-01
9.99332382e-01
9.99332665e-01
9.99333491e-01
9.99333347e-01
9.99332907e-01
1.00192842e+00
1.00192700e+00
1.00192561e+00
1.00192263e+00
1.00191929e+00
1.00191604e+00
1.00191169e+00
1.00190633e+00
1.00190048e+00
1.00189397e+00
1.00188653e+00
1.00187826e+00
1.00186919e+00
1.00185923e+00
1.00184830e+00
1.00183643e+00
1.00182358e+00
1.00180970e+00
1.00179478e+00
1.00177878e+00
1.00176170e+00
1.00174350e+00
1.00172417e+00
1.00170369e+00
1.00168204e+00
1.00165922e+00
1.00163522e+00
1.00161001e+00
1.00158362e+00
1.00155602e+00
1.00152722e+00
1.00149724e+00
1.00146609e+00
1.00143378e+00
1.00140034e+00
1.00136581e+00
1.00133023e+00
1.00129364e+00
1.00125608e+00
1.00121762e+00
1.00117832e+00
1.00113823e+00
1.00109742e+00
1.00105597e+00
1.00101392e+00
1.00097136e+00
1.00092834e+00
1.00088492e+00
1.00084116e+00
1.00079710e+00
1.00075278e+00
1.00070826e+00
1.00066356e+00
1.00061870e+00
1.00057372e+00
1.00052862e+00
1.00048342e+00
1.00043813e+00
1.00039276e+00
1.00034731e+00
1.00030181e+00
1.00025625e+00
1.00021067e+00
1.00016507e+00
1.00011950e+00
1.00007400e+00
1.00002861e+00
9.99983398e-01
9.99938445e-01
9.99893838e-01
9.99849680e-01
9.99806087e-01
9.99763188e-01
9.99721120e-01
9.99680034e-01
9.99640085e-01
9.99601432e-01
9.99564235e-01
9.99528654e-01
9.99494842e-01
9.99462940e-01
9.99433081e-01
9.99405377e-01
9.99379924e-01
9.99356792e-01
9.99336031e-01
9.99317661e-01
9.99301678e-01
9.99288048e-01
9.99276712e-01
9.99267586e-01
9.99260561e-01
9.99255507e-01
9.99252275e-01
9.99250703e-01
9.99250616e-01
9.99251832e-01
9.99254165e-01
9.99257430e-01
9.99261445e-01
9.99266037e-01
9.99271039e-01
9.99276302e-01
9.99281688e-01
9.99287076e-01
9.99292361e-01
9.99297458e-01
9.99302295e-01
9.99306821e-01
9.99310997e-01
9.99314798e-01
9.99318215e-01
9.99321249e-01
9.99323902e-01
9.99326188e-01
9.99328151e-01
9.99329807e-01
9.99331137e-01
9.99332217e-01
9.99333184e-01
9.99333891e-01
9.99334208e-01
9.99334661e-01
9.99335486e-01
9.99335435e-01
9.99334986e-01
9.99335641e-01
9.99335671e-01
1.00192014e+00
1.00191817e+00
1.00191604e+00
1.00191346e+00
1.00191047e+00
1.00190661e+00
1.00190204e+00
1.00189696e+00
1.00189112e+00
1.00188443e+00
1.00187699e+00
1.00186877e+00
1.00185966e+00
1.00184963e+00
1.00183870e+00
1.00182680e+00
1.00181390e+00
1.00179998e+00
1.00178501e+00
1.00176897e+00
1.00175184e+00
1.00173358e+00
1.00171420e+00
1.00169367e+00
1.00167198e+00
1.00164912e+00
1.00162508e+00
1.00159985e+00
1.00157343e+00
1.00154583e+00
1.00151705e+00
1.00148710e+00
1.00145600e+00
1.00142376e+00
1.00139043e+00
1.00135602e+00
1.00132058e+00
1.00128416e+00
1.00124681e+00
1.00120858e+00
1.00116953e+00
1.00112973e+00
1.00108923e+00
1.00104812e+00
1.00100644e+00
1.00096427e+00
1.00092166e+00
1.00087868e+00
1.00083538e+00
1.00079180e+00
1.00074798e+00
1.00070397e+00
1.00065980e+00
1.00061549e+00
1.00057106e+00
1.00052653e+00
1.00048191e+00
1.00043721e+00
1.00039244e+00
1.00034760e+00
1.00030270e+00
1.00025776e+00
1.00021280e+00
1.00016783e+00
1.00012288e+00
1.00007800e+00
1.00003324e+00
9.99988657e-01
9.99944327e-01
9.99900338e-01
9.99856791e-01
9.99813800e-01
9.99771491e-01
9.99730000e-01
9.99689473e-01
9.99650062e-01
9.99611923e-01
9.99575214e-01
9.99540089e-01
9.99506697e-01
9.99475179e-01
9.99445663e-01
9.99418258e-01
9.99393058e-01
9.99370131e-01
9.99349526e-01
9.99331262e-01
9.99315334e-01
9.99301709e-01
9.99290330e-01
9.99281112e-01
9.99273951e-01
9.99268717e-01
9.99265267e-01
9.99263440e-01
9.99263066e-01
9.99263966e-01
9.99265960e-01
9.99268866e-01
9.99272507e-01
9.99276712e-01
9.99281321e-01
9.99286186e-01
9.99291173e-01
9.99296165e-01
9.99301059e-01
9.99305772e-01
9.99310235e-01
9.99314397e-01
9.99318222e-01
9.99321687e-01
9.99324780e-01
9.99327502e-01
9.99329870e-01
9.99331890e-01
9.99333575e-01
9.99334979e-01
9.99336140e-01
9.99337019e-01
9.99337656e-01
9.99338222e-01
9.99338666e-01
9.99338757e-01
9.99338851e-01
9.99339141e-01
9.99339085e-01
9.99338895e-01
9.99338274e-01
1.00190954e+00
1.00190738e+00
1.00190486e+00
1.00190245e+00
1.00189934e+00
1.00189524e+00
1.00189073e+00
1.00188564e+00
1.00187966e+00
1.00187293e+00
1.00186551e+00
1.00185724e+00
1.00184807e+00
1.00183802e+00
1.00182706e+00
1.00181512e+00
1.00180218e+00
1.00178822e+00
1.00177321e+00
1.00175713e+00
1.00173996e+00
1.00172167e+00
1.00170225e+00
1.00168170e+00
1.00165998e+00
1.00163711e+00
1.00161306e+00
1.00158784e+00
1.00156145e+00
1.00153388e+00
1.00150516e+00
1.00147528e+00
1.00144427e+00
1.00141216e+00
1.00137896e+00
1.00134472e+00
1.00130948e+00
1.00127329e+00
1.00123619e+00
1.00119825e+00
1.00115951e+00
1.00112005e+00
1.00107993e+00
1.00103922e+00
1.00099797e+00
1.00095625e+00
1.00091412e+00
1.00087165e+00
1.00082887e+00
1.00078583e+00
1.00074259e+00
1.00069916e+00
1.00065559e+00
1.00061190e+00
1.00056810e+00
1.00052422e+00
1.00048025e+00
1.00043622e+00
1.00039212e+00
1.00034796e+00
1.00030376e+00
1.00025951e+00
1.00021525e+00
1.00017098e+00
1.00012674e+00
1.00008257e+00
1.00003851e+00
9.99994634e-01
9.99951007e-01
9.99907717e-01
9.99864862e-01
9.99822553e-01
9.99780915e-01
9.99740079e-01
9.99700189e-01
9.99661393e-01
9.99623844e-01
9.99587694e-01
9.99553096e-01
9.99520195e-01
9.99489126e-01
9.99460014e-01
9.99432968e-01
9.99408075e-01
9.99385404e-01
9.99364999e-01
9.99346881e-01
9.99331043e-01
9.99317452e-01
9.99306053e-01
9.99296761e-01
9.99289475e-01
9.99284068e-01
9.99280398e-01
9.99278311e-01
9.99277639e-01
9.99278208e-01
9.99279843e-01
9.99282364e-01
9.99285602e-01
9.99289388e-01
9.99293568e-01
9.99297997e-01
9.99302546e-01
9.99307100e-01
9.99311560e-01
9.99315845e-01
9.99319889e-01
9.99323643e-01
9.99327071e-01
9.99330155e-01
9.99332883e-01
9.99335253e-01
9.99337281e-01
9.99338992e-01
9.99340389e-01
9.99341490e-01
9.99342374e-01
9.99343064e-01
9.99343481e-01
9.99343715e-01
9.99343989e-01
9.99344074e-01
9.99343800e-01
9.99343807e-01
9.99343883e-01
9.99343233e-01
9.99342393e-01
1.00189656e+00
1.00189452e+00
1.00189221e+00
1.00188944e+00
1.00188604e+00
1.00188216e+00
1.00187762e+00
1.00187225e+00
1.00186624e+00
1.00185958e+00
1.00185206e+00
1.00184369e+00
1.00183451e+00
1.00182444e+00
1.00181341e+00
1.00180143e+00
1.00178846e+00
1.00177447e+00
1.00175943e+00
1.00174332e+00
1.00172613e+00
1.00170783e+00
1.00168840e+00
1.00166785e+00
1.00164614e+00
1.00162329e+00
1.00159927e+00
1.00157409e+00
1.00154776e+00
1.00152027e+00
1.00149164e+00
1.00146189e+00
1.00143102e+00
1.00139907e+00
1.00136607e+00
1.00133205e+00
1.00129706e+00
1.00126114e+00
1.00122435e+00
1.00118674e+00
1.00114838e+00
1.00110932e+00
1.00106963e+00
1.00102937e+00
1.00098861e+00
1.00094740e+00
1.00090582e+00
1.00086390e+00
1.00082171e+00
1.00077929e+00
1.00073667e+00
1.00069390e+00
1.00065100e+00
1.00060799e+00
1.00056489e+00
1.00052172e+00
1.00047848e+00
1.00043517e+00
1.00039182e+00
1.00034841e+00
1.00030497e+00
1.00026149e+00
1.00021799e+00
1.00017450e+00
1.00013104e+00
1.00008765e+00
1.00004437e+00
1.00000128e+00
9.99958425e-01
9.99915906e-01
9.99873816e-01
9.99832263e-01
9.99791368e-01
9.99751260e-01
9.99712079e-01
9.99673968e-01
9.99637078e-01
9.99601557e-01
9.99567552e-01
9.99535204e-01
9.99504646e-01
9.99475998e-01
9.99449365e-01
9.99424831e-01
9.99402463e-01
9.99382303e-01
9.99364369e-01
9.99348655e-01
9.99335128e-01
9.99323731e-01
9.99314384e-01
9.99306985e-01
9.99301412e-01
9.99297526e-01
9.99295176e-01
9.99294198e-01
9.99294423e-01
9.99295681e-01
9.99297798e-01
9.99300607e-01
9.99303948e-01
9.99307668e-01
9.99311629e-01
9.99315704e-01
9.99319783e-01
9.99323772e-01
9.99327590e-01
9.99331176e-01
9.99334483e-01
9.99337476e-01
9.99340136e-01
9.99342459e-01
9.99344446e-01
9.99346099e-01
9.99347443e-01
9.99348519e-01
9.99349330e-01
9.99349877e-01
9.99350250e-01
9.99350509e-01
9.99350539e-01
9.99350381e-01
9.99350286e-01
9.99350118e-01
9.99349734e-01
9.99349395e-01
9.99348925e-01
9.99348142e-01
1.00188188e+00
1.00187975e+00
1.00187743e+00
1.00187451e+00
1.00187108e+00
1.00186715e+00
1.00186244e+00
1.00185703e+00
1.00185103e+00
1.00184425e+00
1.00183664e+00
1.00182826e+00
1.00181904e+00
1.00180890e+00
1.00179784e+00
1.00178583e+00
1.00177283e+00
1.00175881e+00
1.00174376e+00
1.00172765e+00
1.00171045e+00
1.00169216e+00
1.00167276e+00
1.00165223e+00
1.00163056e+00
1.00160776e+00
1.00158382e+00
1.00155873e+00
1.00153249e+00
1.00150513e+00
1.00147664e+00
1.00144705e+00
1.00141637e+00
1.00138464e+00
1.00135188e+00
1.00131813e+00
1.00128344e+00
1.00124785e+00
1.00121142e+00
1.00117421e+00
1.00113626e+00
1.00109766e+00
1.00105845e+00
1.00101870e+00
1.00097848e+00
1.00093784e+00
1.00089685e+00
1.00085556e+00
1.00081401e+00
1.00077225e+00
1.00073033e+00
1.00068826e+00
1.00064608e+00
1.00060382e+00
1.00056147e+00
1.00051907e+00
1.00047661e+00
1.00043411e+00
1.00039155e+00
1.00034896e+00
1.00030634e+00
1.00026369e+00
1.00022102e+00
1.00017837e+00
1.00013575e+00
1.00009320e+00
1.00005077e+00
1.00000852e+00
9.99966508e-01
9.99924826e-01
9.99883567e-01
9.99842835e-01
9.99802748e-01
9.99763434e-01
9.99725026e-01
9.99687665e-01
9.99651498e-01
9.99616667e-01
9.99583316e-01
9.99551581e-01
9.99521591e-01
9.99493461e-01
9.99467291e-01
9.99443165e-01
9.99421145e-01
9.99401270e-01
9.99383557e-01
9.99367999e-01
9.99354563e-01
9.99343192e-01
9.99333808e-01
9.99326310e-01
9.99320579e-01
9.99316481e-01
9.99313866e-01
9.99312578e-01
9.99312451e-01
9.99313319e-01
9.99315015e-01
9.99317377e-01
9.99320249e-01
9.99323484e-01
9.99326949e-01
9.99330522e-01
9.99334097e-01
9.99337581e-01
9.99340901e-01
9.99343996e-01
9.99346821e-01
9.99349347e-01
9.99351553e-01
9.99353433e-01
9.99354997e-01
9.99356255e-01
9.99357213e-01
9.99357905e-01
9.99358381e-01
9.99358638e-01
9.99358677e-01
9.99358603e-01
9.99358444e-01
9.99358085e-01
9.99357647e-01
9.99357309e-01
9.99356827e-01
9.99356244e-01
9.99355688e-01
9.99354824e-01
1.00186540e+00
1.00186313e+00
1.00186062e+00
1.00185776e+00
1.00185434e+00
1.00185018e+00
1.00184539e+00
1.00184003e+00
1.00183391e+00
1.00182701e+00
1.00181940e+00
1.00181098e+00
1.00180168e+00
1.00179150e+00
1.00178042e+00
1.00176839e+00
1.00175536e+00
1.00174134e+00
1.00172630e+00
1.00171020e+00
1.00169303e+00
1.00167478e+00
1.00165542e+00
1.00163496e+00
1.00161337e+00
1.00159066e+00
1.00156683e+00
1.00154187e+00
1.00151578e+00
1.00148859e+00
1.00146029e+00
1.00143091e+00
1.00140048e+00
1.00136901e+00
1.00133654e+00
1.00130312e+00
1.00126878e+00
1.00123357e+00
1.00119755e+00
1.00116078e+00
1.00112331e+00
1.00108520e+00
1.00104653e+00
1.00100735e+00
1.00096772e+00
1.00092770e+00
1.00088735e+00
1.00084673e+00
1.00080587e+00
1.00076483e+00
1.00072364e+00
1.00068233e+00
1.00064093e+00
1.00059945e+00
1.00055791e+00
1.00051633e+00
1.00047471e+00
1.00043304e+00
1.00039135e+00
1.00034962e+00
1.00030787e+00
1.00026609e+00
1.00022432e+00
1.00018255e+00
1.00014083e+00
1.00009918e+00
1.00005765e+00
1.00001629e+00
9.99975180e-01
9.99934392e-01
9.99894020e-01
9.99854166e-01
9.99814945e-01
9.99776481e-01
9.99738904e-01
9.99702350e-01
9.99666961e-01
9.99632876e-01
9.99600233e-01
9.99569164e-01
9.99539793e-01
9.99512230e-01
9.99486572e-01
9.99462897e-01
9.99441265e-01
9.99421714e-01
9.99404257e-01
9.99388885e-01
9.99375567e-01
9.99364245e-01
9.99354842e-01
9.99347260e-01
9.99341383e-01
9.99337078e-01
9.99334202e-01
9.99332602e-01
9.99332117e-01
9.99332587e-01
9.99333851e-01
9.99335752e-01
9.99338138e-01
9.99340871e-01
9.99343819e-01
9.99346868e-01
9.99349914e-01
9.99352870e-01
9.99355665e-01
9.99358243e-01
9.99360560e-01
9.99362589e-01
9.99364316e-01
9.99365732e-01
9.99366842e-01
9.99367668e-01
9.99368229e-01
9.99368531e-01
9.99368611e-01
9.99368534e-01
9.99368293e-01
9.99367873e-01
9.99367385e-01
9.99366873e-01
9.99366219e-01
9.99365531e-01
9.99364941e-01
9.99364337e-01
9.99363581e-01
9.99362568e-01
1.00184689e+00
1.00184463e+00
1.00184208e+00
1.00183917e+00
1.00183564e+00
1.00183143e+00
1.00182663e+00
1.00182115e+00
1.00181494e+00
1.00180803e+00
1.00180037e+00
1.00179187e+00
1.00178253e+00
1.00177234e+00
1.00176123e+00
1.00174918e+00
1.00173617e+00
1.00172217e+00
1.00170715e+00
1.00169109e+00
1.00167398e+00
1.00165580e+00
1.00163653e+00
1.00161617e+00
1.00159470e+00
1.00157213e+00
1.00154845e+00
1.00152367e+00
1.00149778e+00
1.00147080e+00
1.00144275e+00
1.00141364e+00
1.00138349e+00
1.00135234e+00
1.00132022e+00
1.00128716e+00
1.00125323e+00
1.00121845e+00
1.00118290e+00
1.00114661e+00
1.00110966e+00
1.00107211e+00
1.00103401e+00
1.00099544e+00
1.00095645e+00
1.00091709e+00
1.00087743e+00
1.00083752e+00
1.00079740e+00
1.00075712e+00
1.00071670e+00
1.00067619e+00
1.00063560e+00
1.00059496e+00
1.00055427e+00
1.00051354e+00
1.00047279e+00
1.00043201e+00
1.00039121e+00
1.00035039e+00
1.00030955e+00
1.00026870e+00
1.00022785e+00
1.00018702e+00
1.00014623e+00
1.00010553e+00
1.00006494e+00
1.00002453e+00
9.99984363e-01
9.99944516e-01
9.99905079e-01
9.99866152e-01
9.99827846e-01
9.99790280e-01
9.99753583e-01
9.99717886e-01
9.99683324e-01
9.99650033e-01
9.99618146e-01
9.99587789e-01
9.99559082e-01
9.99532129e-01
9.99507024e-01
9.99483841e-01
9.99462635e-01
9.99443441e-01
9.99426271e-01
9.99411115e-01
9.99397940e-01
9.99386689e-01
9.99377286e-01
9.99369634e-01
9.99363622e-01
9.99359119e-01
9.99355987e-01
9.99354076e-01
9.99353233e-01
9.99353302e-01
9.99354127e-01
9.99355557e-01
9.99357447e-01
9.99359663e-01
9.99362081e-01
9.99364589e-01
9.99367089e-01
9.99369499e-01
9.99371751e-01
9.99373791e-01
9.99375581e-01
9.99377094e-01
9.99378316e-01
9.99379249e-01
9.99379894e-01
9.99380263e-01
9.99380388e-01
9.99380297e-01
9.99379995e-01
9.99379525e-01
9.99378950e-01
9.99378260e-01
9.99377454e-01
9.99376637e-01
9.99375808e-01
9.99374927e-01
9.99374119e-01
9.99373387e-01
9.99372553e-01
9.99371526e-01
1.00182654e+00
1.00182430e+00
1.00182178e+00
1.00181877e+00
1.00181516e+00
1.00181096e+00
1.00180608e+00
1.00180050e+00
1.00179427e+00
1.00178732e+00
1.00177958e+00
1.00177105e+00
1.00176171e+00
1.00175149e+00
1.00174038e+00
1.00172834e+00
1.00171536e+00
1.00170140e+00
1.00168643e+00
1.00167045e+00
1.00165343e+00
1.00163536e+00
1.00161622e+00
1.00159601e+00
1.00157471e+00
1.00155232e+00
1.00152884e+00
1.00150428e+00
1.00147864e+00
1.00145193e+00
1.00142417e+00
1.00139538e+00
1.00136557e+00
1.00133479e+00
1.00130306e+00
1.00127043e+00
1.00123695e+00
1.00120265e+00
1.00116761e+00
1.00113186e+00
1.00109548e+00
1.00105852e+00
1.00102105e+00
1.00098312e+00
1.00094480e+00
1.00090615e+00
1.00086722e+00
1.00082805e+00
1.00078871e+00
1.00074921e+00
1.00070961e+00
1.00066993e+00
1.00063018e+00
1.00059040e+00
1.00055059e+00
1.00051076e+00
1.00047091e+00
1.00043105e+00
1.00039117e+00
1.00035128e+00
1.00031139e+00
1.00027149e+00
1.00023160e+00
1.00019174e+00
1.00015193e+00
1.00011220e+00
1.00007259e+00
1.00003316e+00
9.99993975e-01
9.99955107e-01
9.99916644e-01
9.99878683e-01
9.99841331e-01
9.99804706e-01
9.99768929e-01
9.99734129e-01
9.99700436e-01
9.99667980e-01
9.99636889e-01
9.99607285e-01
9.99579280e-01
9.99552977e-01
9.99528461e-01
9.99505804e-01
9.99485056e-01
9.99466251e-01
9.99449397e-01
9.99434483e-01
9.99421473e-01
9.99410314e-01
9.99400930e-01
9.99393225e-01
9.99387090e-01
9.99382399e-01
9.99379018e-01
9.99376803e-01
9.99375604e-01
9.99375271e-01
9.99375656e-01
9.99376612e-01
9.99378001e-01
9.99379694e-01
9.99381573e-01
9.99383531e-01
9.99385475e-01
9.99387327e-01
9.99389024e-01
9.99390513e-01
9.99391762e-01
9.99392747e-01
9.99393453e-01
9.99393882e-01
9.99394046e-01
9.99393957e-01
9.99393630e-01
9.99393109e-01
9.99392425e-01
9.99391583e-01
9.99390627e-01
9.99389626e-01
9.99388561e-01
9.99387438e-01
9.99386357e-01
9.99385332e-01
9.99384339e-01
9.99383438e-01
9.99382577e-01
9.99381550e-01
1.00180450e+00
1.00180224e+00
1.00179969e+00
1.00179666e+00
1.00179303e+00
1.00178876e+00
1.00178382e+00
1.00177822e+00
1.00177195e+00
1.00176494e+00
1.00175718e+00
1.00174865e+00
1.00173929e+00
1.00172907e+00
1.00171798e+00
1.00170599e+00
1.00169305e+00
1.00167916e+00
1.00166429e+00
1.00164842e+00
1.00163153e+00
1.00161361e+00
1.00159465e+00
1.00157462e+00
1.00155354e+00
1.00153138e+00
1.00150816e+00
1.00148388e+00
1.00145854e+00
1.00143215e+00
1.00140473e+00
1.00137630e+00
1.00134689e+00
1.00131653e+00
1.00128525e+00
1.00125309e+00
1.00122011e+00
1.00118634e+00
1.00115185e+00
1.00111668e+00
1.00108091e+00
1.00104458e+00
1.00100777e+00
1.00097053e+00
1.00093292e+00
1.00089500e+00
1.00085683e+00
1.00081844e+00
1.00077989e+00
1.00074121e+00
1.00070245e+00
1.00066362e+00
1.00062474e+00
1.00058585e+00
1.00054693e+00
1.00050801e+00
1.00046909e+00
1.00043016e+00
1.00039123e+00
1.00035231e+00
1.00031338e+00
1.00027445e+00
1.00023555e+00
1.00019668e+00
1.00015786e+00
1.00011913e+00
1.00008053e+00
1.00004211e+00
1.00000393e+00
9.99966074e-01
9.99928614e-01
9.99891650e-01
9.99855285e-01
9.99819632e-01
9.99784809e-01
9.99750939e-01
9.99718148e-01
9.99686561e-01
9.99656300e-01
9.99627481e-01
9.99600211e-01
9.99574588e-01
9.99550692e-01
9.99528591e-01
9.99508331e-01
9.99489941e-01
9.99473428e-01
9.99458778e-01
9.99445957e-01
9.99434909e-01
9.99425560e-01
9.99417817e-01
9.99411573e-01
9.99406707e-01
9.99403086e-01
9.99400573e-01
9.99399024e-01
9.99398295e-01
9.99398241e-01
9.99398725e-01
9.99399612e-01
9.99400781e-01
9.99402118e-01
9.99403522e-01
9.99404906e-01
9.99406195e-01
9.99407330e-01
9.99408264e-01
9.99408963e-01
9.99409410e-01
9.99409594e-01
9.99409514e-01
9.99409182e-01
9.99408622e-01
9.99407850e-01
9.99406891e-01
9.99405790e-01
9.99404582e-01
9.99403276e-01
9.99401918e-01
9.99400563e-01
9.99399202e-01
9.99397865e-01
9.99396626e-01
9.99395493e-01
9.99394481e-01
9.99393545e-01
9.99392492e-01
1.00178078e+00
1.00177852e+00
1.00177596e+00
1.00177293e+00
1.00176928e+00
1.00176495e+00
1.00175999e+00
1.00175438e+00
1.00174807e+00
1.00174103e+00
1.00173328e+00
1.00172474e+00
1.00171538e+00
1.00170521e+00
1.00169417e+00
1.00168224e+00
1.00166939e+00
1.00165561e+00
1.00164087e+00
1.00162515e+00
1.00160844e+00
1.00159071e+00
1.00157196e+00
1.00155218e+00
1.00153136e+00
1.00150949e+00
1.00148657e+00
1.00146262e+00
1.00143763e+00
1.00141161e+00
1.00138459e+00
1.00135659e+00
1.00132762e+00
1.00129773e+00
1.00126694e+00
1.00123531e+00
1.00120287e+00
1.00116967e+00
1.00113577e+00
1.00110123e+00
1.00106610e+00
1.00103044e+00
1.00099432e+00
1.00095780e+00
1.00092093e+00
1.00088377e+00
1.00084637e+00
1.00080878e+00
1.00077105e+00
1.00073321e+00
1.00069530e+00
1.00065734e+00
1.00061935e+00
1.00058135e+00
1.00054335e+00
1.00050535e+00
1.00046736e+00
1.00042938e+00
1.00039141e+00
1.00035345e+00
1.00031550e+00
1.00027757e+00
1.00023966e+00
1.00020179e+00
1.00016399e+00
1.00012627e+00
1.00008870e+00
1.00005130e+00
1.00001416e+00
9.99977324e-01
9.99940890e-01
9.99904945e-01
9.99869590e-01
9.99834932e-01
9.99801088e-01
9.99768174e-01
9.99736310e-01
9.99705618e-01
9.99676213e-01
9.99648205e-01
9.99621697e-01
9.99596780e-01
9.99573530e-01
9.99552008e-01
9.99532259e-01
9.99514307e-01
9.99498157e-01
9.99483793e-01
9.99471179e-01
9.99460261e-01
9.99450964e-01
9.99443198e-01
9.99436859e-01
9.99431829e-01
9.99427980e-01
9.99425180e-01
9.99423290e-01
9.99422171e-01
9.99421687e-01
9.99421703e-01
9.99422095e-01
9.99422743e-01
9.99423542e-01
9.99424395e-01
9.99425219e-01
9.99425946e-01
9.99426519e-01
9.99426897e-01
9.99427047e-01
9.99426953e-01
9.99426610e-01
9.99426021e-01
9.99425194e-01
9.99424153e-01
9.99422927e-01
9.99421541e-01
9.99420021e-01
9.99418420e-01
9.99416770e-01
9.99415083e-01
9.99413409e-01
9.99411795e-01
9.99410239e-01
9.99408784e-01
9.99407497e-01
9.99406393e-01
9.99405392e-01
9.99404325e-01
1.00175547e+00
1.00175326e+00
1.00175072e+00
1.00174767e+00
1.00174399e+00
1.00173967e+00
1.00173470e+00
1.00172907e+00
1.00172275e+00
1.00171573e+00
1.00170798e+00
1.00169946e+00
1.00169016e+00
1.00168004e+00
1.00166908e+00
1.00165725e+00
1.00164453e+00
1.00163090e+00
1.00161633e+00
1.00160080e+00
1.00158431e+00
1.00156682e+00
1.00154834e+00
1.00152885e+00
1.00150834e+00
1.00148681e+00
1.00146425e+00
1.00144068e+00
1.00141609e+00
1.00139050e+00
1.00136393e+00
1.00133640e+00
1.00130793e+00
1.00127855e+00
1.00124831e+00
1.00121724e+00
1.00118538e+00
1.00115279e+00
1.00111953e+00
1.00108564e+00
1.00105119e+00
1.00101623e+00
1.00098083e+00
1.00094505e+00
1.00090894e+00
1.00087256e+00
1.00083595e+00
1.00079918e+00
1.00076228e+00
1.00072529e+00
1.00068824e+00
1.00065115e+00
1.00061405e+00
1.00057695e+00
1.00053986e+00
1.00050280e+00
1.00046575e+00
1.00042872e+00
1.00039171e+00
1.00035472e+00
1.00031775e+00
1.00028081e+00
1.00024390e+00
1.00020704e+00
1.00017026e+00
1.00013357e+00
1.00009703e+00
1.00006067e+00
1.00002456e+00
9.99988768e-01
9.99953372e-01
9.99918460e-01
9.99884130e-01
9.99850485e-01
9.99817635e-01
9.99785695e-01
9.99754778e-01
9.99724999e-01
9.99696469e-01
9.99669292e-01
9.99643565e-01
9.99619373e-01
9.99596788e-01
9.99575865e-01
9.99556646e-01
9.99539150e-01
9.99523380e-01
9.99509319e-01
9.99496929e-01
9.99486156e-01
9.99476926e-01
9.99469152e-01
9.99462732e-01
9.99457551e-01
9.99453487e-01
9.99450411e-01
9.99448191e-01
9.99446694e-01
9.99445788e-01
9.99445347e-01
9.99445251e-01
9.99445387e-01
9.99445655e-01
9.99445963e-01
9.99446235e-01
9.99446406e-01
9.99446423e-01
9.99446247e-01
9.99445852e-01
9.99445223e-01
9.99444354e-01
9.99443255e-01
9.99441938e-01
9.99440421e-01
9.99438735e-01
9.99436917e-01
9.99434994e-01
9.99433000e-01
9.99430986e-01
9.99428984e-01
9.99427013e-01
9.99425121e-01
9.99423346e-01
9.99421711e-01
9.99420266e-01
9.99419051e-01
9.99418010e-01
9.99416962e-01
1.00172872e+00
1.00172656e+00
1.00172405e+00
1.00172102e+00
1.00171734e+00
1.00171303e+00
1.00170806e+00
1.00170243e+00
1.00169614e+00
1.00168916e+00
1.00168144e+00
1.00167298e+00
1.00166375e+00
1.00165372e+00
1.00164287e+00
1.00163118e+00
1.00161863e+00
1.00160518e+00
1.00159083e+00
1.00157554e+00
1.00155931e+00
1.00154212e+00
1.00152396e+00
1.00150481e+00
1.00148466e+00
1.00146352e+00
1.00144137e+00
1.00141823e+00
1.00139410e+00
1.00136899e+00
1.00134292e+00
1.00131591e+00
1.00128798e+00
1.00125917e+00
1.00122951e+00
1.00119904e+00
1.00116781e+00
1.00113587e+00
1.00110327e+00
1.00107006e+00
1.00103632e+00
1.00100208e+00
1.00096742e+00
1.00093240e+00
1.00089706e+00
1.00086147e+00
1.00082568e+00
1.00078973e+00
1.00075366e+00
1.00071752e+00
1.00068133e+00
1.00064511e+00
1.00060890e+00
1.00057270e+00
1.00053653e+00
1.00050038e+00
1.00046426e+00
1.00042818e+00
1.00039212e+00
1.00035610e+00
1.00032011e+00
1.00028416e+00
1.00024825e+00
1.00021239e+00
1.00017662e+00