# vtk DataFile Version 2.0
LBM Flow Field - Timestep 450
ASCII
DATASET STRUCTURED_POINTS
DIMENSIONS 128 128 1
ORIGIN 0.0 0.0 0.0
SPACING 1.0 1.0 1.0
POINT_DATA 16384
SCALARS density double 1
LOOKUP_TABLE default
1.00590377e+00
1.00590394e+00
1.00590392e+00
1.00590286e+00
1.00590161e+00
1.00590037e+00
1.00589887e+00
1.00589709e+00
1.00589507e+00
1.00589269e+00
1.00588964e+00
1.00588558e+00
1.00588000e+00
1.00587220e+00
1.00586129e+00
1.00584618e+00
1.00582553e+00
1.00579777e+00
1.00576107e+00
1.00571341e+00
1.00565262e+00
1.00557644e+00
1.00548270e+00
1.00536942e+00
1.00523496e+00
1.00507827e+00
1.00489896e+00
1.00469750e+00
1.00447525e+00
1.00423454e+00
1.00397858e+00
1.00371139e+00
1.00343754e+00
1.00316197e+00
1.00288971e+00
1.00262554e+00
1.00237376e+00
1.00213793e+00
1.00192070e+00
1.00172375e+00
1.00154770e+00
1.00139227e+00
1.00125635e+00
1.00113823e+00
1.00103581e+00
1.00094676e+00
1.00086879e+00
1.00079974e+00
1.00073772e+00
1.00068113e+00
1.00062867e+00
1.00057936e+00
1.00053243e+00
1.00048731e+00
1.00044359e+00
1.00040092e+00
1.00035905e+00
1.00031773e+00
1.00027678e+00
1.00023603e+00
1.00019532e+00
1.00015453e+00
1.00011355e+00
1.00007228e+00
1.00003064e+00
9.99988561e-01
9.99945952e-01
9.99902728e-01
9.99858782e-01
9.99813982e-01
9.99768164e-01
9.99721132e-01
9.99672650e-01
9.99622446e-01
9.99570201e-01
9.99515539e-01
9.99458008e-01
9.99397043e-01
9.99331924e-01
9.99261729e-01
9.99185279e-01
9.99101114e-01
9.99007484e-01
9.98902400e-01
9.98783729e-01
9.98649357e-01
9.98497404e-01
9.98326464e-01
9.98135861e-01
9.97925862e-01
9.97697829e-01
9.97454267e-01
9.97198758e-01
9.96935777e-01
9.96670407e-01
9.96407989e-01
9.96153747e-01
9.95912434e-01
9.95688037e-01
9.95483573e-01
9.95300988e-01
9.95141154e-01
9.95003959e-01
9.94888455e-01
9.94793055e-01
9.94715731e-01
9.94654216e-01
9.94606171e-01
9.94569324e-01
9.94541567e-01
9.94521019e-01
9.94506059e-01
9.94495325e-01
9.94487706e-01
9.94482313e-01
9.94478462e-01
9.94475621e-01
9.94473394e-01
9.94471519e-01
9.94469840e-01
9.94468236e-01
9.94466685e-01
9.94465299e-01
9.94464106e-01
9.94462909e-01
9.94461877e-01
9.94462033e-01
9.94462476e-01
1.00590423e+00
1.00590389e+00
1.00590352e+00
1.00590253e+00
1.00590132e+00
1.00590002e+00
1.00589851e+00
1.00589676e+00
1.00589469e+00
1.00589215e+00
1.00588885e+00
1.00588439e+00
1.00587824e+00
1.00586967e+00
1.00585776e+00
1.00584140e+00
1.00581923e+00
1.00578964e+00
1.00575083e+00
1.00570080e+00
1.00563743e+00
1.00555858e+00
1.00546218e+00
1.00534641e+00
1.00520983e+00
1.00505155e+00
1.00487137e+00
1.00466990e+00
1.00444861e+00
1.00420987e+00
1.00395685e+00
1.00369346e+00
1.00342411e+00
1.00315350e+00
1.00288636e+00
1.00262719e+00
1.00238002e+00
1.00214815e+00
1.00193406e+00
1.00173930e+00
1.00156450e+00
1.00140940e+00
1.00127303e+00
1.00115385e+00
1.00104993e+00
1.00095918e+00
1.00087945e+00
1.00080873e+00
1.00074521e+00
1.00068735e+00
1.00063386e+00
1.00058372e+00
1.00053614e+00
1.00049051e+00
1.00044637e+00
1.00040334e+00
1.00036113e+00
1.00031952e+00
1.00027829e+00
1.00023728e+00
1.00019633e+00
1.00015532e+00
1.00011414e+00
1.00007268e+00
1.00003085e+00
9.99988577e-01
9.99945760e-01
9.99902306e-01
9.99858100e-01
9.99813008e-01
9.99766867e-01
9.99719480e-01
9.99670615e-01
9.99619995e-01
9.99567290e-01
9.99512107e-01
9.99453962e-01
9.99392255e-01
9.99326229e-01
9.99254935e-01
9.99177192e-01
9.99091571e-01
9.98996405e-01
9.98889837e-01
9.98769913e-01
9.98634732e-01
9.98482629e-01
9.98312391e-01
9.98123473e-01
9.97916184e-01
9.97691822e-01
9.97452717e-01
9.97202178e-01
9.96944346e-01
9.96683943e-01
9.96425970e-01
9.96175367e-01
9.95936692e-01
9.95713836e-01
9.95509825e-01
9.95326699e-01
9.95165490e-01
9.95026286e-01
9.94908352e-01
9.94810304e-01
9.94730293e-01
9.94666192e-01
9.94615766e-01
9.94576805e-01
9.94547231e-01
9.94525168e-01
9.94508976e-01
9.94497265e-01
9.94488891e-01
9.94482932e-01
9.94478666e-01
9.94475536e-01
9.94473138e-01
9.94471174e-01
9.94469471e-01
9.94467900e-01
9.94466433e-01
9.94465064e-01
9.94463837e-01
9.94462733e-01
9.94461767e-01
9.94461581e-01
9.94461489e-01
1.00590478e+00
1.00590393e+00
1.00590280e+00
1.00590187e+00
1.00590076e+00
1.00589928e+00
1.00589769e+00
1.00589595e+00
1.00589378e+00
1.00589102e+00
1.00588739e+00
1.00588247e+00
1.00587565e+00
1.00586619e+00
1.00585314e+00
1.00583534e+00
1.00581140e+00
1.00577972e+00
1.00573850e+00
1.00568576e+00
1.00561947e+00
1.00553759e+00
1.00543820e+00
1.00531965e+00
1.00518072e+00
1.00502071e+00
1.00483963e+00
1.00463824e+00
1.00441814e+00
1.00418173e+00
1.00393217e+00
1.00367322e+00
1.00340909e+00
1.00314422e+00
1.00288302e+00
1.00262968e+00
1.00238787e+00
1.00216063e+00
1.00195024e+00
1.00175810e+00
1.00158481e+00
1.00143018e+00
1.00129336e+00
1.00117301e+00
1.00106742e+00
1.00097470e+00
1.00089292e+00
1.00082024e+00
1.00075495e+00
1.00069556e+00
1.00064081e+00
1.00058967e+00
1.00054129e+00
1.00049502e+00
1.00045036e+00
1.00040688e+00
1.00036428e+00
1.00032230e+00
1.00028072e+00
1.00023938e+00
1.00019812e+00
1.00015681e+00
1.00011534e+00
1.00007360e+00
1.00003149e+00
9.99988924e-01
9.99945797e-01
9.99902006e-01
9.99857434e-01
9.99811943e-01
9.99765370e-01
9.99717521e-01
9.99668161e-01
9.99617007e-01
9.99563715e-01
9.99507867e-01
9.99448946e-01
9.99386312e-01
9.99319171e-01
9.99246551e-01
9.99167274e-01
9.99079959e-01
9.98983033e-01
9.98874792e-01
9.98753482e-01
9.98617431e-01
9.98465209e-01
9.98295804e-01
9.98108808e-01
9.97904570e-01
9.97684310e-01
9.97450167e-01
9.97205158e-01
9.96953059e-01
9.96698203e-01
9.96445220e-01
9.96198738e-01
9.95963097e-01
9.95742079e-01
9.95538706e-01
9.95355114e-01
9.95192505e-01
9.95051179e-01
9.94930634e-01
9.94829710e-01
9.94746756e-01
9.94679806e-01
9.94626741e-01
9.94585426e-01
9.94553822e-01
9.94530059e-01
9.94512482e-01
9.94499672e-01
9.94490450e-01
9.94483853e-01
9.94479117e-01
9.94475658e-01
9.94473049e-01
9.94470965e-01
9.94469185e-01
9.94467616e-01
9.94466199e-01
9.94464810e-01
9.94463440e-01
9.94462387e-01
9.94461527e-01
9.94460584e-01
9.94460005e-01
1.00590458e+00
1.00590352e+00
1.00590228e+00
1.00590104e+00
1.00589967e+00
1.00589818e+00
1.00589654e+00
1.00589460e+00
1.00589222e+00
1.00588916e+00
1.00588508e+00
1.00587950e+00
1.00587181e+00
1.00586120e+00
1.00584668e+00
1.00582704e+00
1.00580089e+00
1.00576660e+00
1.00572239e+00
1.00566638e+00
1.00559661e+00
1.00551119e+00
1.00540842e+00
1.00528685e+00
1.00514550e+00
1.00498394e+00
1.00480239e+00
1.00460179e+00
1.00438383e+00
1.00415093e+00
1.00390615e+00
1.00365308e+00
1.00339564e+00
1.00313792e+00
1.00288394e+00
1.00263747e+00
1.00240182e+00
1.00217972e+00
1.00197321e+00
1.00178361e+00
1.00161150e+00
1.00145680e+00
1.00131887e+00
1.00119661e+00
1.00108859e+00
1.00099321e+00
1.00090876e+00
1.00083357e+00
1.00076608e+00
1.00070483e+00
1.00064859e+00
1.00059627e+00
1.00054699e+00
1.00050004e+00
1.00045482e+00
1.00041090e+00
1.00036791e+00
1.00032558e+00
1.00028367e+00
1.00024200e+00
1.00020043e+00
1.00015881e+00
1.00011703e+00
1.00007498e+00
1.00003256e+00
9.99989658e-01
9.99946179e-01
9.99902010e-01
9.99857031e-01
9.99811104e-01
9.99764062e-01
9.99715711e-01
9.99665810e-01
9.99614064e-01
9.99560110e-01
9.99503495e-01
9.99443657e-01
9.99379906e-01
9.99311397e-01
9.99237119e-01
9.99155891e-01
9.99066370e-01
9.98967087e-01
9.98856501e-01
9.98733090e-01
9.98595458e-01
9.98442464e-01
9.98273367e-01
9.98087960e-01
9.97886692e-01
9.97670754e-01
9.97442109e-01
9.97203471e-01
9.96958210e-01
9.96710198e-01
9.96463604e-01
9.96222647e-01
9.95991351e-01
9.95773304e-01
9.95571470e-01
9.95388045e-01
9.95224394e-01
9.95081048e-01
9.94957774e-01
9.94853682e-01
9.94767370e-01
9.94697082e-01
9.94640861e-01
9.94596685e-01
9.94562576e-01
9.94536689e-01
9.94517364e-01
9.94503154e-01
9.94492836e-01
9.94485407e-01
9.94480059e-01
9.94476163e-01
9.94473243e-01
9.94470963e-01
9.94469077e-01
9.94467423e-01
9.94465910e-01
9.94464517e-01
9.94463157e-01
9.94461863e-01
9.94460730e-01
9.94459628e-01
9.94458794e-01
1.00590410e+00
1.00590276e+00
1.00590142e+00
1.00589988e+00
1.00589830e+00
1.00589675e+00
1.00589495e+00
1.00589277e+00
1.00589011e+00
1.00588666e+00
1.00588198e+00
1.00587558e+00
1.00586680e+00
1.00585477e+00
1.00583845e+00
1.00581659e+00
1.00578775e+00
1.00575034e+00
1.00570259e+00
1.00564271e+00
1.00556887e+00
1.00547938e+00
1.00537274e+00
1.00524780e+00
1.00510387e+00
1.00494078e+00
1.00475902e+00
1.00455972e+00
1.00434469e+00
1.00411632e+00
1.00387758e+00
1.00363179e+00
1.00338254e+00
1.00313348e+00
1.00288817e+00
1.00264988e+00
1.00242151e+00
1.00220541e+00
1.00200337e+00
1.00181658e+00
1.00164565e+00
1.00149063e+00
1.00135112e+00
1.00122633e+00
1.00111518e+00
1.00101637e+00
1.00092849e+00
1.00085010e+00
1.00077977e+00
1.00071614e+00
1.00065797e+00
1.00060414e+00
1.00055372e+00
1.00050589e+00
1.00046002e+00
1.00041557e+00
1.00037214e+00
1.00032941e+00
1.00028714e+00
1.00024512e+00
1.00020321e+00
1.00016125e+00
1.00011913e+00
1.00007674e+00
1.00003396e+00
9.99990681e-01
9.99946800e-01
9.99902200e-01
9.99856753e-01
9.99810319e-01
9.99762731e-01
9.99713788e-01
9.99663241e-01
9.99610775e-01
9.99555996e-01
9.99498406e-01
9.99437385e-01
9.99372174e-01
9.99301868e-01
9.99225414e-01
9.99141627e-01
9.99049219e-01
9.98946850e-01
9.98833189e-01
9.98706997e-01
9.98567211e-01
9.98413044e-01
9.98244081e-01
9.98060361e-01
9.97862459e-01
9.97651532e-01
9.97429348e-01
9.97198269e-01
9.96961191e-01
9.96721445e-01
9.96482651e-01
9.96248537e-01
9.96022738e-01
9.95808597e-01
9.95608984e-01
9.95426145e-01
9.95261617e-01
9.95116193e-01
9.94989944e-01
9.94882297e-01
9.94792149e-01
9.94717998e-01
9.94658087e-01
9.94610532e-01
9.94573444e-01
9.94545013e-01
9.94523580e-01
9.94507671e-01
9.94496019e-01
9.94487565e-01
9.94481455e-01
9.94477009e-01
9.94473696e-01
9.94471142e-01
9.94469089e-01
9.94467325e-01
9.94465700e-01
9.94464203e-01
9.94462814e-01
9.94461348e-01
9.94459923e-01
9.94458673e-01
9.94457503e-01
1.00590334e+00
1.00590169e+00
1.00590004e+00
1.00589842e+00
1.00589674e+00
1.00589494e+00
1.00589290e+00
1.00589050e+00
1.00588747e+00
1.00588345e+00
1.00587804e+00
1.00587066e+00
1.00586055e+00
1.00584681e+00
1.00582834e+00
1.00580385e+00
1.00577188e+00
1.00573083e+00
1.00567902e+00
1.00561472e+00
1.00553631e+00
1.00544227e+00
1.00533141e+00
1.00520288e+00
1.00505629e+00
1.00489182e+00
1.00471020e+00
1.00451276e+00
1.00430141e+00
1.00407853e+00
1.00384690e+00
1.00360958e+00
1.00336975e+00
1.00313058e+00
1.00289510e+00
1.00266605e+00
1.00244584e+00
1.00223644e+00
1.00203937e+00
1.00185571e+00
1.00168607e+00
1.00153067e+00
1.00138937e+00
1.00126173e+00
1.00114701e+00
1.00104429e+00
1.00095247e+00
1.00087035e+00
1.00079667e+00
1.00073018e+00
1.00066965e+00
1.00061395e+00
1.00056206e+00
1.00051311e+00
1.00046637e+00
1.00042124e+00
1.00037724e+00
1.00033403e+00
1.00029131e+00
1.00024887e+00
1.00020654e+00
1.00016418e+00
1.00012164e+00
1.00007882e+00
1.00003560e+00
9.99991855e-01
9.99947481e-01
9.99902352e-01
9.99856338e-01
9.99809294e-01
9.99761047e-01
9.99711386e-01
9.99660045e-01
9.99606684e-01
9.99550866e-01
9.99492039e-01
9.99429517e-01
9.99362475e-01
9.99289947e-01
9.99210847e-01
9.99124001e-01
9.99028200e-01
9.98922256e-01
9.98805076e-01
9.98675732e-01
9.98533526e-01
9.98378050e-01
9.98209235e-01
9.98027386e-01
9.97833213e-01
9.97627847e-01
9.97412853e-01
9.97190220e-01
9.96962341e-01
9.96731964e-01
9.96502106e-01
9.96275944e-01
9.96056666e-01
9.95847315e-01
9.95650622e-01
9.95468862e-01
9.95303733e-01
9.95156297e-01
9.95026953e-01
9.94915482e-01
9.94821114e-01
9.94742645e-01
9.94678552e-01
9.94627129e-01
9.94586595e-01
9.94555196e-01
9.94531281e-01
9.94513354e-01
9.94500108e-01
9.94490425e-01
9.94483385e-01
9.94478255e-01
9.94474463e-01
9.94471568e-01
9.94469255e-01
9.94467323e-01
9.94465611e-01
9.94463974e-01
9.94462402e-01
9.94460851e-01
9.94459313e-01
9.94457763e-01
9.94456243e-01
1.00590202e+00
1.00590021e+00
1.00589836e+00
1.00589663e+00
1.00589479e+00
1.00589276e+00
1.00589049e+00
1.00588776e+00
1.00588423e+00
1.00587957e+00
1.00587328e+00
1.00586470e+00
1.00585302e+00
1.00583728e+00
1.00581632e+00
1.00578879e+00
1.00575324e+00
1.00570808e+00
1.00565169e+00
1.00558250e+00
1.00549904e+00
1.00540008e+00
1.00528471e+00
1.00515242e+00
1.00500318e+00
1.00483749e+00
1.00465636e+00
1.00446133e+00
1.00425438e+00
1.00403784e+00
1.00381430e+00
1.00358650e+00
1.00335718e+00
1.00312896e+00
1.00290431e+00
1.00268541e+00
1.00247416e+00
1.00227211e+00
1.00208050e+00
1.00190029e+00
1.00173212e+00
1.00157637e+00
1.00143319e+00
1.00130247e+00
1.00118387e+00
1.00107685e+00
1.00098065e+00
1.00089433e+00
1.00081684e+00
1.00074703e+00
1.00068372e+00
1.00062576e+00
1.00057210e+00
1.00052177e+00
1.00047395e+00
1.00042796e+00
1.00038327e+00
1.00033946e+00
1.00029620e+00
1.00025325e+00
1.00021043e+00
1.00016757e+00
1.00012453e+00
1.00008119e+00
1.00003743e+00
9.99993122e-01
9.99948154e-01
9.99902396e-01
9.99855713e-01
9.99807952e-01
9.99758932e-01
9.99708428e-01
9.99656150e-01
9.99601720e-01
9.99544652e-01
9.99484331e-01
9.99420000e-01
9.99350763e-01
9.99275600e-01
9.99193403e-01
9.99103029e-01
9.99003369e-01
9.98893418e-01
9.98772349e-01
9.98639572e-01
9.98494778e-01
9.98337955e-01
9.98169392e-01
9.97989667e-01
9.97799624e-01
9.97600364e-01
9.97393237e-01
9.97179845e-01
9.96962055e-01
9.96741999e-01
9.96522057e-01
9.96304809e-01
9.96092951e-01
9.95889183e-01
9.95696061e-01
9.95515857e-01
9.95350420e-01
9.95201080e-01
9.95068580e-01
9.94953076e-01
9.94854168e-01
9.94770980e-01
9.94702264e-01
9.94646516e-01
9.94602092e-01
9.94567312e-01
9.94540549e-01
9.94520288e-01
9.94505179e-01
9.94494048e-01
9.94485910e-01
9.94479960e-01
9.94475574e-01
9.94472262e-01
9.94469652e-01
9.94467489e-01
9.94465619e-01
9.94463866e-01
9.94462142e-01
9.94460458e-01
9.94458806e-01
9.94457055e-01
9.94455334e-01
1.00590013e+00
1.00589827e+00
1.00589638e+00
1.00589446e+00
1.00589242e+00
1.00589022e+00
1.00588766e+00
1.00588448e+00
1.00588039e+00
1.00587496e+00
1.00586760e+00
1.00585761e+00
1.00584412e+00
1.00582607e+00
1.00580225e+00
1.00577129e+00
1.00573171e+00
1.00568198e+00
1.00562056e+00
1.00554603e+00
1.00545715e+00
1.00535297e+00
1.00523290e+00
1.00509679e+00
1.00494500e+00
1.00477835e+00
1.00459813e+00
1.00440607e+00
1.00420421e+00
1.00399480e+00
1.00378022e+00
1.00356283e+00
1.00334489e+00
1.00312849e+00
1.00291547e+00
1.00270744e+00
1.00250577e+00
1.00231161e+00
1.00212591e+00
1.00194949e+00
1.00178302e+00
1.00162706e+00
1.00148203e+00
1.00134818e+00
1.00122555e+00
1.00111399e+00
1.00101308e+00
1.00092218e+00
1.00084045e+00
1.00076688e+00
1.00070036e+00
1.00063976e+00
1.00058395e+00
1.00053193e+00
1.00048278e+00
1.00043574e+00
1.00039020e+00
1.00034566e+00
1.00030176e+00
1.00025821e+00
1.00021481e+00
1.00017136e+00
1.00012773e+00
1.00008379e+00
1.00003940e+00
9.99994439e-01
9.99948784e-01
9.99902302e-01
9.99854852e-01
9.99806274e-01
9.99756372e-01
9.99704898e-01
9.99651529e-01
9.99595841e-01
9.99537288e-01
9.99475185e-01
9.99408703e-01
9.99336881e-01
9.99258656e-01
9.99172919e-01
9.99078587e-01
9.98974677e-01
9.98860397e-01
9.98735209e-01
9.98598879e-01
9.98451490e-01
9.98293427e-01
9.98125331e-01
9.97948038e-01
9.97762519e-01
9.97569835e-01
9.97371116e-01
9.97167577e-01
9.96960553e-01
9.96751554e-01
9.96542306e-01
9.96334769e-01
9.96131116e-01
9.95933663e-01
9.95744753e-01
9.95566622e-01
9.95401245e-01
9.95250206e-01
9.95114594e-01
9.94994953e-01
9.94891276e-01
9.94803046e-01
9.94729320e-01
9.94668829e-01
9.94620093e-01
9.94581528e-01
9.94551544e-01
9.94528623e-01
9.94511371e-01
9.94498557e-01
9.94489133e-01
9.94482223e-01
9.94477122e-01
9.94473293e-01
9.94470330e-01
9.94467909e-01
9.94465815e-01
9.94463915e-01
9.94462095e-01
9.94460270e-01
9.94458469e-01
9.94456645e-01
9.94454830e-01
1.00589782e+00
1.00589592e+00
1.00589398e+00
1.00589192e+00
1.00588972e+00
1.00588727e+00
1.00588434e+00
1.00588068e+00
1.00587592e+00
1.00586955e+00
1.00586095e+00
1.00584933e+00
1.00583375e+00
1.00581308e+00
1.00578604e+00
1.00575125e+00
1.00570722e+00
1.00565248e+00
1.00558562e+00
1.00550538e+00
1.00541078e+00
1.00530116e+00
1.00517630e+00
1.00503643e+00
1.00488226e+00
1.00471495e+00
1.00453609e+00
1.00434755e+00
1.00415141e+00
1.00394983e+00
1.00374492e+00
1.00353866e+00
1.00333281e+00
1.00312888e+00
1.00292811e+00
1.00273152e+00
1.00253996e+00
1.00235415e+00
1.00217479e+00
1.00200254e+00
1.00183811e+00
1.00168222e+00
1.00153553e+00
1.00139864e+00
1.00127198e+00
1.00115576e+00
1.00104993e+00
1.00095414e+00
1.00086779e+00
1.00079004e+00
1.00071986e+00
1.00065617e+00
1.00059783e+00
1.00054376e+00
1.00049298e+00
1.00044464e+00
1.00039804e+00
1.00035263e+00
1.00030796e+00
1.00026371e+00
1.00021963e+00
1.00017551e+00
1.00013121e+00
1.00008657e+00
1.00004146e+00
9.99995749e-01
9.99949313e-01
9.99902013e-01
9.99853700e-01
9.99804200e-01
9.99753298e-01
9.99700714e-01
9.99646083e-01
9.99588922e-01
9.99528618e-01
9.99464412e-01
9.99395404e-01
9.99320578e-01
9.99238851e-01
9.99149142e-01
9.99050454e-01
9.98941971e-01
9.98823139e-01
9.98693731e-01
9.98553877e-01
9.98404049e-01
9.98245011e-01
9.98077730e-01
9.97903274e-01
9.97722715e-01
9.97537059e-01
9.97347212e-01
9.97154003e-01
9.96958248e-01
9.96760844e-01
9.96562867e-01
9.96365656e-01
9.96170841e-01
9.95980329e-01
9.95796218e-01
9.95620670e-01
9.95455753e-01
9.95303285e-01
9.95164688e-01
9.95040898e-01
9.94932312e-01
9.94838797e-01
9.94759740e-01
9.94694138e-01
9.94640701e-01
9.94597966e-01
9.94564399e-01
9.94538487e-01
9.94518807e-01
9.94504070e-01
9.94493155e-01
9.94485122e-01
9.94479193e-01
9.94474754e-01
9.94471348e-01
9.94468622e-01
9.94466304e-01
9.94464222e-01
9.94462273e-01
9.94460345e-01
9.94458439e-01
9.94456555e-01
9.94454673e-01
1.00589515e+00
1.00589322e+00
1.00589118e+00
1.00588902e+00
1.00588663e+00
1.00588387e+00
1.00588053e+00
1.00587630e+00
1.00587074e+00
1.00586328e+00
1.00585325e+00
1.00583977e+00
1.00582180e+00
1.00579817e+00
1.00576756e+00
1.00572854e+00
1.00567967e+00
1.00561953e+00
1.00554687e+00
1.00546062e+00
1.00536008e+00
1.00524492e+00
1.00511527e+00
1.00497177e+00
1.00481548e+00
1.00464792e+00
1.00447089e+00
1.00428642e+00
1.00409660e+00
1.00390343e+00
1.00370878e+00
1.00351420e+00
1.00332094e+00
1.00312994e+00
1.00294183e+00
1.00275708e+00
1.00257600e+00
1.00239893e+00
1.00222629e+00
1.00205862e+00
1.00189663e+00
1.00174117e+00
1.00159316e+00
1.00145350e+00
1.00132296e+00
1.00120212e+00
1.00109127e+00
1.00099039e+00
1.00089911e+00
1.00081678e+00
1.00074252e+00
1.00067530e+00
1.00061398e+00
1.00055746e+00
1.00050471e+00
1.00045478e+00
1.00040689e+00
1.00036041e+00
1.00031481e+00
1.00026973e+00
1.00022486e+00
1.00017998e+00
1.00013490e+00
1.00008946e+00
1.00004354e+00
9.99996984e-01
9.99949671e-01
9.99901454e-01
9.99852174e-01
9.99801639e-01
9.99749604e-01
9.99695750e-01
9.99639656e-01
9.99580776e-01
9.99518420e-01
9.99451756e-01
9.99379822e-01
9.99301566e-01
9.99215911e-01
9.99121833e-01
9.99018466e-01
9.98905189e-01
9.98781715e-01
9.98648140e-01
9.98504954e-01
9.98353000e-01
9.98193386e-01
9.98027367e-01
9.97856204e-01
9.97681040e-01
9.97502803e-01
9.97322175e-01
9.97139613e-01
9.96955436e-01
9.96769959e-01
9.96583633e-01
9.96397185e-01
9.96211704e-01
9.96028669e-01
9.95849900e-01
9.95677450e-01
9.95513443e-01
9.95359892e-01
9.95218534e-01
9.95090684e-01
9.94977149e-01
9.94878191e-01
9.94793554e-01
9.94722525e-01
9.94664036e-01
9.94616766e-01
9.94579261e-01
9.94550027e-01
9.94527623e-01
9.94510710e-01
9.94498096e-01
9.94488762e-01
9.94481866e-01
9.94476722e-01
9.94472796e-01
9.94469695e-01
9.94467126e-01
9.94464854e-01
9.94462745e-01
9.94460723e-01
9.94458749e-01
9.94456800e-01
9.94454875e-01
1.00589210e+00
1.00589016e+00
1.00588806e+00
1.00588574e+00
1.00588312e+00
1.00588002e+00
1.00587620e+00
1.00587129e+00
1.00586480e+00
1.00585610e+00
1.00584442e+00
1.00582881e+00
1.00580817e+00
1.00578126e+00
1.00574670e+00
1.00570308e+00
1.00564898e+00
1.00558310e+00
1.00550433e+00
1.00541185e+00
1.00530524e+00
1.00518452e+00
1.00505021e+00
1.00490331e+00
1.00474526e+00
1.00457788e+00
1.00440318e+00
1.00422331e+00
1.00404032e+00
1.00385607e+00
1.00367211e+00
1.00348957e+00
1.00330922e+00
1.00313140e+00
1.00295619e+00
1.00278349e+00
1.00261315e+00
1.00244513e+00
1.00227957e+00
1.00211691e+00
1.00195783e+00
1.00180330e+00
1.00165443e+00
1.00151239e+00
1.00137828e+00
1.00125300e+00
1.00113717e+00
1.00103108e+00
1.00093463e+00
1.00084739e+00
1.00076864e+00
1.00069742e+00
1.00063267e+00
1.00057327e+00
1.00051814e+00
1.00046628e+00
1.00041682e+00
1.00036903e+00
1.00032233e+00
1.00027626e+00
1.00023047e+00
1.00018470e+00
1.00013874e+00
1.00009241e+00
1.00004557e+00
9.99998080e-01
9.99949791e-01
9.99900556e-01
9.99850199e-01
9.99798502e-01
9.99745186e-01
9.99689879e-01
9.99632095e-01
9.99571214e-01
9.99506471e-01
9.99436963e-01
9.99361680e-01
9.99279561e-01
9.99189564e-01
9.99090767e-01
9.98982467e-01
9.98864277e-01
9.98736198e-01
9.98598654e-01
9.98452483e-01
9.98298865e-01
9.98139209e-01
9.97975003e-01
9.97807650e-01
9.97638322e-01
9.97467852e-01
9.97296694e-01
9.97124954e-01
9.96952490e-01
9.96779076e-01
9.96604580e-01
9.96429149e-01
9.96253344e-01
9.96078208e-01
9.95905261e-01
9.95736408e-01
9.95573782e-01
9.95419557e-01
9.95275744e-01
9.95144020e-01
9.95025591e-01
9.94921126e-01
9.94830737e-01
9.94754031e-01
9.94690180e-01
9.94638040e-01
9.94596256e-01
9.94563376e-01
9.94537948e-01
9.94518593e-01
9.94504058e-01
9.94493244e-01
9.94485227e-01
9.94479259e-01
9.94474738e-01
9.94471204e-01
9.94468324e-01
9.94465841e-01
9.94463579e-01
9.94461445e-01
9.94459395e-01
9.94457400e-01
9.94455456e-01
1.00588875e+00
1.00588678e+00
1.00588459e+00
1.00588209e+00
1.00587919e+00
1.00587570e+00
1.00587132e+00
1.00586561e+00
1.00585804e+00
1.00584791e+00
1.00583435e+00
1.00581636e+00
1.00579275e+00
1.00576221e+00
1.00572334e+00
1.00567475e+00
1.00561509e+00
1.00554316e+00
1.00545805e+00
1.00535919e+00
1.00524648e+00
1.00512030e+00
1.00498153e+00
1.00483156e+00
1.00467218e+00
1.00450546e+00
1.00433361e+00
1.00415885e+00
1.00398316e+00
1.00380821e+00
1.00363523e+00
1.00346495e+00
1.00329761e+00
1.00313304e+00
1.00297077e+00
1.00281019e+00
1.00265072e+00
1.00249196e+00
1.00233382e+00
1.00217658e+00
1.00202093e+00
1.00186790e+00
1.00171874e+00
1.00157486e+00
1.00143762e+00
1.00130822e+00
1.00118759e+00
1.00107629e+00
1.00097453e+00
1.00088210e+00
1.00079846e+00
1.00072281e+00
1.00065416e+00
1.00059141e+00
1.00053347e+00
1.00047929e+00
1.00042792e+00
1.00037855e+00
1.00033051e+00
1.00028327e+00
1.00023642e+00
1.00018964e+00
1.00014268e+00
1.00009536e+00
1.00004751e+00
9.99998979e-01
9.99949614e-01
9.99899254e-01
9.99847700e-01
9.99794702e-01
9.99739933e-01
9.99682959e-01
9.99623222e-01
9.99560023e-01
9.99492521e-01
9.99419757e-01
9.99340695e-01
9.99254290e-01
9.99159578e-01
9.99055777e-01
9.98942390e-01
9.98819289e-01
9.98686780e-01
9.98545612e-01
9.98396945e-01
9.98242253e-01
9.98083189e-01
9.97921413e-01
9.97758413e-01
9.97595345e-01
9.97432926e-01
9.97271385e-01
9.97110500e-01
9.96949716e-01
9.96788320e-01
9.96625652e-01
9.96461324e-01
9.96295392e-01
9.96128471e-01
9.95961761e-01
9.95796982e-01
9.95636232e-01
9.95481794e-01
9.95335913e-01
9.95200594e-01
9.95077427e-01
9.94967480e-01
9.94871251e-01
9.94788678e-01
9.94719209e-01
9.94661894e-01
9.94615508e-01
9.94578662e-01
9.94549911e-01
9.94527843e-01
9.94511148e-01
9.94498658e-01
9.94489365e-01
9.94482442e-01
9.94477227e-01
9.94473197e-01
9.94469956e-01
9.94467223e-01
9.94464795e-01
9.94462539e-01
9.94460403e-01
9.94458366e-01
9.94456403e-01
1.00588510e+00
1.00588307e+00
1.00588076e+00
1.00587805e+00
1.00587483e+00
1.00587087e+00
1.00586582e+00
1.00585920e+00
1.00585039e+00
1.00583862e+00
1.00582296e+00
1.00580230e+00
1.00577539e+00
1.00574088e+00
1.00569737e+00
1.00564348e+00
1.00557793e+00
1.00549971e+00
1.00540809e+00
1.00530281e+00
1.00518406e+00
1.00505260e+00
1.00490969e+00
1.00475707e+00
1.00459683e+00
1.00443130e+00
1.00426283e+00
1.00409365e+00
1.00392564e+00
1.00376028e+00
1.00359844e+00
1.00344044e+00
1.00328606e+00
1.00313462e+00
1.00298516e+00
1.00283662e+00
1.00268803e+00
1.00253866e+00
1.00238821e+00
1.00223684e+00
1.00208517e+00
1.00193427e+00
1.00178550e+00
1.00164043e+00
1.00150063e+00
1.00136755e+00
1.00124240e+00
1.00112603e+00
1.00101890e+00
1.00092107e+00
1.00083222e+00
1.00075172e+00
1.00067870e+00
1.00061212e+00
1.00055090e+00
1.00049396e+00
1.00044030e+00
1.00038903e+00
1.00033939e+00
1.00029077e+00
1.00024268e+00
1.00019474e+00
1.00014668e+00
1.00009825e+00
1.00004929e+00
9.99999622e-01
9.99949081e-01
9.99897483e-01
9.99844601e-01
9.99790143e-01
9.99733722e-01
9.99674835e-01
9.99612845e-01
9.99546972e-01
9.99476311e-01
9.99399860e-01
9.99316585e-01
9.99225496e-01
9.99125748e-01
9.99016741e-01
9.98898217e-01
9.98770335e-01
9.98633709e-01
9.98489402e-01
9.98338858e-01
9.98183795e-01
9.98026043e-01
9.97867366e-01
9.97709275e-01
9.97552869e-01
9.97398722e-01
9.97246844e-01
9.97096720e-01
9.96947431e-01
9.96797841e-01
9.96646829e-01
9.96493527e-01
9.96337524e-01
9.96179021e-01
9.96018886e-01
9.95858623e-01
9.95700248e-01
9.95546099e-01
9.95398604e-01
9.95260054e-01
9.95132397e-01
9.95017089e-01
9.94915013e-01
9.94826458e-01
9.94751166e-01
9.94688413e-01
9.94637127e-01
9.94596004e-01
9.94563629e-01
9.94538573e-01
9.94519474e-01
9.94505095e-01
9.94494356e-01
9.94486345e-01
9.94480325e-01
9.94475716e-01
9.94472065e-01
9.94469041e-01
9.94466410e-01
9.94464022e-01
9.94461798e-01
9.94459705e-01
9.94457713e-01
1.00588113e+00
1.00587903e+00
1.00587656e+00
1.00587361e+00
1.00587001e+00
1.00586549e+00
1.00585966e+00
1.00585198e+00
1.00584176e+00
1.00582815e+00
1.00581012e+00
1.00578650e+00
1.00575598e+00
1.00571717e+00
1.00566868e+00
1.00560916e+00
1.00553748e+00
1.00545277e+00
1.00535456e+00
1.00524286e+00
1.00511824e+00
1.00498178e+00
1.00483514e+00
1.00468036e+00
1.00451982e+00
1.00435604e+00
1.00419147e+00
1.00402829e+00
1.00386830e+00
1.00371268e+00
1.00356199e+00
1.00341617e+00
1.00327452e+00
1.00313593e+00
1.00299901e+00
1.00286229e+00
1.00272446e+00
1.00258454e+00
1.00244202e+00
1.00229691e+00
1.00214979e+00
1.00200169e+00
1.00185405e+00
1.00170852e+00
1.00156684e+00
1.00143065e+00
1.00130139e+00
1.00118018e+00
1.00106775e+00
1.00096441e+00
1.00087010e+00
1.00078437e+00
1.00070653e+00
1.00063563e+00
1.00057064e+00
1.00051048e+00
1.00045411e+00
1.00040056e+00
1.00034901e+00
1.00029876e+00
1.00024923e+00
1.00019998e+00
1.00015067e+00
1.00010103e+00
1.00005086e+00
9.99999954e-01
9.99948130e-01
9.99895174e-01
9.99840817e-01
9.99784715e-01
9.99726413e-01
9.99665329e-01
9.99600746e-01
9.99531810e-01
9.99457562e-01
9.99376987e-01
9.99289085e-01
9.99192962e-01
9.99087932e-01
9.98973617e-01
9.98850030e-01
9.98717631e-01
9.98577341e-01
9.98430506e-01
9.98278815e-01
9.98124165e-01
9.97968497e-01
9.97813606e-01
9.97660968e-01
9.97511578e-01
9.97365852e-01
9.97223589e-01
9.97084014e-01
9.96945901e-01
9.96807762e-01
9.96668087e-01
9.96525589e-01
9.96379441e-01
9.96229451e-01
9.96076152e-01
9.95920805e-01
9.95765299e-01
9.95611969e-01
9.95463371e-01
9.95322033e-01
9.95190221e-01
9.95069761e-01
9.94961917e-01
9.94867337e-01
9.94786077e-01
9.94717665e-01
9.94661208e-01
9.94615515e-01
9.94579221e-01
9.94550896e-01
9.94529140e-01
9.94512653e-01
9.94500280e-01
9.94491033e-01
9.94484092e-01
9.94478810e-01
9.94474683e-01
9.94471323e-01
9.94468457e-01
9.94465912e-01
9.94463586e-01
9.94461428e-01
9.94459403e-01
1.00587683e+00
1.00587463e+00
1.00587198e+00
1.00586872e+00
1.00586466e+00
1.00585950e+00
1.00585278e+00
1.00584389e+00
1.00583207e+00
1.00581637e+00
1.00579571e+00
1.00576883e+00
1.00573438e+00
1.00569095e+00
1.00563715e+00
1.00557174e+00
1.00549370e+00
1.00540238e+00
1.00529756e+00
1.00517958e+00
1.00504932e+00
1.00490826e+00
1.00475835e+00
1.00460197e+00
1.00444173e+00
1.00428028e+00
1.00412010e+00
1.00396333e+00
1.00381158e+00
1.00366577e+00
1.00352614e+00
1.00339222e+00
1.00326294e+00
1.00313678e+00
1.00301197e+00
1.00288673e+00
1.00275947e+00
1.00262897e+00
1.00249455e+00
1.00235608e+00
1.00221405e+00
1.00206945e+00
1.00192371e+00
1.00177852e+00
1.00163572e+00
1.00149709e+00
1.00136425e+00
1.00123856e+00
1.00112100e+00
1.00101215e+00
1.00091220e+00
1.00082095e+00
1.00073786e+00
1.00066217e+00
1.00059291e+00
1.00052904e+00
1.00046949e+00
1.00041327e+00
1.00035946e+00
1.00030727e+00
1.00025607e+00
1.00020532e+00
1.00015462e+00
1.00010366e+00
1.00005216e+00
9.99999918e-01
9.99946698e-01
9.99892248e-01
9.99836249e-01
9.99778289e-01
9.99717839e-01
9.99654237e-01
9.99586684e-01
9.99514265e-01
9.99435992e-01
9.99350864e-01
9.99257956e-01
9.99156510e-01
9.99046045e-01
9.98926438e-01
9.98797995e-01
9.98661481e-01
9.98518107e-01
9.98369472e-01
9.98217451e-01
9.98064058e-01
9.97911269e-01
9.97760848e-01
9.97614173e-01
9.97472099e-01
9.97334869e-01
9.97202082e-01
9.97072741e-01
9.96945371e-01
9.96818204e-01
9.96689416e-01
9.96557374e-01
9.96420888e-01
9.96279401e-01
9.96133119e-01
9.95983037e-01
9.95830872e-01
9.95678906e-01
9.95529758e-01
9.95386138e-01
9.95250587e-01
9.95125271e-01
9.95011820e-01
9.94911248e-01
9.94823939e-01
9.94749694e-01
9.94687830e-01
9.94637295e-01
9.94596794e-01
9.94564918e-01
9.94540246e-01
9.94521422e-01
9.94507218e-01
9.94496569e-01
9.94488582e-01
9.94482529e-01
9.94477845e-01
9.94474094e-01
9.94470958e-01
9.94468227e-01
9.94465779e-01
9.94463547e-01
9.94461486e-01
1.00587215e+00
1.00586984e+00
1.00586696e+00
1.00586334e+00
1.00585876e+00
1.00585285e+00
1.00584510e+00
1.00583484e+00
1.00582120e+00
1.00580319e+00
1.00577961e+00
1.00574917e+00
1.00571047e+00
1.00566209e+00
1.00560270e+00
1.00553116e+00
1.00544660e+00
1.00534861e+00
1.00523726e+00
1.00511318e+00
1.00497763e+00
1.00483242e+00
1.00467981e+00
1.00452246e+00
1.00436313e+00
1.00420458e+00
1.00404929e+00
1.00389927e+00
1.00375591e+00
1.00361989e+00
1.00349109e+00
1.00336869e+00
1.00325128e+00
1.00313700e+00
1.00302377e+00
1.00290957e+00
1.00279257e+00
1.00267139e+00
1.00254517e+00
1.00241367e+00
1.00227726e+00
1.00213684e+00
1.00199379e+00
1.00184979e+00
1.00170668e+00
1.00156636e+00
1.00143057e+00
1.00130087e+00
1.00117847e+00
1.00106422e+00
1.00095856e+00
1.00086155e+00
1.00077289e+00
1.00069196e+00
1.00061794e+00
1.00054984e+00
1.00048663e+00
1.00042728e+00
1.00037082e+00
1.00031638e+00
1.00026324e+00
1.00021078e+00
1.00015852e+00
1.00010608e+00
1.00005315e+00