# vtk DataFile Version 2.0
LBM Flow Field - Timestep 1940
ASCII
DATASET STRUCTURED_POINTS
DIMENSIONS 128 128 1
ORIGIN 0.0 0.0 0.0
SPACING 1.0 1.0 1.0
POINT_DATA 16384
SCALARS density double 1
LOOKUP_TABLE default
9.97211568e-01
9.97221939e-01
9.97235060e-01
9.97240141e-01
9.97247201e-01
9.97257471e-01
9.97268565e-01
9.97280463e-01
9.97294143e-01
9.97309289e-01
9.97325594e-01
9.97343109e-01
9.97361872e-01
9.97381758e-01
9.97402698e-01
9.97424650e-01
9.97447558e-01
9.97471356e-01
9.97495996e-01
9.97521435e-01
9.97547641e-01
9.97574592e-01
9.97602283e-01
9.97630723e-01
9.97659938e-01
9.97689969e-01
9.97720879e-01
9.97752742e-01
9.97785652e-01
9.97819715e-01
9.97855048e-01
9.97891779e-01
9.97930041e-01
9.97969967e-01
9.98011691e-01
9.98055342e-01
9.98101038e-01
9.98148885e-01
9.98198973e-01
9.98251372e-01
9.98306133e-01
9.98363281e-01
9.98422819e-01
9.98484726e-01
9.98548956e-01
9.98615445e-01
9.98684107e-01
9.98754840e-01
9.98827531e-01
9.98902056e-01
9.98978288e-01
9.99056097e-01
9.99135357e-01
9.99215949e-01
9.99297761e-01
9.99380696e-01
9.99464668e-01
9.99549606e-01
9.99635455e-01
9.99722171e-01
9.99809728e-01
9.99898106e-01
9.99987299e-01
1.00007730e+00
1.00016812e+00
1.00025976e+00
1.00035222e+00
1.00044548e+00
1.00053955e+00
1.00063439e+00
1.00072997e+00
1.00082622e+00
1.00092307e+00
1.00102044e+00
1.00111819e+00
1.00121620e+00
1.00131429e+00
1.00141229e+00
1.00150998e+00
1.00160714e+00
1.00170352e+00
1.00179885e+00
1.00189286e+00
1.00198526e+00
1.00207576e+00
1.00216407e+00
1.00224991e+00
1.00233300e+00
1.00241309e+00
1.00248996e+00
1.00256339e+00
1.00263323e+00
1.00269935e+00
1.00276166e+00
1.00282012e+00
1.00287474e+00
1.00292558e+00
1.00297273e+00
1.00301634e+00
1.00305659e+00
1.00309370e+00
1.00312792e+00
1.00315951e+00
1.00318875e+00
1.00321594e+00
1.00324136e+00
1.00326529e+00
1.00328798e+00
1.00330967e+00
1.00333056e+00
1.00335081e+00
1.00337056e+00
1.00338989e+00
1.00340885e+00
1.00342743e+00
1.00344562e+00
1.00346335e+00
1.00348046e+00
1.00349690e+00
1.00351264e+00
1.00352726e+00
1.00354035e+00
1.00355273e+00
1.00356431e+00
1.00357253e+00
1.00357844e+00
1.00359238e+00
1.00360331e+00
9.97219924e-01
9.97224156e-01
9.97234045e-01
9.97240580e-01
9.97248654e-01
9.97258319e-01
9.97269507e-01
9.97281770e-01
9.97295532e-01
9.97310626e-01
9.97327043e-01
9.97344666e-01
9.97363494e-01
9.97383441e-01
9.97404463e-01
9.97426489e-01
9.97449465e-01
9.97473334e-01
9.97498048e-01
9.97523563e-01
9.97549849e-01
9.97576887e-01
9.97604672e-01
9.97633213e-01
9.97662539e-01
9.97692691e-01
9.97723731e-01
9.97755736e-01
9.97788796e-01
9.97823019e-01
9.97858519e-01
9.97895422e-01
9.97933858e-01
9.97973960e-01
9.98015859e-01
9.98059678e-01
9.98105533e-01
9.98153527e-01
9.98203747e-01
9.98256259e-01
9.98311111e-01
9.98368325e-01
9.98427903e-01
9.98489821e-01
9.98554034e-01
9.98620475e-01
9.98689061e-01
9.98759690e-01
9.98832250e-01
9.98906619e-01
9.98982673e-01
9.99060284e-01
9.99139329e-01
9.99219692e-01
9.99301264e-01
9.99383950e-01
9.99467667e-01
9.99552345e-01
9.99637930e-01
9.99724381e-01
9.99811671e-01
9.99899781e-01
9.99988704e-01
1.00007844e+00
1.00016898e+00
1.00026035e+00
1.00035252e+00
1.00044550e+00
1.00053928e+00
1.00063382e+00
1.00072909e+00
1.00082503e+00
1.00092157e+00
1.00101860e+00
1.00111603e+00
1.00121370e+00
1.00131145e+00
1.00140911e+00
1.00150646e+00
1.00160328e+00
1.00169933e+00
1.00179434e+00
1.00188804e+00
1.00198014e+00
1.00207037e+00
1.00215844e+00
1.00224406e+00
1.00232698e+00
1.00240693e+00
1.00248369e+00
1.00255707e+00
1.00262690e+00
1.00269305e+00
1.00275544e+00
1.00281404e+00
1.00286883e+00
1.00291988e+00
1.00296729e+00
1.00301119e+00
1.00305176e+00
1.00308921e+00
1.00312378e+00
1.00315573e+00
1.00318534e+00
1.00321289e+00
1.00323866e+00
1.00326291e+00
1.00328590e+00
1.00330786e+00
1.00332899e+00
1.00334945e+00
1.00336936e+00
1.00338882e+00
1.00340787e+00
1.00342652e+00
1.00344472e+00
1.00346244e+00
1.00347955e+00
1.00349598e+00
1.00351153e+00
1.00352610e+00
1.00353941e+00
1.00355177e+00
1.00356259e+00
1.00357171e+00
1.00357911e+00
1.00358973e+00
1.00359424e+00
9.97227600e-01
9.97228409e-01
9.97230265e-01
9.97239272e-01
9.97249073e-01
9.97257914e-01
9.97268758e-01
9.97281591e-01
9.97295527e-01
9.97310636e-01
9.97327200e-01
9.97345033e-01
9.97364011e-01
9.97384117e-01
9.97405312e-01
9.97427511e-01
9.97450655e-01
9.97474694e-01
9.97499578e-01
9.97525264e-01
9.97551722e-01
9.97578934e-01
9.97606894e-01
9.97635614e-01
9.97665120e-01
9.97695457e-01
9.97726686e-01
9.97758882e-01
9.97792138e-01
9.97826558e-01
9.97862258e-01
9.97899362e-01
9.97937998e-01
9.97978297e-01
9.98020387e-01
9.98064391e-01
9.98110421e-01
9.98158577e-01
9.98208942e-01
9.98261582e-01
9.98316539e-01
9.98373836e-01
9.98433471e-01
9.98495418e-01
9.98559632e-01
9.98626045e-01
9.98694573e-01
9.98765115e-01
9.98837559e-01
9.98911786e-01
9.98987672e-01
9.99065092e-01
9.99143925e-01
9.99224057e-01
9.99305383e-01
9.99387807e-01
9.99471250e-01
9.99555644e-01
9.99640937e-01
9.99727088e-01
9.99814070e-01
9.99901868e-01
9.99990472e-01
1.00007988e+00
1.00017010e+00
1.00026112e+00
1.00035295e+00
1.00044558e+00
1.00053900e+00
1.00063318e+00
1.00072808e+00
1.00082364e+00
1.00091979e+00
1.00101643e+00
1.00111346e+00
1.00121073e+00
1.00130808e+00
1.00140534e+00
1.00150230e+00
1.00159874e+00
1.00169441e+00
1.00178906e+00
1.00188242e+00
1.00197422e+00
1.00206416e+00
1.00215198e+00
1.00223738e+00
1.00232012e+00
1.00239994e+00
1.00247663e+00
1.00254997e+00
1.00261982e+00
1.00268604e+00
1.00274856e+00
1.00280733e+00
1.00286235e+00
1.00291368e+00
1.00296141e+00
1.00300566e+00
1.00304662e+00
1.00308449e+00
1.00311950e+00
1.00315190e+00
1.00318197e+00
1.00320998e+00
1.00323619e+00
1.00326087e+00
1.00328427e+00
1.00330661e+00
1.00332808e+00
1.00334885e+00
1.00336904e+00
1.00338873e+00
1.00340797e+00
1.00342678e+00
1.00344511e+00
1.00346290e+00
1.00348011e+00
1.00349657e+00
1.00351202e+00
1.00352662e+00
1.00354035e+00
1.00355222e+00
1.00356209e+00
1.00357286e+00
1.00358270e+00
1.00358493e+00
1.00358587e+00
9.97223280e-01
9.97225643e-01
9.97230266e-01
9.97237942e-01
9.97245960e-01
9.97255710e-01
9.97267177e-01
9.97279857e-01
9.97293850e-01
9.97309328e-01
9.97326127e-01
9.97344148e-01
9.97363376e-01
9.97383758e-01
9.97405208e-01
9.97427667e-01
9.97451080e-01
9.97475388e-01
9.97500538e-01
9.97526490e-01
9.97553213e-01
9.97580688e-01
9.97608910e-01
9.97637890e-01
9.97667655e-01
9.97698248e-01
9.97729730e-01
9.97762177e-01
9.97795680e-01
9.97830344e-01
9.97866282e-01
9.97903618e-01
9.97942478e-01
9.97982993e-01
9.98025287e-01
9.98069482e-01
9.98115688e-01
9.98164003e-01
9.98214508e-01
9.98267266e-01
9.98322318e-01
9.98379685e-01
9.98439364e-01
9.98501329e-01
9.98565533e-01
9.98631908e-01
9.98700371e-01
9.98770821e-01
9.98843148e-01
9.98917233e-01
9.98992954e-01
9.99070189e-01
9.99148818e-01
9.99228729e-01
9.99309817e-01
9.99391991e-01
9.99475172e-01
9.99559292e-01
9.99644301e-01
9.99730158e-01
9.99816838e-01
9.99904324e-01
9.99992607e-01
1.00008169e+00
1.00017156e+00
1.00026223e+00
1.00035370e+00
1.00044596e+00
1.00053899e+00
1.00063277e+00
1.00072726e+00
1.00082240e+00
1.00091812e+00
1.00101433e+00
1.00111090e+00
1.00120772e+00
1.00130462e+00
1.00140142e+00
1.00149793e+00
1.00159392e+00
1.00168916e+00
1.00178339e+00
1.00187635e+00
1.00196777e+00
1.00205738e+00
1.00214488e+00
1.00223003e+00
1.00231255e+00
1.00239220e+00
1.00246877e+00
1.00254206e+00
1.00261192e+00
1.00267821e+00
1.00274086e+00
1.00279982e+00
1.00285510e+00
1.00290675e+00
1.00295484e+00
1.00299952e+00
1.00304094e+00
1.00307931e+00
1.00311485e+00
1.00314781e+00
1.00317844e+00
1.00320702e+00
1.00323380e+00
1.00325904e+00
1.00328298e+00
1.00330583e+00
1.00332778e+00
1.00334900e+00
1.00336959e+00
1.00338965e+00
1.00340922e+00
1.00342830e+00
1.00344688e+00
1.00346486e+00
1.00348219e+00
1.00349878e+00
1.00351446e+00
1.00352899e+00
1.00354243e+00
1.00355480e+00
1.00356544e+00
1.00357427e+00
1.00358268e+00
1.00358782e+00
1.00359028e+00
9.97218167e-01
9.97221733e-01
9.97227963e-01
9.97233839e-01
9.97241757e-01
9.97252481e-01
9.97263956e-01
9.97276535e-01
9.97290896e-01
9.97306739e-01
9.97323764e-01
9.97342072e-01
9.97361649e-01
9.97382367e-01
9.97404150e-01
9.97426958e-01
9.97450725e-01
9.97475383e-01
9.97500885e-01
9.97527188e-01
9.97554258e-01
9.97582077e-01
9.97610638e-01
9.97639952e-01
9.97670045e-01
9.97700961e-01
9.97732758e-01
9.97765514e-01
9.97799317e-01
9.97834271e-01
9.97870490e-01
9.97908095e-01
9.97947213e-01
9.97987970e-01
9.98030492e-01
9.98074896e-01
9.98121292e-01
9.98169776e-01
9.98220428e-01
9.98273308e-01
9.98328457e-01
9.98385894e-01
9.98445615e-01
9.98507595e-01
9.98571784e-01
9.98638118e-01
9.98706512e-01
9.98776867e-01
9.98849075e-01
9.98923017e-01
9.98998575e-01
9.99075626e-01
9.99154054e-01
9.99233747e-01
9.99314604e-01
9.99396533e-01
9.99479457e-01
9.99563310e-01
9.99648040e-01
9.99733610e-01
9.99819991e-01
9.99907166e-01
9.99995128e-01
1.00008387e+00
1.00017340e+00
1.00026371e+00
1.00035480e+00
1.00044667e+00
1.00053929e+00
1.00063264e+00
1.00072669e+00
1.00082137e+00
1.00091662e+00
1.00101233e+00
1.00110841e+00
1.00120472e+00
1.00130110e+00
1.00139738e+00
1.00149337e+00
1.00158884e+00
1.00168357e+00
1.00177731e+00
1.00186981e+00
1.00196079e+00
1.00204998e+00
1.00213712e+00
1.00222194e+00
1.00230420e+00
1.00238364e+00
1.00246006e+00
1.00253327e+00
1.00260312e+00
1.00266948e+00
1.00273227e+00
1.00279145e+00
1.00284703e+00
1.00289903e+00
1.00294756e+00
1.00299273e+00
1.00303470e+00
1.00307367e+00
1.00310985e+00
1.00314348e+00
1.00317480e+00
1.00320408e+00
1.00323156e+00
1.00325750e+00
1.00328211e+00
1.00330562e+00
1.00332819e+00
1.00334998e+00
1.00337111e+00
1.00339166e+00
1.00341166e+00
1.00343112e+00
1.00345003e+00
1.00346832e+00
1.00348586e+00
1.00350257e+00
1.00351849e+00
1.00353325e+00
1.00354645e+00
1.00355867e+00
1.00357017e+00
1.00357881e+00
1.00358525e+00
1.00359190e+00
1.00359561e+00
9.97213556e-01
9.97216433e-01
9.97221707e-01
9.97228530e-01
9.97237422e-01
9.97247435e-01
9.97258824e-01
9.97272101e-01
9.97286819e-01
9.97302787e-01
9.97320169e-01
9.97338921e-01
9.97358875e-01
9.97379973e-01
9.97402181e-01
9.97425419e-01
9.97449608e-01
9.97474695e-01
9.97500627e-01
9.97527357e-01
9.97554851e-01
9.97583087e-01
9.97612059e-01
9.97641776e-01
9.97672264e-01
9.97703564e-01
9.97735736e-01
9.97768854e-01
9.97803007e-01
9.97838299e-01
9.97874840e-01
9.97912753e-01
9.97952161e-01
9.97993190e-01
9.98035964e-01
9.98080600e-01
9.98127205e-01
9.98175874e-01
9.98226685e-01
9.98279698e-01
9.98334952e-01
9.98392466e-01
9.98452235e-01
9.98514233e-01
9.98578413e-01
9.98644708e-01
9.98713037e-01
9.98783300e-01
9.98855392e-01
9.98929195e-01
9.99004592e-01
9.99081464e-01
9.99159695e-01
9.99239175e-01
9.99319804e-01
9.99401492e-01
9.99484162e-01
9.99567749e-01
9.99652202e-01
9.99737481e-01
9.99823559e-01
9.99910419e-01
9.99998050e-01
1.00008645e+00
1.00017561e+00
1.00026554e+00
1.00035623e+00
1.00044768e+00
1.00053986e+00
1.00063275e+00
1.00072632e+00
1.00082049e+00
1.00091522e+00
1.00101039e+00
1.00110592e+00
1.00120165e+00
1.00129746e+00
1.00139315e+00
1.00148855e+00
1.00158344e+00
1.00167760e+00
1.00177079e+00
1.00186275e+00
1.00195323e+00
1.00204196e+00
1.00212868e+00
1.00221313e+00
1.00229507e+00
1.00237427e+00
1.00245052e+00
1.00252364e+00
1.00259348e+00
1.00265991e+00
1.00272286e+00
1.00278229e+00
1.00283819e+00
1.00289061e+00
1.00293964e+00
1.00298537e+00
1.00302798e+00
1.00306764e+00
1.00310456e+00
1.00313897e+00
1.00317110e+00
1.00320120e+00
1.00322951e+00
1.00325627e+00
1.00328169e+00
1.00330597e+00
1.00332928e+00
1.00335178e+00
1.00337356e+00
1.00339470e+00
1.00341524e+00
1.00343519e+00
1.00345450e+00
1.00347314e+00
1.00349105e+00
1.00350803e+00
1.00352395e+00
1.00353893e+00
1.00355268e+00
1.00356465e+00
1.00357530e+00
1.00358481e+00
1.00359211e+00
1.00359769e+00
1.00360063e+00
9.97206976e-01
9.97209832e-01
9.97214726e-01
9.97222128e-01
9.97230962e-01
9.97240883e-01
9.97252852e-01
9.97266469e-01
9.97281328e-01
9.97297686e-01
9.97315560e-01
9.97334716e-01
9.97355089e-01
9.97376670e-01
9.97399370e-01
9.97423091e-01
9.97447775e-01
9.97473364e-01
9.97499796e-01
9.97527022e-01
9.97555007e-01
9.97583729e-01
9.97613178e-01
9.97643361e-01
9.97674304e-01
9.97706048e-01
9.97738649e-01
9.97772181e-01
9.97806734e-01
9.97842407e-01
9.97879313e-01
9.97917571e-01
9.97957304e-01
9.97998636e-01
9.98041690e-01
9.98086581e-01
9.98133416e-01
9.98182288e-01
9.98233275e-01
9.98286434e-01
9.98341805e-01
9.98399405e-01
9.98459231e-01
9.98521255e-01
9.98585432e-01
9.98651695e-01
9.98719964e-01
9.98790141e-01
9.98862122e-01
9.98935791e-01
9.99011032e-01
9.99087729e-01
9.99165766e-01
9.99245036e-01
9.99325439e-01
9.99406888e-01
9.99489304e-01
9.99572624e-01
9.99656795e-01
9.99741778e-01
9.99827546e-01
9.99914078e-01
1.00000136e+00
1.00008940e+00
1.00017818e+00
1.00026771e+00
1.00035797e+00
1.00044896e+00
1.00054067e+00
1.00063306e+00
1.00072610e+00
1.00081973e+00
1.00091388e+00
1.00100847e+00
1.00110338e+00
1.00119849e+00
1.00129365e+00
1.00138870e+00
1.00148345e+00
1.00157770e+00
1.00167122e+00
1.00176379e+00
1.00185516e+00
1.00194508e+00
1.00203330e+00
1.00211955e+00
1.00220359e+00
1.00228519e+00
1.00236412e+00
1.00244018e+00
1.00251320e+00
1.00258302e+00
1.00264953e+00
1.00271266e+00
1.00277237e+00
1.00282865e+00
1.00288154e+00
1.00293112e+00
1.00297750e+00
1.00302082e+00
1.00306126e+00
1.00309902e+00
1.00313431e+00
1.00316736e+00
1.00319840e+00
1.00322765e+00
1.00325535e+00
1.00328169e+00
1.00330687e+00
1.00333104e+00
1.00335435e+00
1.00337689e+00
1.00339872e+00
1.00341990e+00
1.00344042e+00
1.00346025e+00
1.00347930e+00
1.00349756e+00
1.00351493e+00
1.00353112e+00
1.00354610e+00
1.00356003e+00
1.00357245e+00
1.00358285e+00
1.00359215e+00
1.00359993e+00
1.00360502e+00
1.00360785e+00
9.97198507e-01
9.97201676e-01
9.97207071e-01
9.97214221e-01
9.97222910e-01
9.97233516e-01
9.97245806e-01
9.97259449e-01
9.97274744e-01
9.97291661e-01
9.97309926e-01
9.97329508e-01
9.97350420e-01
9.97372542e-01
9.97395764e-01
9.97420033e-01
9.97445282e-01
9.97471432e-01
9.97498424e-01
9.97526209e-01
9.97554749e-01
9.97584016e-01
9.97614001e-01
9.97644710e-01
9.97676164e-01
9.97708404e-01
9.97741485e-01
9.97775481e-01
9.97810478e-01
9.97846576e-01
9.97883885e-01
9.97922524e-01
9.97962614e-01
9.98004279e-01
9.98047640e-01
9.98092811e-01
9.98139897e-01
9.98188991e-01
9.98240169e-01
9.98293489e-01
9.98348990e-01
9.98406689e-01
9.98466581e-01
9.98528640e-01
9.98592822e-01
9.98659061e-01
9.98727276e-01
9.98797374e-01
9.98869250e-01
9.98942790e-01
9.99017882e-01
9.99094407e-01
9.99172255e-01
9.99251319e-01
9.99331500e-01
9.99412709e-01
9.99494871e-01
9.99577922e-01
9.99661807e-01
9.99746489e-01
9.99831937e-01
9.99918131e-01
1.00000506e+00
1.00009271e+00
1.00018109e+00
1.00027019e+00
1.00035999e+00
1.00045051e+00
1.00054170e+00
1.00063356e+00
1.00072603e+00
1.00081906e+00
1.00091259e+00
1.00100654e+00
1.00110078e+00
1.00119521e+00
1.00128968e+00
1.00138403e+00
1.00147807e+00
1.00157162e+00
1.00166445e+00
1.00175635e+00
1.00184707e+00
1.00193638e+00
1.00202403e+00
1.00210978e+00
1.00219337e+00
1.00227460e+00
1.00235323e+00
1.00242909e+00
1.00250199e+00
1.00257180e+00
1.00263841e+00
1.00270174e+00
1.00276176e+00
1.00281845e+00
1.00287186e+00
1.00292205e+00
1.00296914e+00
1.00301326e+00
1.00305457e+00
1.00309326e+00
1.00312953e+00
1.00316360e+00
1.00319568e+00
1.00322598e+00
1.00325473e+00
1.00328210e+00
1.00330828e+00
1.00333342e+00
1.00335764e+00
1.00338104e+00
1.00340367e+00
1.00342557e+00
1.00344673e+00
1.00346715e+00
1.00348674e+00
1.00350538e+00
1.00352306e+00
1.00353969e+00
1.00355496e+00
1.00356877e+00
1.00358135e+00
1.00359230e+00
1.00360131e+00
1.00360872e+00
1.00361422e+00
1.00361728e+00
9.97189333e-01
9.97192523e-01
9.97197994e-01
9.97205129e-01
9.97214138e-01
9.97225048e-01
9.97237446e-01
9.97251515e-01
9.97267338e-01
9.97284629e-01
9.97303335e-01
9.97323490e-01
9.97344964e-01
9.97367630e-01
9.97391439e-01
9.97416319e-01
9.97442176e-01
9.97468936e-01
9.97496543e-01
9.97524941e-01
9.97554086e-01
9.97583952e-01
9.97614525e-01
9.97645808e-01
9.97677823e-01
9.97710607e-01
9.97744214e-01
9.97778716e-01
9.97814199e-01
9.97850760e-01
9.97888510e-01
9.97927564e-01
9.97968043e-01
9.98010070e-01
9.98053765e-01
9.98099241e-01
9.98146601e-01
9.98195938e-01
9.98247326e-01
9.98300824e-01
9.98356470e-01
9.98414281e-01
9.98474252e-01
9.98536359e-01
9.98600556e-01
9.98666781e-01
9.98734953e-01
9.98804980e-01
9.98876758e-01
9.98950178e-01
9.99025126e-01
9.99101487e-01
9.99179151e-01
9.99258011e-01
9.99337972e-01
9.99418944e-01
9.99500851e-01
9.99583630e-01
9.99667226e-01
9.99751598e-01
9.99836717e-01
9.99922560e-01
1.00000911e+00
1.00009637e+00
1.00018432e+00
1.00027296e+00
1.00036229e+00
1.00045229e+00
1.00054294e+00
1.00063422e+00
1.00072608e+00
1.00081848e+00
1.00091134e+00
1.00100459e+00
1.00109813e+00
1.00119182e+00
1.00128554e+00
1.00137913e+00
1.00147242e+00
1.00156521e+00
1.00165730e+00
1.00174847e+00
1.00183851e+00
1.00192716e+00
1.00201421e+00
1.00209940e+00
1.00218252e+00
1.00226335e+00
1.00234167e+00
1.00241731e+00
1.00249010e+00
1.00255990e+00
1.00262662e+00
1.00269017e+00
1.00275052e+00
1.00280766e+00
1.00286164e+00
1.00291251e+00
1.00296037e+00
1.00300535e+00
1.00304761e+00
1.00308731e+00
1.00312466e+00
1.00315984e+00
1.00319306e+00
1.00322452e+00
1.00325441e+00
1.00328292e+00
1.00331020e+00
1.00333640e+00
1.00336163e+00
1.00338597e+00
1.00340948e+00
1.00343219e+00
1.00345408e+00
1.00347512e+00
1.00349529e+00
1.00351447e+00
1.00353251e+00
1.00354940e+00
1.00356507e+00
1.00357916e+00
1.00359168e+00
1.00360278e+00
1.00361198e+00
1.00361925e+00
1.00362473e+00
1.00362774e+00
9.97179322e-01
9.97182398e-01
9.97187789e-01
9.97195219e-01
9.97204521e-01
9.97215496e-01
9.97228245e-01
9.97242840e-01
9.97259018e-01
9.97276728e-01
9.97296018e-01
9.97316741e-01
9.97338760e-01
9.97362034e-01
9.97386484e-01
9.97412000e-01
9.97438500e-01
9.97465917e-01
9.97494182e-01
9.97523233e-01
9.97553027e-01
9.97583534e-01
9.97614737e-01
9.97646637e-01
9.97679254e-01
9.97712622e-01
9.97746795e-01
9.97781842e-01
9.97817847e-01
9.97854907e-01
9.97893130e-01
9.97932632e-01
9.97973531e-01
9.98015949e-01
9.98060004e-01
9.98105810e-01
9.98153468e-01
9.98203069e-01
9.98254689e-01
9.98308384e-01
9.98364193e-01
9.98422132e-01
9.98482199e-01
9.98544367e-01
9.98608595e-01
9.98674818e-01
9.98742959e-01
9.98812926e-01
9.98884619e-01
9.98957927e-01
9.99032740e-01
9.99108945e-01
9.99186431e-01
9.99265094e-01
9.99344838e-01
9.99425575e-01
9.99507228e-01
9.99589732e-01
9.99673033e-01
9.99757090e-01
9.99841870e-01
9.99927351e-01
1.00001352e+00
1.00010035e+00
1.00018786e+00
1.00027602e+00
1.00036484e+00
1.00045429e+00
1.00054436e+00
1.00063503e+00
1.00072625e+00
1.00081797e+00
1.00091013e+00
1.00100264e+00
1.00109541e+00
1.00118833e+00
1.00128125e+00
1.00137404e+00
1.00146651e+00
1.00155850e+00
1.00164980e+00
1.00174021e+00
1.00182950e+00
1.00191747e+00
1.00200387e+00
1.00208849e+00
1.00217110e+00
1.00225151e+00
1.00232950e+00
1.00240491e+00
1.00247759e+00
1.00254739e+00
1.00261423e+00
1.00267802e+00
1.00273874e+00
1.00279638e+00
1.00285096e+00
1.00290256e+00
1.00295125e+00
1.00299717e+00
1.00304045e+00
1.00308125e+00
1.00311974e+00
1.00315612e+00
1.00319057e+00
1.00322327e+00
1.00325440e+00
1.00328413e+00
1.00331261e+00
1.00333996e+00
1.00336628e+00
1.00339164e+00
1.00341610e+00
1.00343968e+00
1.00346237e+00
1.00348412e+00
1.00350487e+00
1.00352459e+00
1.00354315e+00
1.00356037e+00
1.00357625e+00
1.00359072e+00
1.00360344e+00
1.00361446e+00
1.00362381e+00
1.00363125e+00
1.00363657e+00
1.00363941e+00
9.97168355e-01
9.97171499e-01
9.97176961e-01
9.97184536e-01
9.97193981e-01
9.97205249e-01
9.97218429e-01
9.97233361e-01
9.97249942e-01
9.97268216e-01
9.97288053e-01
9.97309308e-01
9.97331939e-01
9.97355864e-01
9.97380958e-01
9.97407132e-01
9.97434313e-01
9.97462417e-01
9.97491366e-01
9.97521102e-01
9.97551578e-01
9.97582758e-01
9.97614624e-01
9.97647174e-01
9.97680425e-01
9.97714411e-01
9.97749182e-01
9.97784805e-01
9.97821365e-01
9.97858955e-01
9.97897683e-01
9.97937661e-01
9.97979009e-01
9.98021846e-01
9.98066289e-01
9.98112450e-01
9.98160431e-01
9.98210321e-01
9.98262195e-01
9.98316109e-01
9.98372102e-01
9.98430190e-01
9.98490371e-01
9.98552621e-01
9.98616895e-01
9.98683133e-01
9.98751259e-01
9.98821181e-01
9.98892801e-01
9.98966011e-01
9.99040701e-01
9.99116758e-01
9.99194076e-01
9.99272548e-01
9.99352080e-01
9.99432584e-01
9.99513983e-01
9.99596211e-01
9.99679214e-01
9.99762949e-01
9.99847380e-01
9.99932485e-01
1.00001824e+00
1.00010465e+00
1.00019168e+00
1.00027935e+00
1.00036762e+00
1.00045650e+00
1.00054597e+00
1.00063599e+00
1.00072652e+00
1.00081753e+00
1.00090894e+00
1.00100067e+00
1.00109264e+00
1.00118473e+00
1.00127681e+00
1.00136875e+00
1.00146037e+00
1.00155152e+00
1.00164199e+00
1.00173159e+00
1.00182011e+00
1.00190735e+00
1.00199308e+00
1.00207710e+00
1.00215919e+00
1.00223915e+00
1.00231681e+00
1.00239199e+00
1.00246455e+00
1.00253437e+00
1.00260134e+00
1.00266540e+00
1.00272651e+00
1.00278468e+00
1.00283992e+00
1.00289229e+00
1.00294188e+00
1.00298879e+00
1.00303315e+00
1.00307511e+00
1.00311484e+00
1.00315249e+00
1.00318824e+00
1.00322226e+00
1.00325472e+00
1.00328575e+00
1.00331549e+00
1.00334406e+00
1.00337154e+00
1.00339800e+00
1.00342347e+00
1.00344797e+00
1.00347150e+00
1.00349401e+00
1.00351543e+00
1.00353569e+00
1.00355474e+00
1.00357242e+00
1.00358859e+00
1.00360325e+00
1.00361626e+00
1.00362742e+00
1.00363677e+00
1.00364425e+00
1.00364954e+00
1.00365239e+00
9.97156726e-01
9.97159954e-01
9.97165546e-01
9.97173212e-01
9.97182858e-01
9.97194488e-01
9.97207990e-01
9.97223275e-01
9.97240368e-01
9.97259162e-01
9.97279505e-01
9.97301353e-01
9.97324623e-01
9.97349181e-01
9.97374930e-01
9.97401793e-01
9.97429672e-01
9.97458473e-01
9.97488127e-01
9.97518569e-01
9.97549747e-01
9.97581621e-01
9.97614173e-01
9.97647397e-01
9.97681307e-01
9.97715935e-01
9.97751330e-01
9.97787557e-01
9.97824697e-01
9.97862844e-01
9.97902103e-01
9.97942586e-01
9.97984409e-01
9.98027692e-01
9.98072550e-01
9.98119092e-01
9.98167421e-01
9.98217626e-01
9.98269778e-01
9.98323936e-01
9.98380137e-01
9.98438398e-01
9.98498715e-01
9.98561067e-01
9.98625409e-01
9.98691682e-01
9.98759811e-01
9.98829707e-01
9.98901271e-01
9.98974398e-01
9.99048978e-01
9.99124901e-01
9.99202059e-01
9.99280349e-01
9.99359676e-01
9.99439951e-01
9.99521097e-01
9.99603048e-01
9.99685749e-01
9.99769154e-01
9.99853228e-01
9.99937945e-01
1.00002328e+00
1.00010923e+00
1.00019578e+00
1.00028292e+00
1.00037063e+00
1.00045891e+00
1.00054773e+00
1.00063707e+00
1.00072689e+00
1.00081715e+00
1.00090777e+00
1.00099869e+00
1.00108982e+00
1.00118104e+00
1.00127225e+00
1.00136329e+00
1.00145403e+00
1.00154429e+00
1.00163390e+00
1.00172266e+00
1.00181038e+00
1.00189687e+00
1.00198191e+00
1.00206530e+00
1.00214685e+00
1.00222637e+00
1.00230369e+00
1.00237864e+00
1.00245109e+00
1.00252093e+00
1.00258805e+00
1.00265240e+00
1.00271395e+00
1.00277268e+00
1.00282861e+00
1.00288181e+00
1.00293233e+00
1.00298029e+00
1.00302580e+00
1.00306899e+00
1.00311000e+00
1.00314899e+00
1.00318612e+00
1.00322153e+00
1.00325537e+00
1.00328776e+00
1.00331884e+00
1.00334868e+00
1.00337738e+00
1.00340498e+00
1.00343152e+00
1.00345701e+00
1.00348140e+00
1.00350470e+00
1.00352683e+00
1.00354769e+00
1.00356721e+00
1.00358533e+00
1.00360190e+00
1.00361678e+00
1.00362996e+00
1.00364134e+00
1.00365076e+00
1.00365822e+00
1.00366355e+00
1.00366643e+00
9.97144718e-01
9.97147992e-01
9.97153659e-01
9.97161483e-01
9.97171379e-01
9.97183282e-01
9.97197102e-01
9.97212830e-01
9.97230394e-01
9.97249656e-01
9.97270554e-01
9.97293009e-01
9.97316885e-01
9.97342077e-01
9.97368503e-01
9.97396054e-01
9.97424625e-01
9.97454133e-01
9.97484501e-01
9.97515656e-01
9.97547544e-01
9.97580125e-01
9.97613374e-01
9.97647286e-01
9.97681871e-01
9.97717158e-01
9.97753195e-01
9.97790045e-01
9.97827787e-01
9.97866514e-01
9.97906327e-01
9.97947338e-01
9.97989662e-01
9.98033415e-01
9.98078713e-01
9.98125664e-01
9.98174369e-01
9.98224914e-01
9.98277372e-01
9.98331801e-01
9.98388236e-01
9.98446695e-01
9.98507175e-01
9.98569653e-01
9.98634087e-01
9.98700419e-01
9.98768574e-01
9.98838464e-01
9.98909991e-01
9.98983053e-01
9.99057539e-01
9.99133342e-01
9.99210353e-01
9.99288471e-01
9.99367600e-01
9.99447651e-01
9.99528547e-01
9.99610221e-01
9.99692616e-01
9.99775686e-01
9.99859393e-01
9.99943710e-01
1.00002862e+00
1.00011409e+00
1.00020013e+00
1.00028672e+00
1.00037385e+00
1.00046150e+00
1.00054965e+00
1.00063828e+00
1.00072735e+00
1.00081682e+00
1.00090662e+00
1.00099669e+00
1.00108694e+00
1.00117727e+00
1.00126757e+00
1.00135769e+00
1.00144751e+00
1.00153686e+00
1.00162557e+00
1.00171347e+00
1.00180037e+00
1.00188608e+00
1.00197041e+00
1.00205317e+00
1.00213418e+00
1.00221325e+00
1.00229022e+00
1.00236495e+00
1.00243730e+00
1.00250717e+00
1.00257447e+00
1.00263914e+00
1.00270114e+00
1.00276046e+00
1.00281714e+00
1.00287119e+00
1.00292271e+00
1.00297176e+00
1.00301846e+00
1.00306293e+00
1.00310529e+00
1.00314568e+00
1.00318424e+00
1.00322109e+00
1.00325636e+00
1.00329018e+00
1.00332263e+00
1.00335380e+00
1.00338376e+00
1.00341255e+00
1.00344019e+00
1.00346668e+00
1.00349200e+00
1.00351609e+00
1.00353893e+00
1.00356043e+00
1.00358048e+00
1.00359900e+00
1.00361593e+00
1.00363113e+00
1.00364450e+00
1.00365601e+00
1.00366555e+00
1.00367305e+00
1.00367839e+00
1.00368125e+00
9.97132463e-01
9.97135791e-01
9.97141543e-01
9.97149539e-01
9.97159657e-01
9.97171820e-01
9.97186001e-01
9.97202143e-01
9.97220129e-01
9.97239889e-01
9.97261345e-01
9.97284365e-01
9.97308837e-01
9.97334674e-01
9.97361760e-01
9.97389980e-01
9.97419240e-01
9.97449452e-01
9.97480525e-01
9.97512389e-01
9.97544987e-01
9.97578274e-01
9.97612224e-01
9.97646827e-01
9.97682093e-01
9.97718048e-01
9.97754738e-01
9.97792224e-01
9.97830583e-01
9.97869905e-01
9.97910291e-01
9.97951851e-01
9.97994697e-01
9.98038946e-01
9.98084709e-01
9.98132095e-01
9.98181201e-01
9.98232115e-01
9.98284908e-01
9.98339635e-01
9.98396333e-01
9.98455019e-01
9.98515690e-01
9.98578323e-01
9.98642877e-01
9.98709293e-01
9.98777499e-01
9.98847407e-01
9.98918920e-01
9.98991937e-01
9.99066349e-01
9.99142048e-01
9.99218927e-01
9.99296884e-01
9.99375824e-01
9.99455658e-01
9.99536307e-01
9.99617705e-01
9.99699792e-01
9.99782521e-01
9.99865853e-01
9.99949759e-01
1.00003422e+00
1.00011921e+00
1.00020472e+00
1.00029074e+00
1.00037725e+00
1.00046425e+00
1.00055170e+00
1.00063960e+00
1.00072789e+00
1.00081655e+00
1.00090550e+00
1.00099469e+00
1.00108404e+00
1.00117344e+00
1.00126279e+00
1.00135197e+00
1.00144084e+00
1.00152926e+00
1.00161706e+00
1.00170408e+00
1.00179014e+00
1.00187507e+00
1.00195868e+00
1.00204080e+00
1.00212125e+00
1.00219987e+00
1.00227651e+00
1.00235102e+00
1.00242329e+00
1.00249321e+00
1.00256070e+00
1.00262571e+00
1.00268820e+00
1.00274815e+00
1.00280559e+00
1.00286055e+00
1.00291309e+00
1.00296329e+00
1.00301123e+00
1.00305702e+00
1.00310077e+00
1.00314260e+00
1.00318262e+00
1.00322096e+00
1.00325772e+00
1.00329299e+00
1.00332685e+00
1.00335939e+00
1.00339064e+00
1.00342064e+00
1.00344941e+00
1.00347692e+00
1.00350317e+00
1.00352810e+00
1.00355165e+00
1.00357377e+00
1.00359436e+00
1.00361333e+00
1.00363060e+00
1.00364609e+00
1.00365969e+00
1.00367133e+00
1.00368097e+00
1.00368854e+00
1.00369388e+00
1.00369675e+00
9.97120155e-01
9.97123562e-01
9.97129410e-01
9.97137547e-01
9.97147870e-01
9.97160318e-01
9.97174838e-01
9.97191347e-01
9.97209765e-01
9.97230018e-01
9.97251984e-01
9.97275547e-01
9.97300615e-01
9.97327067e-01
9.97354782e-01
9.97383657e-01
9.97413591e-01
9.97444482e-01
9.97476244e-01
9.97508803e-01
9.97542097e-01
9.97576080e-01
9.97610721e-01
9.97646011e-01
9.97681954e-01
9.97718578e-01
9.97755923e-01
9.97794050e-01
9.97833035e-01
9.97872964e-01
9.97913938e-01
9.97956063e-01
9.97999452e-01
9.98044216e-01
9.98090468e-01
9.98138314e-01
9.98187849e-01
9.98239160e-01
9.98292316e-01
9.98347372e-01
9.98404364e-01
9.98463308e-01
9.98524200e-01
9.98587019e-01
9.98651722e-01
9.98718253e-01
9.98786537e-01
9.98856489e-01
9.98928014e-01
9.99001009e-01
9.99075367e-01
9.99150981e-01
9.99227744e-01
9.99305555e-01
9.99384316e-01
9.99463941e-01
9.99544349e-01
9.99625471e-01
9.99707249e-01
9.99789633e-01
9.99872583e-01
9.99956068e-01
1.00004006e+00
1.00012455e+00
1.00020952e+00
1.00029495e+00
1.00038083e+00
1.00046715e+00
1.00055389e+00
1.00064102e+00
1.00072851e+00
1.00081632e+00
1.00090440e+00
1.00099269e+00
1.00108110e+00
1.00116955e+00
1.00125795e+00
1.00134616e+00
1.00143407e+00
1.00152153e+00
1.00160841e+00
1.00169453e+00
1.00177974e+00
1.00186388e+00
1.00194677e+00
1.00202825e+00
1.00210815e+00
1.00218633e+00
1.00226265e+00
1.00233696e+00
1.00240916e+00
1.00247915e+00
1.00254686e+00
1.00261223e+00
1.00267523e+00
1.00273584e+00
1.00279408e+00
1.00284998e+00
1.00290358e+00
1.00295494e+00
1.00300416e+00
1.00305131e+00
1.00309648e+00
1.00313978e+00
1.00318132e+00
1.00322117e+00
1.00325943e+00
1.00329618e+00
1.00333149e+00
1.00336541e+00
1.00339797e+00
1.00342919e+00
1.00345909e+00
1.00348764e+00
1.00351482e+00
1.00354058e+00
1.00356487e+00
1.00358760e+00
1.00360872e+00
1.00362814e+00
1.00364575e+00
1.00366151e+00
1.00367532e+00
1.00368712e+00
1.00369686e+00
1.00370446e+00
1.00370982e+00
1.00371273e+00
9.97108015e-01
9.97111492e-01
9.97117430e-01
9.97125701e-01
9.97136227e-01
9.97148939e-01
9.97163763e-01
9.97180629e-01
9.97199465e-01
9.97220163e-01
9.97242609e-01
9.97266703e-01
9.97292327e-01
9.97319353e-01
9.97347671e-01
9.97377173e-01
9.97407744e-01
9.97439285e-01
9.97471709e-01
9.97504937e-01
9.97538902e-01
9.97573558e-01
9.97608873e-01
9.97644833e-01
9.97681443e-01
9.97718725e-01
9.97756721e-01
9.97795489e-01
9.97835101e-01
9.97875643e-01
9.97917214e-01
9.97959917e-01
9.98003863e-01
9.98049163e-01
9.98095925e-01
9.98144254e-01
9.98194245e-01
9.98245981e-01
9.98299530e-01
9.98354946e-01
9.98412264e-01
9.98471498e-01
9.98532645e-01
9.98595681e-01
9.98660566e-01
9.98727242e-01
9.98795636e-01
9.98865662e-01
9.98937225e-01
9.99010224e-01
9.99084552e-01
9.99160102e-01
9.99236767e-01
9.99314446e-01
9.99393042e-01
9.99472466e-01
9.99552639e-01
9.99633490e-01
9.99714959e-01
9.99796995e-01
9.99879557e-01
9.99962612e-01
1.00004614e+00
1.00013011e+00
1.00021451e+00