# vtk DataFile Version 2.0
LBM Flow Field - Timestep 210
ASCII
DATASET STRUCTURED_POINTS
DIMENSIONS 128 128 1
ORIGIN 0.0 0.0 0.0
SPACING 1.0 1.0 1.0
POINT_DATA 16384
SCALARS density double 1
LOOKUP_TABLE default
9.99952877e-01
9.99945749e-01
9.99940435e-01
9.99936747e-01
9.99933634e-01
9.99931052e-01
9.99929085e-01
9.99927705e-01
9.99926910e-01
9.99926673e-01
9.99926977e-01
9.99927788e-01
9.99929076e-01
9.99930799e-01
9.99932915e-01
9.99935378e-01
9.99938140e-01
9.99941152e-01
9.99944364e-01
9.99947727e-01
9.99951190e-01
9.99954709e-01
9.99958239e-01
9.99961738e-01
9.99965170e-01
9.99968501e-01
9.99971702e-01
9.99974750e-01
9.99977624e-01
9.99980310e-01
9.99982798e-01
9.99985081e-01
9.99987157e-01
9.99989029e-01
9.99990702e-01
9.99992183e-01
9.99993481e-01
9.99994610e-01
9.99995582e-01
9.99996410e-01
9.99997110e-01
9.99997695e-01
9.99998179e-01
9.99998576e-01
9.99998897e-01
9.99999155e-01
9.99999359e-01
9.99999520e-01
9.99999644e-01
9.99999739e-01
9.99999811e-01
9.99999865e-01
9.99999905e-01
9.99999933e-01
9.99999954e-01
9.99999969e-01
9.99999979e-01
9.99999986e-01
9.99999991e-01
9.99999994e-01
9.99999997e-01
9.99999998e-01
9.99999999e-01
1.00000000e+00
1.00000000e+00
1.00000000e+00
1.00000000e+00
1.00000000e+00
1.00000001e+00
1.00000001e+00
1.00000001e+00
1.00000002e+00
1.00000003e+00
1.00000005e+00
1.00000007e+00
1.00000010e+00
1.00000015e+00
1.00000021e+00
1.00000028e+00
1.00000039e+00
1.00000052e+00
1.00000070e+00
1.00000092e+00
1.00000121e+00
1.00000156e+00
1.00000200e+00
1.00000253e+00
1.00000317e+00
1.00000395e+00
1.00000487e+00
1.00000594e+00
1.00000720e+00
1.00000864e+00
1.00001029e+00
1.00001215e+00
1.00001424e+00
1.00001656e+00
1.00001911e+00
1.00002190e+00
1.00002491e+00
1.00002814e+00
1.00003156e+00
1.00003517e+00
1.00003892e+00
1.00004279e+00
1.00004674e+00
1.00005073e+00
1.00005471e+00
1.00005863e+00
1.00006244e+00
1.00006609e+00
1.00006951e+00
1.00007265e+00
1.00007546e+00
1.00007787e+00
1.00007984e+00
1.00008132e+00
1.00008226e+00
1.00008262e+00
1.00008237e+00
1.00008149e+00
1.00007994e+00
1.00007773e+00
1.00007481e+00
1.00007129e+00
1.00006712e+00
1.00006112e+00
1.00005305e+00
9.99937684e-01
9.99929972e-01
9.99924558e-01
9.99920263e-01
9.99916411e-01
9.99913357e-01
9.99910995e-01
9.99909331e-01
9.99908341e-01
9.99908013e-01
9.99908319e-01
9.99909227e-01
9.99910700e-01
9.99912695e-01
9.99915164e-01
9.99918057e-01
9.99921319e-01
9.99924895e-01
9.99928729e-01
9.99932764e-01
9.99936943e-01
9.99941213e-01
9.99945522e-01
9.99949819e-01
9.99954061e-01
9.99958205e-01
9.99962216e-01
9.99966062e-01
9.99969716e-01
9.99973157e-01
9.99976370e-01
9.99979344e-01
9.99982072e-01
9.99984555e-01
9.99986793e-01
9.99988793e-01
9.99990566e-01
9.99992122e-01
9.99993477e-01
9.99994644e-01
9.99995641e-01
9.99996484e-01
9.99997190e-01
9.99997776e-01
9.99998257e-01
9.99998647e-01
9.99998961e-01
9.99999211e-01
9.99999407e-01
9.99999559e-01
9.99999676e-01
9.99999765e-01
9.99999831e-01
9.99999881e-01
9.99999917e-01
9.99999943e-01
9.99999961e-01
9.99999974e-01
9.99999983e-01
9.99999989e-01
9.99999993e-01
9.99999996e-01
9.99999998e-01
9.99999999e-01
1.00000000e+00
1.00000000e+00
1.00000000e+00
1.00000001e+00
1.00000001e+00
1.00000002e+00
1.00000003e+00
1.00000004e+00
1.00000006e+00
1.00000009e+00
1.00000013e+00
1.00000018e+00
1.00000025e+00
1.00000035e+00
1.00000048e+00
1.00000065e+00
1.00000086e+00
1.00000113e+00
1.00000148e+00
1.00000191e+00
1.00000244e+00
1.00000308e+00
1.00000386e+00
1.00000480e+00
1.00000590e+00
1.00000720e+00
1.00000870e+00
1.00001043e+00
1.00001241e+00
1.00001464e+00
1.00001714e+00
1.00001992e+00
1.00002298e+00
1.00002631e+00
1.00002992e+00
1.00003379e+00
1.00003791e+00
1.00004224e+00
1.00004677e+00
1.00005146e+00
1.00005626e+00
1.00006112e+00
1.00006601e+00
1.00007086e+00
1.00007561e+00
1.00008020e+00
1.00008456e+00
1.00008864e+00
1.00009236e+00
1.00009567e+00
1.00009850e+00
1.00010079e+00
1.00010249e+00
1.00010354e+00
1.00010391e+00
1.00010356e+00
1.00010246e+00
1.00010058e+00
1.00009792e+00
1.00009446e+00
1.00009009e+00
1.00008522e+00
1.00007908e+00
1.00007032e+00
9.99907024e-01
9.99896947e-01
9.99890750e-01
9.99884666e-01
9.99879732e-01
9.99875681e-01
9.99872569e-01
9.99870310e-01
9.99868959e-01
9.99868453e-01
9.99868783e-01
9.99869900e-01
9.99871766e-01
9.99874326e-01
9.99877527e-01
9.99881305e-01
9.99885599e-01
9.99890338e-01
9.99895455e-01
9.99900877e-01
9.99906535e-01
9.99912358e-01
9.99918280e-01
9.99924234e-01
9.99930159e-01
9.99935999e-01
9.99941701e-01
9.99947219e-01
9.99952513e-01
9.99957547e-01
9.99962296e-01
9.99966736e-01
9.99970855e-01
9.99974643e-01
9.99978098e-01
9.99981222e-01
9.99984022e-01
9.99986511e-01
9.99988704e-01
9.99990618e-01
9.99992274e-01
9.99993693e-01
9.99994898e-01
9.99995910e-01
9.99996753e-01
9.99997447e-01
9.99998013e-01
9.99998470e-01
9.99998834e-01
9.99999121e-01
9.99999345e-01
9.99999518e-01
9.99999649e-01
9.99999748e-01
9.99999821e-01
9.99999875e-01
9.99999913e-01
9.99999941e-01
9.99999960e-01
9.99999974e-01
9.99999983e-01
9.99999990e-01
9.99999995e-01
9.99999998e-01
1.00000000e+00
1.00000001e+00
1.00000001e+00
1.00000002e+00
1.00000003e+00
1.00000004e+00
1.00000006e+00
1.00000009e+00
1.00000014e+00
1.00000019e+00
1.00000027e+00
1.00000038e+00
1.00000052e+00
1.00000071e+00
1.00000096e+00
1.00000127e+00
1.00000167e+00
1.00000217e+00
1.00000279e+00
1.00000356e+00
1.00000449e+00
1.00000561e+00
1.00000694e+00
1.00000852e+00
1.00001035e+00
1.00001249e+00
1.00001493e+00
1.00001771e+00
1.00002084e+00
1.00002434e+00
1.00002821e+00
1.00003247e+00
1.00003710e+00
1.00004211e+00
1.00004746e+00
1.00005315e+00
1.00005914e+00
1.00006539e+00
1.00007186e+00
1.00007849e+00
1.00008522e+00
1.00009200e+00
1.00009875e+00
1.00010539e+00
1.00011185e+00
1.00011805e+00
1.00012390e+00
1.00012933e+00
1.00013426e+00
1.00013860e+00
1.00014228e+00
1.00014524e+00
1.00014740e+00
1.00014871e+00
1.00014912e+00
1.00014857e+00
1.00014706e+00
1.00014450e+00
1.00014097e+00
1.00013636e+00
1.00013075e+00
1.00012381e+00
1.00011675e+00
1.00010524e+00
9.99857110e-01
9.99843416e-01
9.99834747e-01
9.99826632e-01
9.99820089e-01
9.99814549e-01
9.99810290e-01
9.99807184e-01
9.99805289e-01
9.99804524e-01
9.99804886e-01
9.99806311e-01
9.99808758e-01
9.99812158e-01
9.99816448e-01
9.99821552e-01
9.99827392e-01
9.99833883e-01
9.99840938e-01
9.99848468e-01
9.99856381e-01
9.99864587e-01
9.99872995e-01
9.99881517e-01
9.99890069e-01
9.99898568e-01
9.99906941e-01
9.99915117e-01
9.99923034e-01
9.99930637e-01
9.99937879e-01
9.99944720e-01
9.99951132e-01
9.99957092e-01
9.99962586e-01
9.99967610e-01
9.99972166e-01
9.99976262e-01
9.99979912e-01
9.99983138e-01
9.99985962e-01
9.99988412e-01
9.99990518e-01
9.99992312e-01
9.99993824e-01
9.99995085e-01
9.99996128e-01
9.99996980e-01
9.99997669e-01
9.99998220e-01
9.99998656e-01
9.99998997e-01
9.99999260e-01
9.99999461e-01
9.99999612e-01
9.99999724e-01
9.99999807e-01
9.99999866e-01
9.99999909e-01
9.99999939e-01
9.99999961e-01
9.99999976e-01
9.99999987e-01
9.99999996e-01
1.00000000e+00
1.00000001e+00
1.00000003e+00
1.00000004e+00
1.00000006e+00
1.00000010e+00
1.00000014e+00
1.00000021e+00
1.00000030e+00
1.00000042e+00
1.00000058e+00
1.00000080e+00
1.00000109e+00
1.00000146e+00
1.00000194e+00
1.00000254e+00
1.00000330e+00
1.00000424e+00
1.00000538e+00
1.00000678e+00
1.00000845e+00
1.00001044e+00
1.00001278e+00
1.00001550e+00
1.00001865e+00
1.00002225e+00
1.00002634e+00
1.00003093e+00
1.00003604e+00
1.00004169e+00
1.00004788e+00
1.00005460e+00
1.00006185e+00
1.00006959e+00
1.00007779e+00
1.00008642e+00
1.00009542e+00
1.00010472e+00
1.00011426e+00
1.00012395e+00
1.00013372e+00
1.00014346e+00
1.00015309e+00
1.00016249e+00
1.00017157e+00
1.00018022e+00
1.00018833e+00
1.00019580e+00
1.00020253e+00
1.00020842e+00
1.00021338e+00
1.00021733e+00
1.00022018e+00
1.00022186e+00
1.00022232e+00
1.00022149e+00
1.00021936e+00
1.00021583e+00
1.00021098e+00
1.00020465e+00
1.00019717e+00
1.00018788e+00
1.00017796e+00
1.00016225e+00
9.99781992e-01
9.99763872e-01
9.99752036e-01
9.99741439e-01
9.99732622e-01
9.99725220e-01
9.99719514e-01
9.99715333e-01
9.99712737e-01
9.99711645e-01
9.99712048e-01
9.99713872e-01
9.99717067e-01
9.99721556e-01
9.99727261e-01
9.99734094e-01
9.99741961e-01
9.99750759e-01
9.99760383e-01
9.99770721e-01
9.99781659e-01
9.99793081e-01
9.99804870e-01
9.99816909e-01
9.99829085e-01
9.99841286e-01
9.99853406e-01
9.99865344e-01
9.99877008e-01
9.99888313e-01
9.99899183e-01
9.99909553e-01
9.99919368e-01
9.99928585e-01
9.99937172e-01
9.99945107e-01
9.99952381e-01
9.99958993e-01
9.99964954e-01
9.99970281e-01
9.99975000e-01
9.99979144e-01
9.99982749e-01
9.99985856e-01
9.99988508e-01
9.99990750e-01
9.99992626e-01
9.99994179e-01
9.99995452e-01
9.99996484e-01
9.99997311e-01
9.99997967e-01
9.99998480e-01
9.99998877e-01
9.99999181e-01
9.99999410e-01
9.99999580e-01
9.99999706e-01
9.99999797e-01
9.99999863e-01
9.99999910e-01
9.99999945e-01
9.99999970e-01
9.99999991e-01
1.00000001e+00
1.00000003e+00
1.00000006e+00
1.00000010e+00
1.00000015e+00
1.00000022e+00
1.00000032e+00
1.00000045e+00
1.00000064e+00
1.00000089e+00
1.00000122e+00
1.00000165e+00
1.00000221e+00
1.00000293e+00
1.00000383e+00
1.00000497e+00
1.00000637e+00
1.00000808e+00
1.00001015e+00
1.00001264e+00
1.00001558e+00
1.00001903e+00
1.00002305e+00
1.00002768e+00
1.00003296e+00
1.00003893e+00
1.00004562e+00
1.00005306e+00
1.00006126e+00
1.00007021e+00
1.00007993e+00
1.00009037e+00
1.00010150e+00
1.00011329e+00
1.00012566e+00
1.00013854e+00
1.00015185e+00
1.00016549e+00
1.00017936e+00
1.00019333e+00
1.00020730e+00
1.00022112e+00
1.00023466e+00
1.00024780e+00
1.00026040e+00
1.00027231e+00
1.00028342e+00
1.00029358e+00
1.00030268e+00
1.00031060e+00
1.00031722e+00
1.00032245e+00
1.00032619e+00
1.00032835e+00
1.00032888e+00
1.00032769e+00
1.00032476e+00
1.00032000e+00
1.00031348e+00
1.00030500e+00
1.00029489e+00
1.00028272e+00
1.00026912e+00
1.00024827e+00
9.99675739e-01
9.99652608e-01
9.99637106e-01
9.99623593e-01
9.99612160e-01
9.99602695e-01
9.99595325e-01
9.99589922e-01
9.99586538e-01
9.99585089e-01
9.99585556e-01
9.99587861e-01
9.99591946e-01
9.99597725e-01
9.99605113e-01
9.99614006e-01
9.99624300e-01
9.99635877e-01
9.99648613e-01
9.99662377e-01
9.99677033e-01
9.99692440e-01
9.99708453e-01
9.99724927e-01
9.99741713e-01
9.99758668e-01
9.99775649e-01
9.99792518e-01
9.99809145e-01
9.99825406e-01
9.99841187e-01
9.99856388e-01
9.99870917e-01
9.99884700e-01
9.99897672e-01
9.99909788e-01
9.99921014e-01
9.99931332e-01
9.99940738e-01
9.99949241e-01
9.99956862e-01
9.99963632e-01
9.99969594e-01
9.99974796e-01
9.99979292e-01
9.99983140e-01
9.99986402e-01
9.99989138e-01
9.99991411e-01
9.99993277e-01
9.99994794e-01
9.99996012e-01
9.99996980e-01
9.99997739e-01
9.99998328e-01
9.99998779e-01
9.99999120e-01
9.99999374e-01
9.99999563e-01
9.99999700e-01
9.99999801e-01
9.99999876e-01
9.99999933e-01
9.99999981e-01
1.00000003e+00
1.00000007e+00
1.00000013e+00
1.00000021e+00
1.00000032e+00
1.00000047e+00
1.00000067e+00
1.00000095e+00
1.00000132e+00
1.00000181e+00
1.00000245e+00
1.00000328e+00
1.00000434e+00
1.00000567e+00
1.00000734e+00
1.00000939e+00
1.00001190e+00
1.00001493e+00
1.00001855e+00
1.00002282e+00
1.00002783e+00
1.00003363e+00
1.00004030e+00
1.00004789e+00
1.00005645e+00
1.00006601e+00
1.00007662e+00
1.00008827e+00
1.00010098e+00
1.00011471e+00
1.00012944e+00
1.00014512e+00
1.00016167e+00
1.00017901e+00
1.00019704e+00
1.00021565e+00
1.00023469e+00
1.00025403e+00
1.00027353e+00
1.00029301e+00
1.00031232e+00
1.00033129e+00
1.00034974e+00
1.00036751e+00
1.00038443e+00
1.00040033e+00
1.00041506e+00
1.00042846e+00
1.00044039e+00
1.00045071e+00
1.00045930e+00
1.00046604e+00
1.00047083e+00
1.00047357e+00
1.00047420e+00
1.00047261e+00
1.00046879e+00
1.00046264e+00
1.00045421e+00
1.00044337e+00
1.00043024e+00
1.00041470e+00
1.00039685e+00
1.00037018e+00
9.99532348e-01
9.99504152e-01
9.99484736e-01
9.99468268e-01
9.99454182e-01
9.99442625e-01
9.99433563e-01
9.99426955e-01
9.99422806e-01
9.99421042e-01
9.99421633e-01
9.99424502e-01
9.99429586e-01
9.99436794e-01
9.99446038e-01
9.99457209e-01
9.99470195e-01
9.99484869e-01
9.99501097e-01
9.99518734e-01
9.99537627e-01
9.99557616e-01
9.99578533e-01
9.99600205e-01
9.99622455e-01
9.99645105e-01
9.99667975e-01
9.99690888e-01
9.99713670e-01
9.99736154e-01
9.99758181e-01
9.99779602e-01
9.99800281e-01
9.99820097e-01
9.99838944e-01
9.99856735e-01
9.99873401e-01
9.99888890e-01
9.99903170e-01
9.99916230e-01
9.99928074e-01
9.99938724e-01
9.99948217e-01
9.99956603e-01
9.99963942e-01
9.99970305e-01
9.99975769e-01
9.99980414e-01
9.99984322e-01
9.99987576e-01
9.99990257e-01
9.99992441e-01
9.99994200e-01
9.99995600e-01
9.99996701e-01
9.99997557e-01
9.99998215e-01
9.99998713e-01
9.99999088e-01
9.99999367e-01
9.99999575e-01
9.99999732e-01
9.99999854e-01
9.99999958e-01
1.00000006e+00
1.00000016e+00
1.00000029e+00
1.00000046e+00
1.00000068e+00
1.00000098e+00
1.00000138e+00
1.00000193e+00
1.00000264e+00
1.00000357e+00
1.00000477e+00
1.00000631e+00
1.00000823e+00
1.00001064e+00
1.00001359e+00
1.00001718e+00
1.00002151e+00
1.00002667e+00
1.00003275e+00
1.00003984e+00
1.00004805e+00
1.00005744e+00
1.00006810e+00
1.00008008e+00
1.00009343e+00
1.00010819e+00
1.00012436e+00
1.00014192e+00
1.00016086e+00
1.00018111e+00
1.00020259e+00
1.00022521e+00
1.00024886e+00
1.00027338e+00
1.00029862e+00
1.00032442e+00
1.00035058e+00
1.00037692e+00
1.00040323e+00
1.00042931e+00
1.00045494e+00
1.00047992e+00
1.00050405e+00
1.00052711e+00
1.00054893e+00
1.00056931e+00
1.00058807e+00
1.00060504e+00
1.00062008e+00
1.00063304e+00
1.00064378e+00
1.00065218e+00
1.00065814e+00
1.00066155e+00
1.00066234e+00
1.00066043e+00
1.00065576e+00
1.00064826e+00
1.00063792e+00
1.00062471e+00
1.00060856e+00
1.00058967e+00
1.00056732e+00
1.00053485e+00
9.99346950e-01
9.99314388e-01
9.99291264e-01
9.99272231e-01
9.99255790e-01
9.99242432e-01
9.99231935e-01
9.99224351e-01
9.99219618e-01
9.99217694e-01
9.99218533e-01
9.99222064e-01
9.99228225e-01
9.99236929e-01
9.99248089e-01
9.99261601e-01
9.99277356e-01
9.99295227e-01
9.99315081e-01
9.99336771e-01
9.99360137e-01
9.99385010e-01
9.99411211e-01
9.99438549e-01
9.99466825e-01
9.99495834e-01
9.99525365e-01
9.99555205e-01
9.99585138e-01
9.99614950e-01
9.99644435e-01
9.99673391e-01
9.99701626e-01
9.99728965e-01
9.99755244e-01
9.99780322e-01
9.99804075e-01
9.99826404e-01
9.99847232e-01
9.99866505e-01
9.99884195e-01
9.99900298e-01
9.99914831e-01
9.99927832e-01
9.99939358e-01
9.99949482e-01
9.99958291e-01
9.99965881e-01
9.99972354e-01
9.99977819e-01
9.99982384e-01
9.99986155e-01
9.99989236e-01
9.99991725e-01
9.99993712e-01
9.99995280e-01
9.99996502e-01
9.99997444e-01
9.99998163e-01
9.99998709e-01
9.99999122e-01
9.99999440e-01
9.99999694e-01
9.99999912e-01
1.00000012e+00
1.00000034e+00
1.00000061e+00
1.00000095e+00
1.00000139e+00
1.00000198e+00
1.00000275e+00
1.00000378e+00
1.00000511e+00
1.00000682e+00
1.00000899e+00
1.00001172e+00
1.00001511e+00
1.00001927e+00
1.00002432e+00
1.00003038e+00
1.00003757e+00
1.00004603e+00
1.00005587e+00
1.00006720e+00
1.00008014e+00
1.00009476e+00
1.00011114e+00
1.00012933e+00
1.00014936e+00
1.00017122e+00
1.00019489e+00
1.00022031e+00
1.00024740e+00
1.00027603e+00
1.00030608e+00
1.00033738e+00
1.00036974e+00
1.00040296e+00
1.00043681e+00
1.00047106e+00
1.00050547e+00
1.00053979e+00
1.00057376e+00
1.00060714e+00
1.00063969e+00
1.00067116e+00
1.00070132e+00
1.00072996e+00
1.00075686e+00
1.00078184e+00
1.00080471e+00
1.00082531e+00
1.00084348e+00
1.00085909e+00
1.00087200e+00
1.00088210e+00
1.00088929e+00
1.00089348e+00
1.00089459e+00
1.00089254e+00
1.00088727e+00
1.00087875e+00
1.00086686e+00
1.00085172e+00
1.00083298e+00
1.00081131e+00
1.00078480e+00
1.00074754e+00
9.99117058e-01
9.99081666e-01
9.99055612e-01
9.99034863e-01
9.99016807e-01
9.99002319e-01
9.98990953e-01
9.98982869e-01
9.98977938e-01
9.98976153e-01
9.98977451e-01
9.98981778e-01
9.98989074e-01
9.98999268e-01
9.99012282e-01
9.99028029e-01
9.99046411e-01
9.99067318e-01
9.99090630e-01
9.99116210e-01
9.99143912e-01
9.99173572e-01
9.99205013e-01
9.99238043e-01
9.99272459e-01
9.99308041e-01
9.99344560e-01
9.99381777e-01
9.99419446e-01
9.99457313e-01
9.99495126e-01
9.99532631e-01
9.99569580e-01
9.99605734e-01
9.99640866e-01
9.99674766e-01
9.99707243e-01
9.99738129e-01
9.99767282e-01
9.99794587e-01
9.99819960e-01
9.99843347e-01
9.99864725e-01
9.99884098e-01
9.99901501e-01
9.99916992e-01
9.99930653e-01
9.99942585e-01
9.99952905e-01
9.99961739e-01
9.99969224e-01
9.99975498e-01
9.99980699e-01
9.99984963e-01
9.99988417e-01
9.99991185e-01
9.99993377e-01
9.99995094e-01
9.99996426e-01
9.99997455e-01
9.99998250e-01
9.99998873e-01
9.99999380e-01
9.99999821e-01
1.00000024e+00
1.00000070e+00
1.00000123e+00
1.00000189e+00
1.00000274e+00
1.00000385e+00
1.00000530e+00
1.00000716e+00
1.00000956e+00
1.00001259e+00
1.00001638e+00
1.00002107e+00
1.00002681e+00
1.00003375e+00
1.00004206e+00
1.00005189e+00
1.00006341e+00
1.00007675e+00
1.00009207e+00
1.00010949e+00
1.00012910e+00
1.00015098e+00
1.00017517e+00
1.00020170e+00
1.00023053e+00
1.00026161e+00
1.00029485e+00
1.00033011e+00
1.00036724e+00
1.00040603e+00
1.00044627e+00
1.00048771e+00
1.00053009e+00
1.00057312e+00
1.00061651e+00
1.00065996e+00
1.00070319e+00
1.00074589e+00
1.00078777e+00
1.00082856e+00
1.00086800e+00
1.00090583e+00
1.00094182e+00
1.00097575e+00
1.00100743e+00
1.00103668e+00
1.00106333e+00
1.00108723e+00
1.00110825e+00
1.00112628e+00
1.00114121e+00
1.00115294e+00
1.00116140e+00
1.00116650e+00
1.00116819e+00
1.00116639e+00
1.00116103e+00
1.00115212e+00
1.00113946e+00
1.00112330e+00
1.00110300e+00
1.00107975e+00
1.00105018e+00
1.00101025e+00
9.98843677e-01
9.98807773e-01
9.98780170e-01
9.98758985e-01
9.98740498e-01
9.98725903e-01
9.98714543e-01
9.98706695e-01
9.98702153e-01
9.98700958e-01
9.98703026e-01
9.98708331e-01
9.98716819e-01
9.98728441e-01
9.98743141e-01
9.98760854e-01
9.98781510e-01
9.98805027e-01
9.98831312e-01
9.98860258e-01
9.98891745e-01
9.98925635e-01
9.98961775e-01
9.98999993e-01
9.99040096e-01
9.99081877e-01
9.99125107e-01
9.99169542e-01
9.99214921e-01
9.99260969e-01
9.99307399e-01
9.99353919e-01
9.99400230e-01
9.99446034e-01
9.99491038e-01
9.99534959e-01
9.99577528e-01
9.99618495e-01
9.99657635e-01
9.99694751e-01
9.99729679e-01
9.99762288e-01
9.99792487e-01
9.99820218e-01
9.99845466e-01
9.99868249e-01
9.99888619e-01
9.99906662e-01
9.99922489e-01
9.99936235e-01
9.99948050e-01
9.99958099e-01
9.99966555e-01
9.99973591e-01
9.99979380e-01
9.99984090e-01
9.99987880e-01
9.99990899e-01
9.99993282e-01
9.99995155e-01
9.99996630e-01
9.99997810e-01
9.99998788e-01
9.99999652e-01
1.00000049e+00
1.00000137e+00
1.00000239e+00
1.00000365e+00
1.00000523e+00
1.00000726e+00
1.00000985e+00
1.00001314e+00
1.00001729e+00
1.00002246e+00
1.00002883e+00
1.00003661e+00
1.00004597e+00
1.00005714e+00
1.00007031e+00
1.00008566e+00
1.00010339e+00
1.00012366e+00
1.00014660e+00
1.00017231e+00
1.00020088e+00
1.00023231e+00
1.00026661e+00
1.00030371e+00
1.00034351e+00
1.00038586e+00
1.00043057e+00
1.00047740e+00
1.00052610e+00
1.00057637e+00
1.00062789e+00
1.00068033e+00
1.00073333e+00
1.00078655e+00
1.00083963e+00
1.00089223e+00
1.00094402e+00
1.00099467e+00
1.00104389e+00
1.00109140e+00
1.00113694e+00
1.00118028e+00
1.00122122e+00
1.00125956e+00
1.00129514e+00
1.00132782e+00
1.00135748e+00
1.00138400e+00
1.00140731e+00
1.00142733e+00
1.00144397e+00
1.00145719e+00
1.00146694e+00
1.00147315e+00
1.00147578e+00
1.00147481e+00
1.00147012e+00
1.00146179e+00
1.00144954e+00
1.00143373e+00
1.00141348e+00
1.00139039e+00
1.00135968e+00
1.00132025e+00
9.98532031e-01
9.98498494e-01
9.98471230e-01
9.98451200e-01
9.98433805e-01
9.98420387e-01
9.98410154e-01
9.98403470e-01
9.98400069e-01
9.98400036e-01
9.98403274e-01
9.98409788e-01
9.98419534e-01
9.98432493e-01
9.98448634e-01
9.98467928e-01
9.98490337e-01
9.98515821e-01
9.98544325e-01
9.98575788e-01
9.98610132e-01
9.98647263e-01
9.98687072e-01
9.98729427e-01
9.98774174e-01
9.98821139e-01
9.98870121e-01
9.98920896e-01
9.98973215e-01
9.99026806e-01
9.99081375e-01
9.99136610e-01
9.99192182e-01
9.99247749e-01
9.99302963e-01
9.99357475e-01
9.99410939e-01
9.99463020e-01
9.99513399e-01
9.99561783e-01
9.99607905e-01
9.99651534e-01
9.99692480e-01
9.99730595e-01
9.99765777e-01
9.99797969e-01
9.99827162e-01
9.99853393e-01
9.99876737e-01
9.99897309e-01
9.99915256e-01
9.99930751e-01
9.99943988e-01
9.99955172e-01
9.99964520e-01
9.99972246e-01
9.99978565e-01
9.99983683e-01
9.99987796e-01
9.99991088e-01
9.99993732e-01
9.99995890e-01
9.99997714e-01
9.99999347e-01
1.00000093e+00
1.00000260e+00
1.00000451e+00
1.00000681e+00
1.00000965e+00
1.00001321e+00
1.00001769e+00
1.00002329e+00
1.00003023e+00
1.00003875e+00
1.00004908e+00
1.00006148e+00
1.00007621e+00
1.00009350e+00
1.00011358e+00
1.00013666e+00
1.00016292e+00
1.00019250e+00
1.00022549e+00
1.00026196e+00
1.00030188e+00
1.00034521e+00
1.00039183e+00
1.00044156e+00
1.00049417e+00
1.00054941e+00
1.00060695e+00
1.00066643e+00
1.00072748e+00
1.00078970e+00
1.00085267e+00
1.00091597e+00
1.00097920e+00
1.00104194e+00
1.00110382e+00
1.00116448e+00
1.00122357e+00
1.00128079e+00
1.00133586e+00
1.00138854e+00
1.00143861e+00
1.00148590e+00
1.00153026e+00
1.00157154e+00
1.00160966e+00
1.00164454e+00
1.00167611e+00
1.00170432e+00
1.00172915e+00
1.00175056e+00
1.00176853e+00
1.00178306e+00
1.00179411e+00
1.00180169e+00
1.00180576e+00
1.00180632e+00
1.00180327e+00
1.00179672e+00
1.00178632e+00
1.00177256e+00
1.00175437e+00
1.00173356e+00
1.00170426e+00
1.00166920e+00
9.98191711e-01
9.98163587e-01
9.98138839e-01
9.98121652e-01
9.98107013e-01
9.98096154e-01
9.98088261e-01
9.98083747e-01
9.98082303e-01
9.98084059e-01
9.98088909e-01
9.98096889e-01
9.98107970e-01
9.98122165e-01
9.98139473e-01
9.98159901e-01
9.98183453e-01
9.98210131e-01
9.98239933e-01
9.98272846e-01
9.98308850e-01
9.98347910e-01
9.98389973e-01
9.98434969e-01
9.98482805e-01
9.98533363e-01
9.98586496e-01
9.98642030e-01
9.98699760e-01
9.98759448e-01
9.98820824e-01
9.98883588e-01
9.98947413e-01
9.99011942e-01
9.99076798e-01
9.99141586e-01
9.99205901e-01
9.99269334e-01
9.99331477e-01
9.99391934e-01
9.99450331e-01
9.99506320e-01
9.99559588e-01
9.99609865e-01
9.99656931e-01
9.99700616e-01
9.99740809e-01
9.99777455e-01
9.99810555e-01
9.99840164e-01
9.99866389e-01
9.99889380e-01
9.99909326e-01
9.99926447e-01
9.99940985e-01
9.99953200e-01
9.99963357e-01
9.99971727e-01
9.99978576e-01
9.99984164e-01
9.99988743e-01
9.99992556e-01
9.99995839e-01
9.99998819e-01
1.00000172e+00
1.00000478e+00
1.00000821e+00
1.00001227e+00
1.00001720e+00
1.00002326e+00
1.00003074e+00
1.00003993e+00
1.00005113e+00
1.00006464e+00
1.00008077e+00
1.00009984e+00
1.00012212e+00
1.00014788e+00
1.00017734e+00
1.00021068e+00
1.00024805e+00
1.00028951e+00
1.00033508e+00
1.00038468e+00
1.00043820e+00
1.00049543e+00
1.00055610e+00
1.00061990e+00
1.00068645e+00
1.00075532e+00
1.00082606e+00
1.00089819e+00
1.00097123e+00
1.00104467e+00
1.00111803e+00
1.00119085e+00
1.00126268e+00
1.00133311e+00
1.00140177e+00
1.00146832e+00
1.00153246e+00
1.00159395e+00
1.00165257e+00
1.00170815e+00
1.00176057e+00
1.00180971e+00
1.00185552e+00
1.00189794e+00
1.00193696e+00
1.00197257e+00
1.00200478e+00
1.00203363e+00
1.00205913e+00
1.00208131e+00
1.00210021e+00
1.00211587e+00
1.00212830e+00
1.00213753e+00
1.00214354e+00
1.00214640e+00
1.00214598e+00
1.00214244e+00
1.00213542e+00
1.00212542e+00
1.00211143e+00
1.00209501e+00
1.00206997e+00
1.00204321e+00
9.97836066e-01
9.97816067e-01
9.97795988e-01
9.97783163e-01
9.97772820e-01
9.97765776e-01
9.97761341e-01
9.97759910e-01
9.97761174e-01
9.97765293e-01
9.97772160e-01
9.97781843e-01
9.97794327e-01
9.97809658e-01
9.97827859e-01
9.97848978e-01
9.97873056e-01
9.97900141e-01
9.97930278e-01
9.97963510e-01
9.97999877e-01
9.98039406e-01
9.98082113e-01
9.98128000e-01
9.98177048e-01
9.98229214e-01
9.98284430e-01
9.98342597e-01
9.98403579e-01
9.98467208e-01
9.98533273e-01
9.98601527e-01
9.98671678e-01
9.98743397e-01
9.98816316e-01
9.98890033e-01
9.98964115e-01
9.99038106e-01
9.99111536e-01
9.99183925e-01
9.99254794e-01
9.99323680e-01
9.99390141e-01
9.99453767e-01
9.99514192e-01
9.99571103e-01
9.99624245e-01
9.99673427e-01
9.99718528e-01
9.99759495e-01
9.99796347e-01
9.99829164e-01
9.99858089e-01
9.99883320e-01
9.99905098e-01
9.99923704e-01
9.99939444e-01
9.99952648e-01
9.99963655e-01
9.99972814e-01
9.99980475e-01
9.99986985e-01
9.99992693e-01
9.99997945e-01
1.00000309e+00
1.00000847e+00
1.00001444e+00
1.00002137e+00
1.00002963e+00
1.00003960e+00
1.00005165e+00
1.00006620e+00
1.00008361e+00
1.00010427e+00
1.00012854e+00
1.00015675e+00
1.00018919e+00
1.00022609e+00
1.00026764e+00
1.00031392e+00
1.00036498e+00
1.00042074e+00
1.00048108e+00
1.00054574e+00
1.00061444e+00
1.00068679e+00
1.00076232e+00
1.00084056e+00
1.00092095e+00
1.00100292e+00
1.00108590e+00
1.00116930e+00
1.00125255e+00
1.00133511e+00
1.00141648e+00
1.00149619e+00
1.00157381e+00
1.00164900e+00
1.00172144e+00
1.00179086e+00
1.00185708e+00
1.00191993e+00
1.00197930e+00
1.00203514e+00
1.00208742e+00
1.00213613e+00
1.00218130e+00
1.00222299e+00
1.00226126e+00
1.00229619e+00
1.00232786e+00
1.00235635e+00
1.00238177e+00
1.00240418e+00
1.00242367e+00
1.00244032e+00
1.00245417e+00
1.00246530e+00
1.00247371e+00
1.00247950e+00
1.00248254e+00
1.00248305e+00
1.00248067e+00
1.00247586e+00
1.00246785e+00
1.00245753e+00
1.00243939e+00
1.00242409e+00
9.97480871e-01
9.97470885e-01
9.97457241e-01
9.97449870e-01
9.97444959e-01
9.97442634e-01
9.97442464e-01
9.97444765e-01
9.97449270e-01
9.97456151e-01
9.97465311e-01
9.97476845e-01
9.97490751e-01
9.97507102e-01
9.97525945e-01
9.97547358e-01
9.97571415e-01
9.97598201e-01
9.97627804e-01
9.97660317e-01
9.97695830e-01
9.97734433e-01
9.97776208e-01
9.97821229e-01
9.97869555e-01
9.97921228e-01
9.97976267e-01
9.98034666e-01
9.98096383e-01
9.98161342e-01
9.98229426e-01
9.98300472e-01
9.98374269e-01
9.98450557e-01
9.98529024e-01
9.98609307e-01
9.98690995e-01
9.98773634e-01
9.98856728e-01
9.98939753e-01
9.99022161e-01
9.99103393e-01
9.99182890e-01
9.99260110e-01
9.99334533e-01
9.99405682e-01
9.99473132e-01
9.99536521e-01
9.99595557e-01
9.99650030e-01
9.99699812e-01
9.99744862e-01
9.99785221e-01
9.99821010e-01
9.99852426e-01
9.99879731e-01
9.99903245e-01
9.99923337e-01
9.99940413e-01
9.99954912e-01
9.99967293e-01
9.99978033e-01
9.99987622e-01
9.99996559e-01
1.00000535e+00
1.00001450e+00
1.00002454e+00
1.00003599e+00
1.00004935e+00
1.00006516e+00
1.00008392e+00
1.00010612e+00
1.00013223e+00
1.00016267e+00
1.00019782e+00
1.00023798e+00
1.00028339e+00
1.00033420e+00
1.00039046e+00
1.00045212e+00
1.00051902e+00
1.00059091e+00
1.00066743e+00
1.00074813e+00
1.00083248e+00
1.00091989e+00
1.00100971e+00
1.00110128e+00
1.00119391e+00
1.00128692e+00
1.00137964e+00
1.00147145e+00
1.00156177e+00
1.00165006e+00
1.00173589e+00
1.00181883e+00
1.00189859e+00
1.00197489e+00
1.00204755e+00
1.00211643e+00
1.00218147e+00
1.00224263e+00
1.00229995e+00
1.00235347e+00
1.00240328e+00
1.00244948e+00
1.00249220e+00
1.00253158e+00
1.00256775e+00
1.00260085e+00
1.00263104e+00
1.00265845e+00
1.00268321e+00
1.00270545e+00
1.00272527e+00
1.00274279e+00
1.00275807e+00
1.00277123e+00
1.00278227e+00
1.00279133e+00
1.00279832e+00
1.00280343e+00
1.00280641e+00
1.00280757e+00
1.00280661e+00
1.00280331e+00
1.00279392e+00
1.00279172e+00
9.97142439e-01
9.97143149e-01
9.97137010e-01
9.97135554e-01
9.97136581e-01
9.97139346e-01
9.97143774e-01
9.97150045e-01
9.97157980e-01
9.97167738e-01
9.97179249e-01
9.97192622e-01
9.97207869e-01
9.97225084e-01
9.97244328e-01
9.97265702e-01
9.97289300e-01
9.97315235e-01
9.97343624e-01
9.97374595e-01
9.97408278e-01
9.97444810e-01
9.97484328e-01
9.97526967e-01
9.97572856e-01
9.97622117e-01
9.97674855e-01
9.97731157e-01
9.97791084e-01
9.97854668e-01
9.97921901e-01
9.97992735e-01
9.98067071e-01
9.98144757e-01
9.98225583e-01
9.98309275e-01
9.98395500e-01
9.98483859e-01
9.98573893e-01
9.98665088e-01
9.98756878e-01
9.98848659e-01
9.98939798e-01
9.99029646e-01
9.99117554e-01
9.99202888e-01
9.99285047e-01
9.99363478e-01
9.99437693e-01
9.99507280e-01
9.99571916e-01
9.99631378e-01
9.99685545e-01
9.99734402e-01
9.99778039e-01
9.99816647e-01
9.99850513e-01
9.99880008e-01
9.99905583e-01
9.99927754e-01
9.99947092e-01
9.99964215e-01
9.99979777e-01
9.99994461e-01
1.00000897e+00
1.00002401e+00
1.00004030e+00
1.00005855e+00
1.00007945e+00
1.00010368e+00
1.00013185e+00
1.00016454e+00
1.00020227e+00
1.00024545e+00
1.00029441e+00
1.00034939e+00
1.00041047e+00
1.00047764e+00
1.00055074e+00
1.00062949e+00
1.00071349e+00
1.00080221e+00
1.00089505e+00
1.00099131e+00
1.00109024e+00
1.00119105e+00
1.00129293e+00
1.00139510e+00
1.00149677e+00
1.00159724e+00
1.00169583e+00
1.00179196e+00
1.00188513e+00
1.00197490e+00
1.00206095e+00
1.00214301e+00
1.00222092e+00
1.00229458e+00
1.00236395e+00
1.00242906e+00
1.00248998e+00
1.00254683e+00
1.00259975e+00
1.00264890e+00
1.00269448e+00
1.00273666e+00
1.00277566e+00
1.00281167e+00
1.00284488e+00
1.00287547e+00
1.00290363e+00
1.00292951e+00
1.00295328e+00
1.00297508e+00
1.00299503e+00
1.00301327e+00
1.00302986e+00
1.00304495e+00
1.00305855e+00
1.00307081e+00
1.00308168e+00
1.00309134e+00
1.00309967e+00
1.00310677e+00
1.00311290e+00
1.00311653e+00
1.00311654e+00
1.00312711e+00
9.96835512e-01
9.96846238e-01
9.96847772e-01
9.96851983e-01
9.96858705e-01
9.96866317e-01
9.96875111e-01
9.96885107e-01
9.96896248e-01
9.96908654e-01
9.96922298e-01
9.96937290e-01
9.96953656e-01
9.96971501e-01
9.96990895e-01
9.97011947e-01
9.97034763e-01
9.97059467e-01
9.97086191e-01
9.97115079e-01
9.97146285e-01
9.97179972e-01
9.97216313e-01
9.97255483e-01
9.97297664e-01
9.97343036e-01
9.97391777e-01
9.97444054e-01
9.97500023e-01
9.97559818e-01
9.97623547e-01
9.97691282e-01
9.97763056e-01
9.97838849e-01
9.97918587e-01
9.98002130e-01
9.98089269e-01
9.98179720e-01
9.98273122e-01
9.98369039e-01
9.98466958e-01
9.98566297e-01
9.98666413e-01
9.98766612e-01
9.98866165e-01
9.98964323e-01
9.99060336e-01
9.99153475e-01
9.99243050e-01
9.99328433e-01
9.99409074e-01
9.99484525e-01
9.99554449e-01
9.99618632e-01
9.99676996e-01
9.99729597e-01
9.99776627e-01
9.99818412e-01
9.99855401e-01
9.99888160e-01
9.99917354e-01
9.99943739e-01
9.99968140e-01
9.99991436e-01
1.00001455e+00