# vtk DataFile Version 2.0
LBM Flow Field - Timestep 1430
ASCII
DATASET STRUCTURED_POINTS
DIMENSIONS 128 128 1
ORIGIN 0.0 0.0 0.0
SPACING 1.0 1.0 1.0
POINT_DATA 16384
SCALARS density double 1
LOOKUP_TABLE default
1.00115839e+00
1.00113915e+00
1.00111717e+00
1.00111061e+00
1.00110282e+00
1.00109227e+00
1.00108229e+00
1.00107309e+00
1.00106336e+00
1.00105361e+00
1.00104431e+00
1.00103549e+00
1.00102715e+00
1.00101951e+00
1.00101272e+00
1.00100687e+00
1.00100208e+00
1.00099844e+00
1.00099607e+00
1.00099501e+00
1.00099532e+00
1.00099703e+00
1.00100016e+00
1.00100467e+00
1.00101054e+00
1.00101768e+00
1.00102601e+00
1.00103539e+00
1.00104568e+00
1.00105671e+00
1.00106829e+00
1.00108018e+00
1.00109216e+00
1.00110397e+00
1.00111533e+00
1.00112596e+00
1.00113555e+00
1.00114380e+00
1.00115039e+00
1.00115502e+00
1.00115737e+00
1.00115714e+00
1.00115403e+00
1.00114778e+00
1.00113813e+00
1.00112486e+00
1.00110778e+00
1.00108673e+00
1.00106161e+00
1.00103234e+00
1.00099891e+00
1.00096134e+00
1.00091970e+00
1.00087413e+00
1.00082478e+00
1.00077187e+00
1.00071564e+00
1.00065637e+00
1.00059437e+00
1.00052998e+00
1.00046355e+00
1.00039545e+00
1.00032609e+00
1.00025585e+00
1.00018516e+00
1.00011443e+00
1.00004412e+00
9.99974657e-01
9.99906498e-01
9.99840101e-01
9.99775925e-01
9.99714430e-01
9.99656063e-01
9.99601258e-01
9.99550423e-01
9.99503931e-01
9.99462111e-01
9.99425232e-01
9.99393495e-01
9.99367027e-01
9.99345864e-01
9.99329953e-01
9.99319144e-01
9.99313194e-01
9.99311768e-01
9.99314446e-01
9.99320737e-01
9.99330092e-01
9.99341917e-01
9.99355595e-01
9.99370504e-01
9.99386035e-01
9.99401607e-01
9.99416688e-01
9.99430802e-01
9.99443543e-01
9.99454577e-01
9.99463647e-01
9.99470572e-01
9.99475242e-01
9.99477611e-01
9.99477693e-01
9.99475548e-01
9.99471274e-01
9.99465001e-01
9.99456877e-01
9.99447067e-01
9.99435738e-01
9.99423063e-01
9.99409215e-01
9.99394363e-01
9.99378669e-01
9.99362292e-01
9.99345404e-01
9.99328153e-01
9.99310671e-01
9.99293122e-01
9.99275748e-01
9.99258578e-01
9.99241650e-01
9.99225461e-01
9.99210576e-01
9.99195617e-01
9.99180786e-01
9.99169768e-01
9.99161045e-01
9.99136833e-01
9.99116376e-01
1.00114059e+00
1.00113135e+00
1.00111519e+00
1.00110735e+00
1.00109812e+00
1.00108881e+00
1.00107917e+00
1.00106996e+00
1.00106054e+00
1.00105131e+00
1.00104232e+00
1.00103380e+00
1.00102579e+00
1.00101846e+00
1.00101193e+00
1.00100633e+00
1.00100174e+00
1.00099828e+00
1.00099602e+00
1.00099504e+00
1.00099539e+00
1.00099708e+00
1.00100014e+00
1.00100453e+00
1.00101022e+00
1.00101714e+00
1.00102519e+00
1.00103425e+00
1.00104419e+00
1.00105483e+00
1.00106597e+00
1.00107742e+00
1.00108893e+00
1.00110026e+00
1.00111114e+00
1.00112129e+00
1.00113042e+00
1.00113823e+00
1.00114442e+00
1.00114868e+00
1.00115071e+00
1.00115021e+00
1.00114690e+00
1.00114050e+00
1.00113078e+00
1.00111751e+00
1.00110051e+00
1.00107961e+00
1.00105471e+00
1.00102573e+00
1.00099265e+00
1.00095549e+00
1.00091432e+00
1.00086925e+00
1.00082044e+00
1.00076809e+00
1.00071243e+00
1.00065375e+00
1.00059234e+00
1.00052854e+00
1.00046269e+00
1.00039517e+00
1.00032637e+00
1.00025668e+00
1.00018653e+00
1.00011634e+00
1.00004656e+00
9.99977613e-01
9.99909970e-01
9.99844085e-01
9.99780414e-01
9.99719415e-01
9.99661531e-01
9.99607190e-01
9.99556793e-01
9.99510705e-01
9.99469243e-01
9.99432668e-01
9.99401174e-01
9.99374874e-01
9.99353800e-01
9.99337892e-01
9.99326997e-01
9.99320870e-01
9.99319179e-01
9.99321509e-01
9.99327376e-01
9.99336241e-01
9.99347525e-01
9.99360623e-01
9.99374930e-01
9.99389851e-01
9.99404821e-01
9.99419323e-01
9.99432893e-01
9.99445134e-01
9.99455722e-01
9.99464404e-01
9.99471003e-01
9.99475409e-01
9.99477576e-01
9.99477513e-01
9.99475278e-01
9.99470963e-01
9.99464692e-01
9.99456610e-01
9.99446874e-01
9.99435649e-01
9.99423104e-01
9.99409408e-01
9.99394726e-01
9.99379223e-01
9.99363055e-01
9.99346387e-01
9.99329361e-01
9.99312149e-01
9.99294878e-01
9.99277746e-01
9.99260828e-01
9.99244382e-01
9.99228454e-01
9.99213485e-01
9.99198836e-01
9.99185353e-01
9.99172867e-01
9.99162543e-01
9.99144319e-01
9.99134614e-01
1.00111896e+00
1.00111529e+00
1.00111223e+00
1.00110075e+00
1.00108984e+00
1.00108234e+00
1.00107379e+00
1.00106441e+00
1.00105547e+00
1.00104695e+00
1.00103848e+00
1.00103039e+00
1.00102289e+00
1.00101605e+00
1.00100994e+00
1.00100472e+00
1.00100049e+00
1.00099733e+00
1.00099532e+00
1.00099452e+00
1.00099499e+00
1.00099675e+00
1.00099979e+00
1.00100411e+00
1.00100966e+00
1.00101637e+00
1.00102416e+00
1.00103290e+00
1.00104247e+00
1.00105269e+00
1.00106340e+00
1.00107437e+00
1.00108539e+00
1.00109622e+00
1.00110660e+00
1.00111627e+00
1.00112493e+00
1.00113231e+00
1.00113811e+00
1.00114202e+00
1.00114376e+00
1.00114304e+00
1.00113957e+00
1.00113310e+00
1.00112337e+00
1.00111018e+00
1.00109332e+00
1.00107264e+00
1.00104803e+00
1.00101941e+00
1.00098675e+00
1.00095005e+00
1.00090939e+00
1.00086486e+00
1.00081661e+00
1.00076484e+00
1.00070977e+00
1.00065167e+00
1.00059084e+00
1.00052760e+00
1.00046230e+00
1.00039532e+00
1.00032704e+00
1.00025786e+00
1.00018821e+00
1.00011851e+00
1.00004921e+00
9.99980745e-01
9.99913580e-01
9.99848170e-01
9.99784974e-01
9.99724444e-01
9.99667021e-01
9.99613129e-01
9.99563159e-01
9.99517471e-01
9.99476371e-01
9.99440112e-01
9.99408876e-01
9.99382771e-01
9.99361818e-01
9.99345952e-01
9.99335017e-01
9.99328764e-01
9.99326862e-01
9.99328902e-01
9.99334405e-01
9.99342840e-01
9.99353640e-01
9.99366213e-01
9.99379967e-01
9.99394322e-01
9.99408729e-01
9.99422682e-01
9.99435731e-01
9.99447491e-01
9.99457645e-01
9.99465948e-01
9.99472227e-01
9.99476373e-01
9.99478342e-01
9.99478141e-01
9.99475824e-01
9.99471481e-01
9.99465230e-01
9.99457213e-01
9.99447579e-01
9.99436492e-01
9.99424115e-01
9.99410613e-01
9.99396147e-01
9.99380881e-01
9.99364974e-01
9.99348572e-01
9.99331828e-01
9.99314928e-01
9.99297991e-01
9.99281116e-01
9.99264540e-01
9.99248610e-01
9.99232997e-01
9.99217694e-01
9.99204046e-01
9.99192359e-01
9.99177869e-01
9.99163569e-01
9.99159390e-01
9.99155569e-01
1.00110960e+00
1.00110399e+00
1.00109789e+00
1.00108897e+00
1.00108157e+00
1.00107347e+00
1.00106482e+00
1.00105655e+00
1.00104848e+00
1.00104039e+00
1.00103259e+00
1.00102523e+00
1.00101838e+00
1.00101213e+00
1.00100662e+00
1.00100196e+00
1.00099821e+00
1.00099549e+00
1.00099385e+00
1.00099335e+00
1.00099405e+00
1.00099595e+00
1.00099907e+00
1.00100338e+00
1.00100885e+00
1.00101541e+00
1.00102297e+00
1.00103144e+00
1.00104067e+00
1.00105052e+00
1.00106081e+00
1.00107134e+00
1.00108191e+00
1.00109227e+00
1.00110220e+00
1.00111142e+00
1.00111966e+00
1.00112666e+00
1.00113211e+00
1.00113573e+00
1.00113724e+00
1.00113635e+00
1.00113278e+00
1.00112628e+00
1.00111659e+00
1.00110351e+00
1.00108683e+00
1.00106640e+00
1.00104210e+00
1.00101384e+00
1.00098158e+00
1.00094533e+00
1.00090514e+00
1.00086111e+00
1.00081338e+00
1.00076213e+00
1.00070759e+00
1.00065001e+00
1.00058968e+00
1.00052694e+00
1.00046213e+00
1.00039562e+00
1.00032780e+00
1.00025908e+00
1.00018988e+00
1.00012063e+00
1.00005177e+00
9.99983759e-01
9.99917051e-01
9.99852104e-01
9.99789375e-01
9.99729315e-01
9.99672358e-01
9.99618920e-01
9.99569389e-01
9.99524110e-01
9.99483384e-01
9.99447450e-01
9.99416483e-01
9.99390578e-01
9.99369753e-01
9.99353933e-01
9.99342960e-01
9.99336586e-01
9.99334479e-01
9.99336235e-01
9.99341385e-01
9.99349406e-01
9.99359743e-01
9.99371818e-01
9.99385053e-01
9.99398884e-01
9.99412775e-01
9.99426234e-01
9.99438822e-01
9.99450165e-01
9.99459953e-01
9.99467948e-01
9.99473978e-01
9.99477938e-01
9.99479780e-01
9.99479511e-01
9.99477181e-01
9.99472874e-01
9.99466706e-01
9.99458811e-01
9.99449336e-01
9.99438437e-01
9.99426275e-01
9.99413011e-01
9.99398805e-01
9.99383813e-01
9.99368194e-01
9.99352104e-01
9.99335686e-01
9.99319088e-01
9.99302491e-01
9.99286034e-01
9.99269797e-01
9.99254000e-01
9.99238973e-01
9.99224511e-01
9.99210478e-01
9.99197908e-01
9.99186974e-01
9.99175184e-01
9.99167272e-01
9.99161214e-01
1.00109621e+00
1.00108966e+00
1.00108179e+00
1.00107625e+00
1.00106979e+00
1.00106120e+00
1.00105363e+00
1.00104657e+00
1.00103911e+00
1.00103172e+00
1.00102485e+00
1.00101836e+00
1.00101229e+00
1.00100682e+00
1.00100208e+00
1.00099812e+00
1.00099502e+00
1.00099287e+00
1.00099174e+00
1.00099167e+00
1.00099270e+00
1.00099485e+00
1.00099813e+00
1.00100252e+00
1.00100797e+00
1.00101443e+00
1.00102183e+00
1.00103005e+00
1.00103898e+00
1.00104848e+00
1.00105837e+00
1.00106847e+00
1.00107859e+00
1.00108851e+00
1.00109799e+00
1.00110678e+00
1.00111462e+00
1.00112124e+00
1.00112637e+00
1.00112973e+00
1.00113103e+00
1.00112999e+00
1.00112635e+00
1.00111984e+00
1.00111022e+00
1.00109727e+00
1.00108079e+00
1.00106063e+00
1.00103665e+00
1.00100876e+00
1.00097691e+00
1.00094111e+00
1.00090140e+00
1.00085785e+00
1.00081062e+00
1.00075986e+00
1.00070581e+00
1.00064871e+00
1.00058885e+00
1.00052656e+00
1.00046219e+00
1.00039611e+00
1.00032871e+00
1.00026039e+00
1.00019160e+00
1.00012276e+00
1.00005433e+00
9.99986745e-01
9.99920480e-01
9.99855990e-01
9.99793729e-01
9.99734144e-01
9.99677665e-01
9.99624700e-01
9.99575626e-01
9.99530779e-01
9.99490447e-01
9.99454860e-01
9.99424179e-01
9.99398491e-01
9.99377802e-01
9.99362035e-01
9.99351025e-01
9.99344523e-01
9.99342202e-01
9.99343663e-01
9.99348444e-01
9.99356035e-01
9.99365894e-01
9.99377459e-01
9.99390167e-01
9.99403469e-01
9.99416847e-01
9.99429822e-01
9.99441969e-01
9.99452922e-01
9.99462381e-01
9.99470111e-01
9.99475944e-01
9.99479775e-01
9.99481555e-01
9.99481287e-01
9.99479015e-01
9.99474820e-01
9.99468809e-01
9.99461112e-01
9.99451870e-01
9.99441234e-01
9.99429358e-01
9.99416402e-01
9.99402522e-01
9.99387872e-01
9.99372602e-01
9.99356875e-01
9.99340844e-01
9.99324626e-01
9.99308382e-01
9.99292350e-01
9.99276613e-01
9.99261087e-01
9.99246254e-01
9.99232658e-01
9.99219385e-01
9.99205911e-01
9.99195625e-01
9.99187261e-01
9.99177280e-01
9.99169885e-01
1.00107775e+00
1.00107260e+00
1.00106657e+00
1.00106055e+00
1.00105360e+00
1.00104709e+00
1.00104081e+00
1.00103402e+00
1.00102742e+00
1.00102128e+00
1.00101537e+00
1.00100976e+00
1.00100468e+00
1.00100020e+00
1.00099635e+00
1.00099322e+00
1.00099092e+00
1.00098948e+00
1.00098897e+00
1.00098944e+00
1.00099092e+00
1.00099342e+00
1.00099694e+00
1.00100147e+00
1.00100697e+00
1.00101339e+00
1.00102065e+00
1.00102867e+00
1.00103732e+00
1.00104648e+00
1.00105599e+00
1.00106568e+00
1.00107537e+00
1.00108484e+00
1.00109387e+00
1.00110224e+00
1.00110968e+00
1.00111595e+00
1.00112077e+00
1.00112387e+00
1.00112498e+00
1.00112382e+00
1.00112012e+00
1.00111363e+00
1.00110410e+00
1.00109131e+00
1.00107506e+00
1.00105518e+00
1.00103154e+00
1.00100404e+00
1.00097262e+00
1.00093727e+00
1.00089803e+00
1.00085497e+00
1.00080822e+00
1.00075795e+00
1.00070437e+00
1.00064772e+00
1.00058831e+00
1.00052645e+00
1.00046249e+00
1.00039680e+00
1.00032978e+00
1.00026185e+00
1.00019344e+00
1.00012500e+00
1.00005696e+00
9.99989800e-01
9.99923970e-01
9.99859934e-01
9.99798143e-01
9.99739040e-01
9.99683049e-01
9.99630570e-01
9.99581968e-01
9.99537570e-01
9.99497650e-01
9.99462424e-01
9.99432043e-01
9.99406582e-01
9.99386038e-01
9.99370326e-01
9.99359278e-01
9.99352646e-01
9.99350105e-01
9.99351260e-01
9.99355661e-01
9.99362811e-01
9.99372180e-01
9.99383223e-01
9.99395396e-01
9.99408165e-01
9.99421029e-01
9.99433525e-01
9.99445239e-01
9.99455818e-01
9.99464969e-01
9.99472463e-01
9.99478133e-01
9.99481876e-01
9.99483640e-01
9.99483422e-01
9.99481264e-01
9.99477240e-01
9.99471450e-01
9.99464016e-01
9.99455073e-01
9.99444768e-01
9.99433250e-01
9.99420671e-01
9.99407184e-01
9.99392946e-01
9.99378103e-01
9.99362797e-01
9.99347193e-01
9.99331454e-01
9.99315678e-01
9.99299996e-01
9.99284701e-01
9.99269912e-01
9.99255432e-01
9.99241615e-01
9.99229255e-01
9.99217562e-01
9.99206339e-01
9.99197105e-01
9.99188902e-01
9.99182854e-01
1.00105804e+00
1.00105321e+00
1.00104818e+00
1.00104211e+00
1.00103621e+00
1.00103100e+00
1.00102519e+00
1.00101935e+00
1.00101407e+00
1.00100899e+00
1.00100407e+00
1.00099960e+00
1.00099567e+00
1.00099223e+00
1.00098940e+00
1.00098726e+00
1.00098586e+00
1.00098525e+00
1.00098548e+00
1.00098659e+00
1.00098860e+00
1.00099153e+00
1.00099537e+00
1.00100011e+00
1.00100572e+00
1.00101214e+00
1.00101931e+00
1.00102716e+00
1.00103556e+00
1.00104440e+00
1.00105355e+00
1.00106284e+00
1.00107210e+00
1.00108114e+00
1.00108974e+00
1.00109769e+00
1.00110475e+00
1.00111068e+00
1.00111520e+00
1.00111807e+00
1.00111900e+00
1.00111774e+00
1.00111401e+00
1.00110756e+00
1.00109814e+00
1.00108554e+00
1.00106954e+00
1.00104997e+00
1.00102669e+00
1.00099960e+00
1.00096862e+00
1.00093374e+00
1.00089497e+00
1.00085240e+00
1.00080614e+00
1.00075634e+00
1.00070322e+00
1.00064703e+00
1.00058804e+00
1.00052658e+00
1.00046301e+00
1.00039769e+00
1.00033104e+00
1.00026348e+00
1.00019543e+00
1.00012736e+00
1.00005972e+00
9.99992966e-01
9.99927569e-01
9.99863986e-01
9.99802670e-01
9.99744058e-01
9.99688567e-01
9.99636588e-01
9.99588475e-01
9.99544543e-01
9.99505052e-01
9.99470204e-01
9.99440138e-01
9.99414916e-01
9.99394526e-01
9.99378876e-01
9.99367794e-01
9.99361031e-01
9.99358264e-01
9.99359108e-01
9.99363120e-01
9.99369817e-01
9.99378686e-01
9.99389198e-01
9.99400826e-01
9.99413057e-01
9.99425404e-01
9.99437421e-01
9.99448710e-01
9.99458926e-01
9.99467785e-01
9.99475064e-01
9.99480600e-01
9.99484286e-01
9.99486071e-01
9.99485948e-01
9.99483950e-01
9.99480146e-01
9.99474630e-01
9.99467516e-01
9.99458932e-01
9.99449018e-01
9.99437919e-01
9.99425781e-01
9.99412753e-01
9.99398983e-01
9.99384628e-01
9.99369825e-01
9.99354708e-01
9.99339452e-01
9.99324229e-01
9.99309090e-01
9.99294169e-01
9.99279844e-01
9.99266157e-01
9.99252759e-01
9.99240323e-01
9.99229540e-01
9.99219058e-01
9.99209415e-01
9.99202017e-01
9.99196112e-01
1.00103701e+00
1.00103202e+00
1.00102689e+00
1.00102193e+00
1.00101723e+00
1.00101230e+00
1.00100743e+00
1.00100310e+00
1.00099888e+00
1.00099477e+00
1.00099114e+00
1.00098796e+00
1.00098517e+00
1.00098289e+00
1.00098122e+00
1.00098016e+00
1.00097976e+00
1.00098008e+00
1.00098114e+00
1.00098298e+00
1.00098561e+00
1.00098904e+00
1.00099327e+00
1.00099829e+00
1.00100405e+00
1.00101053e+00
1.00101766e+00
1.00102537e+00
1.00103356e+00
1.00104212e+00
1.00105093e+00
1.00105984e+00
1.00106870e+00
1.00107732e+00
1.00108552e+00
1.00109307e+00
1.00109977e+00
1.00110537e+00
1.00110962e+00
1.00111227e+00
1.00111306e+00
1.00111172e+00
1.00110798e+00
1.00110160e+00
1.00109233e+00
1.00107993e+00
1.00106421e+00
1.00104498e+00
1.00102208e+00
1.00099541e+00
1.00096488e+00
1.00093048e+00
1.00089220e+00
1.00085012e+00
1.00080434e+00
1.00075502e+00
1.00070236e+00
1.00064659e+00
1.00058802e+00
1.00052696e+00
1.00046375e+00
1.00039880e+00
1.00033250e+00
1.00026528e+00
1.00019759e+00
1.00012988e+00
1.00006262e+00
9.99996270e-01
9.99931302e-01
9.99868174e-01
9.99807337e-01
9.99749223e-01
9.99694242e-01
9.99642776e-01
9.99595167e-01
9.99551715e-01
9.99512668e-01
9.99478214e-01
9.99448476e-01
9.99423505e-01
9.99403279e-01
9.99387697e-01
9.99376585e-01
9.99369693e-01
9.99366700e-01
9.99367229e-01
9.99370849e-01
9.99377089e-01
9.99385452e-01
9.99395428e-01
9.99406508e-01
9.99418198e-01
9.99430029e-01
9.99441572e-01
9.99452442e-01
9.99462306e-01
9.99470890e-01
9.99477974e-01
9.99483399e-01
9.99487059e-01
9.99488898e-01
9.99488905e-01
9.99487108e-01
9.99483569e-01
9.99478373e-01
9.99471628e-01
9.99463456e-01
9.99453988e-01
9.99443362e-01
9.99431723e-01
9.99419214e-01
9.99405977e-01
9.99392156e-01
9.99377911e-01
9.99363374e-01
9.99348658e-01
9.99333947e-01
9.99319442e-01
9.99305158e-01
9.99291170e-01
9.99277917e-01
9.99265484e-01
9.99253470e-01
9.99242457e-01
9.99232810e-01
9.99223992e-01
9.99216190e-01
9.99209896e-01
1.00101339e+00
1.00100873e+00
1.00100404e+00
1.00099989e+00
1.00099583e+00
1.00099175e+00
1.00098820e+00
1.00098491e+00
1.00098173e+00
1.00097898e+00
1.00097668e+00
1.00097472e+00
1.00097320e+00
1.00097222e+00
1.00097176e+00
1.00097185e+00
1.00097255e+00
1.00097388e+00
1.00097585e+00
1.00097849e+00
1.00098182e+00
1.00098583e+00
1.00099051e+00
1.00099586e+00
1.00100185e+00
1.00100844e+00
1.00101557e+00
1.00102318e+00
1.00103120e+00
1.00103952e+00
1.00104802e+00
1.00105659e+00
1.00106508e+00
1.00107332e+00
1.00108113e+00
1.00108832e+00
1.00109468e+00
1.00109998e+00
1.00110399e+00
1.00110645e+00
1.00110711e+00
1.00110572e+00
1.00110201e+00
1.00109572e+00
1.00108661e+00
1.00107445e+00
1.00105903e+00
1.00104015e+00
1.00101765e+00
1.00099142e+00
1.00096137e+00
1.00092745e+00
1.00088968e+00
1.00084810e+00
1.00080281e+00
1.00075396e+00
1.00070175e+00
1.00064642e+00
1.00058825e+00
1.00052757e+00
1.00046473e+00
1.00040012e+00
1.00033416e+00
1.00026728e+00
1.00019993e+00
1.00013258e+00
1.00006569e+00
9.99999746e-01
9.99935206e-01
9.99872534e-01
9.99812179e-01
9.99754569e-01
9.99700107e-01
9.99649163e-01
9.99602070e-01
9.99559112e-01
9.99520522e-01
9.99486474e-01
9.99457076e-01
9.99432368e-01
9.99412316e-01
9.99396812e-01
9.99385676e-01
9.99378658e-01
9.99375442e-01
9.99375656e-01
9.99378882e-01
9.99384662e-01
9.99392516e-01
9.99401952e-01
9.99412482e-01
9.99423630e-01
9.99434946e-01
9.99446017e-01
9.99456474e-01
9.99465995e-01
9.99474315e-01
9.99481221e-01
9.99486555e-01
9.99490211e-01
9.99492132e-01
9.99492301e-01
9.99490741e-01
9.99487506e-01
9.99482674e-01
9.99476344e-01
9.99468631e-01
9.99459661e-01
9.99449564e-01
9.99438476e-01
9.99426540e-01
9.99413898e-01
9.99400682e-01
9.99387033e-01
9.99373116e-01
9.99359054e-01
9.99344943e-01
9.99330977e-01
9.99317362e-01
9.99304077e-01
9.99291213e-01
9.99279223e-01
9.99268015e-01
9.99257376e-01
9.99247920e-01
9.99239604e-01
9.99231995e-01
9.99225811e-01
1.00098770e+00
1.00098358e+00
1.00097960e+00
1.00097592e+00
1.00097255e+00
1.00096970e+00
1.00096719e+00
1.00096487e+00
1.00096302e+00
1.00096165e+00
1.00096059e+00
1.00095995e+00
1.00095982e+00
1.00096016e+00
1.00096097e+00
1.00096229e+00
1.00096416e+00
1.00096655e+00
1.00096950e+00
1.00097302e+00
1.00097710e+00
1.00098174e+00
1.00098695e+00
1.00099269e+00
1.00099896e+00
1.00100571e+00
1.00101290e+00
1.00102047e+00
1.00102836e+00
1.00103648e+00
1.00104473e+00
1.00105300e+00
1.00106115e+00
1.00106904e+00
1.00107651e+00
1.00108337e+00
1.00108942e+00
1.00109446e+00
1.00109825e+00
1.00110055e+00
1.00110112e+00
1.00109971e+00
1.00109605e+00
1.00108988e+00
1.00108097e+00
1.00106907e+00
1.00105397e+00
1.00103546e+00
1.00101339e+00
1.00098762e+00
1.00095805e+00
1.00092464e+00
1.00088738e+00
1.00084630e+00
1.00080151e+00
1.00075314e+00
1.00070139e+00
1.00064649e+00
1.00058873e+00
1.00052843e+00
1.00046595e+00
1.00040169e+00
1.00033606e+00
1.00026951e+00
1.00020250e+00
1.00013550e+00
1.00006899e+00
1.00000344e+00
9.99939322e-01
9.99877107e-01
9.99817237e-01
9.99760135e-01
9.99706196e-01
9.99655782e-01
9.99609212e-01
9.99566756e-01
9.99528633e-01
9.99495002e-01
9.99465955e-01
9.99441518e-01
9.99421648e-01
9.99406229e-01
9.99395075e-01
9.99387937e-01
9.99384501e-01
9.99384404e-01
9.99387237e-01
9.99392557e-01
9.99399902e-01
9.99408800e-01
9.99418779e-01
9.99429386e-01
9.99440188e-01
9.99450792e-01
9.99460840e-01
9.99470027e-01
9.99478093e-01
9.99484834e-01
9.99490094e-01
9.99493767e-01
9.99495793e-01
9.99496151e-01
9.99494858e-01
9.99491961e-01
9.99487530e-01
9.99481657e-01
9.99474449e-01
9.99466022e-01
9.99456505e-01
9.99446025e-01
9.99434716e-01
9.99422718e-01
9.99410171e-01
9.99397198e-01
9.99383933e-01
9.99370548e-01
9.99357162e-01
9.99343842e-01
9.99330788e-01
9.99318220e-01
9.99306081e-01
9.99294463e-01
9.99283751e-01
9.99273868e-01
9.99264700e-01
9.99256508e-01
9.99249348e-01
9.99243498e-01
1.00096056e+00
1.00095679e+00
1.00095335e+00
1.00095034e+00
1.00094789e+00
1.00094599e+00
1.00094445e+00
1.00094339e+00
1.00094286e+00
1.00094271e+00
1.00094299e+00
1.00094378e+00
1.00094502e+00
1.00094669e+00
1.00094883e+00
1.00095144e+00
1.00095450e+00
1.00095802e+00
1.00096200e+00
1.00096644e+00
1.00097133e+00
1.00097667e+00
1.00098245e+00
1.00098864e+00
1.00099524e+00
1.00100221e+00
1.00100952e+00
1.00101710e+00
1.00102492e+00
1.00103289e+00
1.00104093e+00
1.00104895e+00
1.00105681e+00
1.00106440e+00
1.00107157e+00
1.00107814e+00
1.00108393e+00
1.00108873e+00
1.00109235e+00
1.00109453e+00
1.00109504e+00
1.00109363e+00
1.00109005e+00
1.00108404e+00
1.00107534e+00
1.00106373e+00
1.00104897e+00
1.00103087e+00
1.00100924e+00
1.00098395e+00
1.00095489e+00
1.00092200e+00
1.00088526e+00
1.00084470e+00
1.00080042e+00
1.00075254e+00
1.00070126e+00
1.00064680e+00
1.00058945e+00
1.00052953e+00
1.00046742e+00
1.00040350e+00
1.00033821e+00
1.00027200e+00
1.00020533e+00
1.00013868e+00
1.00007254e+00
1.00000738e+00
9.99943697e-01
9.99881939e-01
9.99822555e-01
9.99765963e-01
9.99712552e-01
9.99662671e-01
9.99616629e-01
9.99574681e-01
9.99537031e-01
9.99503823e-01
9.99475133e-01
9.99450977e-01
9.99431296e-01
9.99415969e-01
9.99404805e-01
9.99397552e-01
9.99393902e-01
9.99393498e-01
9.99395941e-01
9.99400806e-01
9.99407645e-01
9.99416005e-01
9.99425436e-01
9.99435503e-01
9.99445795e-01
9.99455933e-01
9.99465579e-01
9.99474436e-01
9.99482257e-01
9.99488842e-01
9.99494041e-01
9.99497746e-01
9.99499896e-01
9.99500466e-01
9.99499466e-01
9.99496937e-01
9.99492940e-01
9.99487561e-01
9.99480898e-01
9.99473061e-01
9.99464168e-01
9.99454347e-01
9.99443724e-01
9.99432425e-01
9.99420590e-01
9.99408356e-01
9.99395837e-01
9.99383159e-01
9.99370495e-01
9.99357955e-01
9.99345596e-01
9.99333618e-01
9.99322197e-01
9.99311279e-01
9.99301008e-01
9.99291620e-01
9.99282985e-01
9.99275151e-01
9.99268291e-01
9.99262587e-01
1.00093202e+00
1.00092861e+00
1.00092567e+00
1.00092342e+00
1.00092183e+00
1.00092079e+00
1.00092036e+00
1.00092054e+00
1.00092120e+00
1.00092234e+00
1.00092404e+00
1.00092620e+00
1.00092879e+00
1.00093185e+00
1.00093534e+00
1.00093923e+00
1.00094352e+00
1.00094819e+00
1.00095324e+00
1.00095864e+00
1.00096439e+00
1.00097047e+00
1.00097687e+00
1.00098357e+00
1.00099056e+00
1.00099780e+00
1.00100527e+00
1.00101293e+00
1.00102074e+00
1.00102862e+00
1.00103651e+00
1.00104433e+00
1.00105196e+00
1.00105930e+00
1.00106622e+00
1.00107254e+00
1.00107811e+00
1.00108274e+00
1.00108621e+00
1.00108831e+00
1.00108880e+00
1.00108744e+00
1.00108397e+00
1.00107813e+00
1.00106969e+00
1.00105839e+00
1.00104400e+00
1.00102632e+00
1.00100515e+00
1.00098036e+00
1.00095183e+00
1.00091947e+00
1.00088328e+00
1.00084326e+00
1.00079951e+00
1.00075213e+00
1.00070133e+00
1.00064733e+00
1.00059040e+00
1.00053089e+00
1.00046915e+00
1.00040559e+00
1.00034064e+00
1.00027477e+00
1.00020844e+00
1.00014215e+00
1.00007639e+00
1.00001163e+00
9.99948377e-01
9.99887078e-01
9.99828181e-01
9.99772100e-01
9.99719216e-01
9.99669870e-01
9.99624356e-01
9.99582919e-01
9.99545745e-01
9.99512963e-01
9.99484636e-01
9.99460763e-01
9.99441278e-01
9.99426049e-01
9.99414881e-01
9.99407521e-01
9.99403663e-01
9.99402959e-01
9.99405020e-01
9.99409434e-01
9.99415773e-01
9.99423600e-01
9.99432488e-01
9.99442020e-01
9.99451805e-01
9.99461482e-01
9.99470729e-01
9.99479262e-01
9.99486845e-01
9.99493283e-01
9.99498430e-01
9.99502180e-01
9.99504469e-01
9.99505269e-01
9.99504584e-01
9.99502447e-01
9.99498914e-01
9.99494061e-01
9.99487980e-01
9.99480773e-01
9.99472551e-01
9.99463433e-01
9.99453544e-01
9.99443006e-01
9.99431940e-01
9.99420482e-01
9.99408767e-01
9.99396896e-01
9.99384988e-01
9.99373215e-01
9.99361672e-01
9.99350406e-01
9.99339611e-01
9.99329419e-01
9.99319787e-01
9.99310841e-01
9.99302701e-01
9.99295338e-01
9.99288755e-01
9.99283225e-01
1.00090221e+00
1.00089925e+00
1.00089688e+00
1.00089530e+00
1.00089449e+00
1.00089442e+00
1.00089508e+00
1.00089636e+00
1.00089823e+00
1.00090072e+00
1.00090374e+00
1.00090724e+00
1.00091122e+00
1.00091565e+00
1.00092047e+00
1.00092565e+00
1.00093118e+00
1.00093702e+00
1.00094314e+00
1.00094953e+00
1.00095616e+00
1.00096302e+00
1.00097008e+00
1.00097734e+00
1.00098476e+00
1.00099234e+00
1.00100004e+00
1.00100783e+00
1.00101568e+00
1.00102353e+00
1.00103134e+00
1.00103901e+00
1.00104648e+00
1.00105364e+00
1.00106035e+00
1.00106649e+00
1.00107190e+00
1.00107639e+00
1.00107977e+00
1.00108183e+00
1.00108234e+00
1.00108105e+00
1.00107773e+00
1.00107211e+00
1.00106394e+00
1.00105297e+00
1.00103898e+00
1.00102175e+00
1.00100107e+00
1.00097680e+00
1.00094881e+00
1.00091702e+00
1.00088139e+00
1.00084194e+00
1.00079873e+00
1.00075189e+00
1.00070159e+00
1.00064806e+00
1.00059158e+00
1.00053249e+00
1.00047114e+00
1.00040796e+00
1.00034337e+00
1.00027785e+00
1.00021189e+00
1.00014596e+00
1.00008058e+00
1.00001623e+00
9.99953409e-01
9.99892571e-01
9.99834161e-01
9.99778590e-01
9.99726232e-01
9.99677419e-01
9.99632433e-01
9.99591504e-01
9.99554805e-01
9.99522449e-01
9.99494486e-01
9.99470901e-01
9.99451616e-01
9.99436490e-01
9.99425324e-01
9.99417864e-01
9.99413808e-01
9.99412811e-01
9.99414499e-01
9.99418472e-01
9.99424318e-01
9.99431621e-01
9.99439972e-01
9.99448975e-01
9.99458259e-01
9.99467481e-01
9.99476334e-01
9.99484548e-01
9.99491897e-01
9.99498195e-01
9.99503298e-01
9.99507102e-01
9.99509542e-01
9.99510586e-01
9.99510233e-01
9.99508510e-01
9.99505466e-01
9.99501169e-01
9.99495702e-01
9.99489161e-01
9.99481652e-01
9.99473283e-01
9.99464171e-01
9.99454440e-01
9.99444207e-01
9.99433584e-01
9.99422703e-01
9.99411693e-01
9.99400644e-01
9.99389669e-01
9.99378924e-01
9.99368488e-01
9.99358418e-01
9.99348873e-01
9.99339922e-01
9.99331571e-01
9.99323901e-01
9.99316956e-01
9.99310749e-01
9.99305488e-01
1.00087147e+00
1.00086893e+00
1.00086713e+00
1.00086619e+00
1.00086616e+00
1.00086703e+00
1.00086869e+00
1.00087106e+00
1.00087415e+00
1.00087788e+00
1.00088217e+00
1.00088701e+00
1.00089234e+00
1.00089809e+00
1.00090421e+00
1.00091068e+00
1.00091743e+00
1.00092442e+00
1.00093163e+00
1.00093902e+00
1.00094655e+00
1.00095421e+00
1.00096197e+00
1.00096981e+00
1.00097772e+00
1.00098568e+00
1.00099366e+00
1.00100165e+00
1.00100961e+00
1.00101750e+00
1.00102528e+00
1.00103289e+00
1.00104026e+00
1.00104728e+00
1.00105387e+00
1.00105988e+00
1.00106518e+00
1.00106959e+00
1.00107293e+00
1.00107500e+00
1.00107556e+00
1.00107440e+00
1.00107125e+00
1.00106588e+00
1.00105802e+00
1.00104742e+00
1.00103385e+00
1.00101709e+00
1.00099693e+00
1.00097321e+00
1.00094579e+00
1.00091459e+00
1.00087955e+00
1.00084068e+00
1.00079805e+00
1.00075176e+00
1.00070200e+00
1.00064897e+00
1.00059297e+00
1.00053432e+00
1.00047340e+00
1.00041061e+00
1.00034641e+00
1.00028127e+00
1.00021568e+00
1.00015014e+00
1.00008515e+00
1.00002122e+00
9.99958837e-01
9.99898463e-01
9.99840540e-01
9.99785478e-01
9.99733643e-01
9.99685357e-01
9.99640893e-01
9.99600468e-01
9.99564241e-01
9.99532309e-01
9.99504708e-01
9.99481411e-01
9.99462327e-01
9.99447310e-01
9.99436153e-01
9.99428601e-01
9.99424355e-01
9.99423077e-01
9.99424402e-01
9.99427945e-01
9.99433310e-01
9.99440100e-01
9.99447924e-01
9.99456408e-01
9.99465199e-01
9.99473972e-01
9.99482438e-01
9.99490339e-01
9.99497460e-01
9.99503623e-01
9.99508688e-01
9.99512555e-01
9.99515155e-01
9.99516455e-01
9.99516449e-01
9.99515158e-01
9.99512623e-01
9.99508907e-01
9.99504083e-01
9.99498241e-01
9.99491478e-01
9.99483901e-01
9.99475614e-01
9.99466731e-01
9.99457372e-01
9.99447647e-01
9.99437660e-01
9.99427536e-01
9.99417393e-01
9.99407311e-01
9.99397395e-01
9.99387782e-01
9.99378530e-01
9.99369699e-01
9.99361404e-01
9.99353688e-01
9.99346547e-01
9.99340034e-01
9.99334221e-01
9.99329247e-01
1.00084004e+00
1.00083790e+00
1.00083661e+00
1.00083631e+00
1.00083705e+00
1.00083877e+00
1.00084137e+00
1.00084482e+00
1.00084904e+00
1.00085393e+00
1.00085947e+00
1.00086558e+00
1.00087217e+00
1.00087920e+00
1.00088660e+00
1.00089430e+00
1.00090224e+00
1.00091037e+00
1.00091865e+00
1.00092703e+00
1.00093547e+00
1.00094394e+00
1.00095242e+00
1.00096089e+00
1.00096932e+00
1.00097771e+00
1.00098603e+00
1.00099426e+00
1.00100239e+00
1.00101039e+00
1.00101822e+00
1.00102583e+00
1.00103316e+00
1.00104013e+00
1.00104665e+00
1.00105260e+00
1.00105785e+00
1.00106224e+00
1.00106560e+00
1.00106772e+00
1.00106839e+00
1.00106739e+00
1.00106446e+00
1.00105937e+00
1.00105185e+00
1.00104165e+00
1.00102854e+00
1.00101228e+00
1.00099266e+00
1.00096952e+00
1.00094270e+00
1.00091211e+00
1.00087769e+00
1.00083945e+00
1.00079742e+00
1.00075173e+00
1.00070253e+00
1.00065004e+00
1.00059455e+00
1.00053638e+00
1.00047592e+00
1.00041357e+00
1.00034978e+00
1.00028504e+00
1.00021985e+00
1.00015471e+00
1.00009014e+00
1.00002664e+00
9.99964700e-01
9.99904793e-01
9.99847359e-01
9.99792803e-01
9.99741485e-01
9.99693722e-01
9.99649773e-01
9.99609844e-01
9.99574080e-01
9.99542566e-01
9.99515323e-01
9.99492311e-01
9.99473431e-01
9.99458524e-01
9.99447382e-01
9.99439747e-01
9.99435322e-01
9.99433775e-01
9.99434752e-01
9.99437880e-01
9.99442778e-01
9.99449069e-01
9.99456380e-01
9.99464357e-01
9.99472666e-01
9.99481001e-01
9.99489087e-01
9.99496683e-01
9.99503583e-01
9.99509616e-01
9.99514651e-01
9.99518585e-01
9.99521354e-01
9.99522920e-01
9.99523273e-01
9.99522428e-01
9.99520421e-01
9.99517306e-01
9.99513151e-01
9.99508038e-01
9.99502054e-01
9.99495300e-01
9.99487879e-01
9.99479892e-01
9.99471446e-01
9.99462655e-01
9.99453621e-01
9.99444440e-01
9.99435223e-01
9.99426077e-01
9.99417072e-01
9.99408303e-01
9.99399875e-01
9.99391835e-01
9.99384236e-01
9.99377143e-01
9.99370570e-01
9.99364543e-01
9.99359126e-01
9.99354428e-01
1.00080813e+00
1.00080636e+00
1.00080557e+00
1.00080587e+00
1.00080731e+00
1.00080982e+00
1.00081333e+00
1.00081776e+00
1.00082301e+00
1.00082902e+00
1.00083572e+00
1.00084300e+00
1.00085080e+00
1.00085904e+00
1.00086764e+00
1.00087651e+00
1.00088559e+00
1.00089483e+00
1.00090414e+00
1.00091349e+00
1.00092283e+00
1.00093213e+00
1.00094134e+00
1.00095045e+00
1.00095944e+00
1.00096830e+00
1.00097700e+00
1.00098555e+00
1.00099391e+00
1.00100208e+00
1.00101003e+00
1.00101771e+00
1.00102507e+00
1.00103206e+00
1.00103859e+00
1.00104454e+00
1.00104981e+00
1.00105424e+00
1.00105766e+00
1.00105989e+00
1.00106072e+00
1.00105992e+00
1.00105726e+00
1.00105249e+00
1.00104534e+00
1.00103558e+00
1.00102295e+00
1.00100722e+00
1.00098818e+00
1.00096564e+00
1.00093946e+00
1.00090952e+00
1.00087576e+00
1.00083817e+00
1.00079679e+00
1.00075172e+00
1.00070313e+00
1.00065123e+00
1.00059630e+00
1.00053865e+00
1.00047868e+00
1.00041681e+00
1.00035348e+00
1.00028918e+00
1.00022442e+00