# vtk DataFile Version 2.0
LBM Flow Field - Timestep 510
ASCII
DATASET STRUCTURED_POINTS
DIMENSIONS 128 128 1
ORIGIN 0.0 0.0 0.0
SPACING 1.0 1.0 1.0
POINT_DATA 16384
SCALARS density double 1
LOOKUP_TABLE default
9.98628134e-01
9.98626673e-01
9.98650453e-01
9.98762423e-01
9.98897936e-01
9.99041339e-01
9.99205545e-01
9.99384145e-01
9.99563626e-01
9.99740231e-01
9.99911108e-01
1.00007134e+00
1.00021732e+00
1.00034741e+00
1.00046054e+00
1.00055626e+00
1.00063493e+00
1.00069750e+00
1.00074530e+00
1.00077985e+00
1.00080287e+00
1.00081606e+00
1.00082105e+00
1.00081937e+00
1.00081238e+00
1.00080126e+00
1.00078701e+00
1.00077046e+00
1.00075228e+00
1.00073299e+00
1.00071299e+00
1.00069259e+00
1.00067200e+00
1.00065138e+00
1.00063083e+00
1.00061041e+00
1.00059019e+00
1.00057018e+00
1.00055040e+00
1.00053088e+00
1.00051162e+00
1.00049265e+00
1.00047398e+00
1.00045563e+00
1.00043760e+00
1.00041990e+00
1.00040254e+00
1.00038553e+00
1.00036886e+00
1.00035253e+00
1.00033654e+00
1.00032088e+00
1.00030554e+00
1.00029050e+00
1.00027578e+00
1.00026134e+00
1.00024719e+00
1.00023331e+00
1.00021970e+00
1.00020634e+00
1.00019324e+00
1.00018038e+00
1.00016776e+00
1.00015537e+00
1.00014321e+00
1.00013126e+00
1.00011953e+00
1.00010801e+00
1.00009668e+00
1.00008555e+00
1.00007459e+00
1.00006379e+00
1.00005314e+00
1.00004260e+00
1.00003215e+00
1.00002176e+00
1.00001138e+00
1.00000097e+00
9.99990482e-01
9.99979847e-01
9.99969004e-01
9.99957882e-01
9.99946407e-01
9.99934497e-01
9.99922074e-01
9.99909055e-01
9.99895357e-01
9.99880899e-01
9.99865601e-01
9.99849384e-01
9.99832171e-01
9.99813888e-01
9.99794465e-01
9.99773841e-01
9.99751964e-01
9.99728801e-01
9.99704341e-01
9.99678609e-01
9.99651668e-01
9.99623637e-01
9.99594698e-01
9.99565112e-01
9.99535235e-01
9.99505531e-01
9.99476598e-01
9.99449179e-01
9.99424187e-01
9.99402712e-01
9.99386030e-01
9.99375595e-01
9.99373002e-01
9.99379938e-01
9.99398088e-01
9.99429067e-01
9.99474193e-01
9.99534278e-01
9.99609637e-01
9.99700088e-01
9.99803740e-01
9.99917312e-01
1.00003881e+00
1.00016539e+00
1.00028505e+00
1.00039130e+00
1.00049621e+00
1.00058618e+00
1.00059337e+00
1.00058056e+00
9.98608803e-01
9.98639270e-01
9.98680462e-01
9.98778725e-01
9.98903937e-01
9.99047880e-01
9.99207592e-01
9.99379160e-01
9.99554515e-01
9.99728591e-01
9.99896632e-01
1.00005493e+00
1.00020021e+00
1.00033038e+00
1.00044410e+00
1.00054095e+00
1.00062114e+00
1.00068542e+00
1.00073497e+00
1.00077127e+00
1.00079592e+00
1.00081057e+00
1.00081684e+00
1.00081624e+00
1.00081014e+00
1.00079973e+00
1.00078604e+00
1.00076992e+00
1.00075206e+00
1.00073301e+00
1.00071318e+00
1.00069291e+00
1.00067241e+00
1.00065186e+00
1.00063135e+00
1.00061098e+00
1.00059079e+00
1.00057080e+00
1.00055106e+00
1.00053156e+00
1.00051233e+00
1.00049338e+00
1.00047473e+00
1.00045640e+00
1.00043838e+00
1.00042069e+00
1.00040334e+00
1.00038633e+00
1.00036966e+00
1.00035333e+00
1.00033732e+00
1.00032165e+00
1.00030629e+00
1.00029124e+00
1.00027649e+00
1.00026203e+00
1.00024785e+00
1.00023395e+00
1.00022031e+00
1.00020692e+00
1.00019379e+00
1.00018089e+00
1.00016823e+00
1.00015579e+00
1.00014357e+00
1.00013157e+00
1.00011978e+00
1.00010818e+00
1.00009678e+00
1.00008555e+00
1.00007449e+00
1.00006358e+00
1.00005279e+00
1.00004212e+00
1.00003152e+00
1.00002097e+00
1.00001043e+00
9.99999848e-01
9.99989177e-01
9.99978360e-01
9.99967335e-01
9.99956035e-01
9.99944387e-01
9.99932317e-01
9.99919746e-01
9.99906595e-01
9.99892784e-01
9.99878234e-01
9.99862866e-01
9.99846602e-01
9.99829365e-01
9.99811083e-01
9.99791685e-01
9.99771110e-01
9.99749308e-01
9.99726244e-01
9.99701911e-01
9.99676333e-01
9.99649578e-01
9.99621770e-01
9.99593098e-01
9.99563835e-01
9.99534352e-01
9.99505133e-01
9.99476798e-01
9.99450116e-01
9.99426024e-01
9.99405634e-01
9.99390235e-01
9.99381275e-01
9.99380326e-01
9.99389035e-01
9.99409009e-01
9.99441727e-01
9.99488355e-01
9.99549673e-01
9.99625744e-01
9.99715922e-01
9.99818473e-01
9.99931057e-01
1.00004998e+00
1.00017112e+00
1.00028731e+00
1.00039487e+00
1.00049034e+00
1.00056665e+00
1.00059143e+00
1.00061259e+00
9.98587550e-01
9.98634795e-01
9.98718857e-01
9.98798511e-01
9.98908110e-01
9.99054092e-01
9.99211573e-01
9.99374998e-01
9.99545510e-01
9.99716825e-01
9.99882049e-01
1.00003819e+00
1.00018263e+00
1.00031275e+00
1.00042705e+00
1.00052504e+00
1.00060674e+00
1.00067274e+00
1.00072409e+00
1.00076216e+00
1.00078846e+00
1.00080459e+00
1.00081215e+00
1.00081263e+00
1.00080741e+00
1.00079771e+00
1.00078457e+00
1.00076887e+00
1.00075133e+00
1.00073252e+00
1.00071288e+00
1.00069274e+00
1.00067236e+00
1.00065190e+00
1.00063148e+00
1.00061118e+00
1.00059105e+00
1.00057114e+00
1.00055145e+00
1.00053202e+00
1.00051285e+00
1.00049396e+00
1.00047536e+00
1.00045707e+00
1.00043910e+00
1.00042145e+00
1.00040413e+00
1.00038715e+00
1.00037050e+00
1.00035418e+00
1.00033819e+00
1.00032252e+00
1.00030717e+00
1.00029211e+00
1.00027736e+00
1.00026289e+00
1.00024870e+00
1.00023478e+00
1.00022112e+00
1.00020772e+00
1.00019455e+00
1.00018162e+00
1.00016891e+00
1.00015642e+00
1.00014414e+00
1.00013207e+00
1.00012019e+00
1.00010849e+00
1.00009697e+00
1.00008561e+00
1.00007441e+00
1.00006333e+00
1.00005236e+00
1.00004149e+00
1.00003068e+00
1.00001989e+00
1.00000910e+00
9.99998265e-01
9.99987332e-01
9.99976251e-01
9.99964965e-01
9.99953412e-01
9.99941523e-01
9.99929231e-01
9.99916462e-01
9.99903141e-01
9.99889193e-01
9.99874541e-01
9.99859110e-01
9.99842823e-01
9.99825605e-01
9.99807381e-01
9.99788081e-01
9.99767641e-01
9.99746010e-01
9.99723150e-01
9.99699052e-01
9.99673739e-01
9.99647279e-01
9.99619798e-01
9.99591492e-01
9.99562644e-01
9.99533640e-01
9.99504985e-01
9.99477321e-01
9.99451446e-01
9.99428320e-01
9.99409078e-01
9.99395022e-01
9.99387596e-01
9.99388350e-01
9.99398878e-01
9.99420716e-01
9.99455206e-01
9.99503379e-01
9.99565898e-01
9.99642637e-01
9.99732503e-01
9.99834102e-01
9.99945585e-01
1.00006157e+00
1.00017665e+00
1.00029168e+00
1.00040189e+00
1.00048325e+00
1.00054152e+00
1.00061126e+00
1.00064983e+00
9.98628865e-01
9.98665417e-01
9.98732221e-01
9.98816954e-01
9.98931960e-01
9.99065930e-01
9.99213682e-01
9.99373437e-01
9.99539151e-01
9.99704493e-01
9.99865856e-01
1.00001971e+00
1.00016254e+00
1.00029200e+00
1.00040665e+00
1.00050567e+00
1.00058887e+00
1.00065670e+00
1.00071005e+00
1.00075013e+00
1.00077835e+00
1.00079626e+00
1.00080538e+00
1.00080721e+00
1.00080311e+00
1.00079431e+00
1.00078190e+00
1.00076677e+00
1.00074967e+00
1.00073120e+00
1.00071183e+00
1.00069191e+00
1.00067170e+00
1.00065139e+00
1.00063110e+00
1.00061093e+00
1.00059092e+00
1.00057111e+00
1.00055153e+00
1.00053220e+00
1.00051313e+00
1.00049434e+00
1.00047583e+00
1.00045763e+00
1.00043973e+00
1.00042215e+00
1.00040490e+00
1.00038797e+00
1.00037136e+00
1.00035509e+00
1.00033913e+00
1.00032348e+00
1.00030815e+00
1.00029311e+00
1.00027837e+00
1.00026391e+00
1.00024972e+00
1.00023579e+00
1.00022212e+00
1.00020870e+00
1.00019550e+00
1.00018254e+00
1.00016979e+00
1.00015725e+00
1.00014490e+00
1.00013274e+00
1.00012077e+00
1.00010895e+00
1.00009729e+00
1.00008578e+00
1.00007439e+00
1.00006310e+00
1.00005191e+00
1.00004078e+00
1.00002969e+00
1.00001862e+00
1.00000752e+00
9.99996354e-01
9.99985089e-01
9.99973673e-01
9.99962055e-01
9.99950180e-01
9.99937988e-01
9.99925416e-01
9.99912399e-01
9.99898869e-01
9.99884755e-01
9.99869987e-01
9.99854493e-01
9.99838197e-01
9.99821025e-01
9.99802905e-01
9.99783762e-01
9.99763533e-01
9.99742161e-01
9.99719608e-01
9.99695859e-01
9.99670937e-01
9.99644912e-01
9.99617911e-01
9.99590139e-01
9.99561892e-01
9.99533571e-01
9.99505706e-01
9.99478963e-01
9.99454165e-01
9.99432301e-01
9.99414522e-01
9.99402134e-01
9.99396571e-01
9.99399345e-01
9.99411967e-01
9.99435869e-01
9.99472277e-01
9.99522032e-01
9.99585481e-01
9.99662469e-01
9.99751978e-01
9.99851844e-01
9.99959650e-01
1.00007269e+00
1.00018548e+00
1.00029242e+00
1.00039229e+00
1.00048007e+00
1.00054331e+00
1.00059497e+00
1.00062365e+00
9.98679415e-01
9.98708313e-01
9.98759467e-01
9.98849566e-01
9.98959628e-01
9.99080332e-01
9.99221191e-01
9.99375308e-01
9.99532947e-01
9.99691509e-01
9.99848459e-01
9.99998888e-01
1.00013933e+00
1.00026780e+00
1.00038259e+00
1.00048254e+00
1.00056731e+00
1.00063715e+00
1.00069274e+00
1.00073511e+00
1.00076556e+00
1.00078553e+00
1.00079650e+00
1.00079992e+00
1.00079716e+00
1.00078947e+00
1.00077795e+00
1.00076353e+00
1.00074699e+00
1.00072896e+00
1.00070994e+00
1.00069031e+00
1.00067034e+00
1.00065024e+00
1.00063014e+00
1.00061014e+00
1.00059029e+00
1.00057065e+00
1.00055122e+00
1.00053204e+00
1.00051312e+00
1.00049446e+00
1.00047608e+00
1.00045800e+00
1.00044022e+00
1.00042274e+00
1.00040558e+00
1.00038873e+00
1.00037220e+00
1.00035599e+00
1.00034009e+00
1.00032449e+00
1.00030920e+00
1.00029420e+00
1.00027948e+00
1.00026504e+00
1.00025086e+00
1.00023694e+00
1.00022327e+00
1.00020983e+00
1.00019662e+00
1.00018363e+00
1.00017084e+00
1.00015824e+00
1.00014582e+00
1.00013358e+00
1.00012149e+00
1.00010954e+00
1.00009773e+00
1.00008603e+00
1.00007442e+00
1.00006290e+00
1.00005144e+00
1.00004002e+00
1.00002861e+00
1.00001719e+00
1.00000572e+00
9.99994180e-01
9.99982524e-01
9.99970714e-01
9.99958705e-01
9.99946451e-01
9.99933901e-01
9.99921000e-01
9.99907691e-01
9.99893915e-01
9.99879610e-01
9.99864709e-01
9.99849146e-01
9.99832848e-01
9.99815745e-01
9.99797762e-01
9.99778826e-01
9.99758869e-01
9.99737833e-01
9.99715675e-01
9.99692379e-01
9.99667965e-01
9.99642502e-01
9.99616124e-01
9.99589042e-01
9.99561566e-01
9.99534118e-01
9.99507248e-01
9.99481653e-01
9.99458184e-01
9.99437853e-01
9.99421831e-01
9.99411423e-01
9.99408040e-01
9.99413142e-01
9.99428151e-01
9.99454350e-01
9.99492799e-01
9.99544175e-01
9.99608515e-01
9.99685331e-01
9.99773768e-01
9.99871623e-01
9.99975188e-01
1.00008246e+00
1.00019139e+00
1.00029323e+00
1.00038124e+00
1.00046443e+00
1.00053402e+00
1.00057142e+00
1.00059208e+00
9.98726646e-01
9.98757590e-01
9.98810704e-01
9.98888554e-01
9.98985145e-01
9.99102779e-01
9.99236368e-01
9.99378239e-01
9.99527102e-01
9.99679817e-01
9.99830807e-01
9.99976308e-01
1.00011394e+00
1.00024106e+00
1.00035553e+00
1.00045621e+00
1.00054254e+00
1.00061447e+00
1.00067244e+00
1.00071732e+00
1.00075025e+00
1.00077254e+00
1.00078561e+00
1.00079087e+00
1.00078968e+00
1.00078328e+00
1.00077281e+00
1.00075924e+00
1.00074337e+00
1.00072588e+00
1.00070729e+00
1.00068801e+00
1.00066834e+00
1.00064849e+00
1.00062863e+00
1.00060884e+00
1.00058921e+00
1.00056976e+00
1.00055053e+00
1.00053154e+00
1.00051279e+00
1.00049431e+00
1.00047610e+00
1.00045817e+00
1.00044053e+00
1.00042319e+00
1.00040615e+00
1.00038942e+00
1.00037299e+00
1.00035686e+00
1.00034104e+00
1.00032551e+00
1.00031028e+00
1.00029533e+00
1.00028065e+00
1.00026624e+00
1.00025209e+00
1.00023819e+00
1.00022452e+00
1.00021108e+00
1.00019785e+00
1.00018483e+00
1.00017200e+00
1.00015934e+00
1.00014685e+00
1.00013450e+00
1.00012229e+00
1.00011020e+00
1.00009821e+00
1.00008631e+00
1.00007447e+00
1.00006269e+00
1.00005093e+00
1.00003918e+00
1.00002741e+00
1.00001561e+00
1.00000374e+00
9.99991775e-01
9.99979684e-01
9.99967435e-01
9.99954991e-01
9.99942314e-01
9.99929362e-01
9.99916091e-01
9.99902453e-01
9.99888398e-01
9.99873872e-01
9.99858817e-01
9.99843171e-01
9.99826868e-01
9.99809838e-01
9.99792008e-01
9.99773305e-01
9.99753659e-01
9.99733010e-01
9.99711310e-01
9.99688543e-01
9.99664726e-01
9.99639931e-01
9.99614295e-01
9.99588041e-01
9.99561492e-01
9.99535091e-01
9.99509416e-01
9.99485190e-01
9.99463294e-01
9.99444764e-01
9.99430781e-01
9.99422644e-01
9.99421727e-01
9.99429416e-01
9.99447032e-01
9.99475699e-01
9.99516225e-01
9.99569076e-01
9.99634197e-01
9.99710661e-01
9.99796973e-01
9.99891659e-01
9.99991866e-01
1.00009289e+00
1.00019209e+00
1.00028845e+00
1.00037445e+00
1.00044535e+00
1.00050369e+00
1.00054317e+00
1.00056592e+00
9.98787359e-01
9.98815348e-01
9.98866261e-01
9.98933370e-01
9.99021916e-01
9.99131468e-01
9.99252359e-01
9.99383684e-01
9.99524460e-01
9.99668659e-01
9.99812117e-01
9.99952572e-01
1.00008685e+00
1.00021186e+00
1.00032568e+00
1.00042697e+00
1.00051481e+00
1.00058886e+00
1.00064937e+00
1.00069696e+00
1.00073261e+00
1.00075748e+00
1.00077290e+00
1.00078023e+00
1.00078081e+00
1.00077591e+00
1.00076665e+00
1.00075405e+00
1.00073897e+00
1.00072210e+00
1.00070401e+00
1.00068513e+00
1.00066581e+00
1.00064626e+00
1.00062667e+00
1.00060713e+00
1.00058773e+00
1.00056852e+00
1.00054951e+00
1.00053073e+00
1.00051220e+00
1.00049392e+00
1.00047590e+00
1.00045816e+00
1.00044069e+00
1.00042351e+00
1.00040661e+00
1.00039001e+00
1.00037370e+00
1.00035769e+00
1.00034196e+00
1.00032652e+00
1.00031136e+00
1.00029647e+00
1.00028184e+00
1.00026748e+00
1.00025336e+00
1.00023948e+00
1.00022582e+00
1.00021237e+00
1.00019913e+00
1.00018608e+00
1.00017320e+00
1.00016047e+00
1.00014789e+00
1.00013544e+00
1.00012310e+00
1.00011085e+00
1.00009867e+00
1.00008655e+00
1.00007446e+00
1.00006240e+00
1.00005032e+00
1.00003823e+00
1.00002608e+00
1.00001387e+00
1.00000157e+00
9.99989159e-01
9.99976606e-01
9.99963888e-01
9.99950978e-01
9.99937846e-01
9.99924460e-01
9.99910786e-01
9.99896786e-01
9.99882421e-01
9.99867645e-01
9.99852408e-01
9.99836656e-01
9.99820328e-01
9.99803358e-01
9.99785676e-01
9.99767209e-01
9.99747887e-01
9.99727648e-01
9.99706443e-01
9.99684254e-01
9.99661099e-01
9.99637052e-01
9.99612259e-01
9.99586952e-01
9.99561473e-01
9.99536287e-01
9.99511998e-01
9.99489360e-01
9.99469281e-01
9.99452817e-01
9.99441155e-01
9.99435579e-01
9.99437416e-01
9.99447958e-01
9.99468383e-01
9.99499660e-01
9.99542372e-01
9.99596616e-01
9.99662108e-01
9.99737971e-01
9.99822201e-01
9.99912496e-01
1.00000717e+00
1.00010278e+00
1.00019388e+00
1.00027951e+00
1.00035896e+00
1.00042326e+00
1.00047179e+00
1.00050923e+00
1.00052932e+00
9.98860987e-01
9.98883479e-01
9.98925084e-01
9.98986451e-01
9.99067297e-01
9.99162725e-01
9.99271823e-01
9.99393976e-01
9.99523720e-01
9.99657549e-01
9.99793630e-01
9.99928387e-01
1.00005813e+00
1.00018048e+00
1.00029340e+00
1.00039504e+00
1.00048422e+00
1.00056042e+00
1.00062357e+00
1.00067406e+00
1.00071264e+00
1.00074034e+00
1.00075837e+00
1.00076802e+00
1.00077060e+00
1.00076738e+00
1.00075951e+00
1.00074803e+00
1.00073385e+00
1.00071769e+00
1.00070018e+00
1.00068177e+00
1.00066283e+00
1.00064362e+00
1.00062433e+00
1.00060507e+00
1.00058593e+00
1.00056697e+00
1.00054821e+00
1.00052967e+00
1.00051137e+00
1.00049331e+00
1.00047551e+00
1.00045796e+00
1.00044069e+00
1.00042368e+00
1.00040696e+00
1.00039051e+00
1.00037434e+00
1.00035844e+00
1.00034283e+00
1.00032748e+00
1.00031240e+00
1.00029759e+00
1.00028302e+00
1.00026870e+00
1.00025462e+00
1.00024076e+00
1.00022711e+00
1.00021366e+00
1.00020040e+00
1.00018730e+00
1.00017437e+00
1.00016157e+00
1.00014890e+00
1.00013633e+00
1.00012384e+00
1.00011142e+00
1.00009904e+00
1.00008669e+00
1.00007435e+00
1.00006199e+00
1.00004959e+00
1.00003713e+00
1.00002460e+00
1.00001198e+00
9.99999236e-01
9.99986362e-01
9.99973334e-01
9.99960135e-01
9.99946743e-01
9.99933139e-01
9.99919299e-01
9.99905200e-01
9.99890815e-01
9.99876112e-01
9.99861057e-01
9.99845609e-01
9.99829721e-01
9.99813340e-01
9.99796404e-01
9.99778847e-01
9.99760599e-01
9.99741592e-01
9.99721763e-01
9.99701066e-01
9.99679482e-01
9.99657033e-01
9.99633798e-01
9.99609932e-01
9.99585684e-01
9.99561412e-01
9.99537608e-01
9.99514903e-01
9.99494080e-01
9.99476072e-01
9.99461952e-01
9.99452904e-01
9.99450181e-01
9.99455050e-01
9.99468699e-01
9.99492130e-01
9.99526085e-01
9.99570963e-01
9.99626599e-01
9.99692186e-01
9.99766633e-01
9.99848366e-01
9.99934534e-01
1.00002218e+00
1.00010975e+00
1.00019408e+00
1.00027014e+00
1.00033747e+00
1.00039517e+00
1.00043860e+00
1.00046761e+00
1.00048278e+00
9.98939346e-01
9.98958064e-01
9.98993048e-01
9.99046754e-01
9.99116040e-01
9.99199196e-01
9.99297354e-01
9.99406817e-01
9.99524162e-01
9.99648267e-01
9.99775985e-01
9.99903459e-01
1.00002811e+00
1.00014750e+00
1.00025899e+00
1.00036059e+00
1.00045099e+00
1.00052931e+00
1.00059517e+00
1.00064868e+00
1.00069039e+00
1.00072115e+00
1.00074202e+00
1.00075423e+00
1.00075905e+00
1.00075771e+00
1.00075141e+00
1.00074121e+00
1.00072805e+00
1.00071271e+00
1.00069585e+00
1.00067797e+00
1.00065947e+00
1.00064063e+00
1.00062166e+00
1.00060270e+00
1.00058384e+00
1.00056514e+00
1.00054664e+00
1.00052835e+00
1.00051030e+00
1.00049248e+00
1.00047491e+00
1.00045758e+00
1.00044051e+00
1.00042371e+00
1.00040716e+00
1.00039087e+00
1.00037485e+00
1.00035910e+00
1.00034360e+00
1.00032836e+00
1.00031338e+00
1.00029864e+00
1.00028414e+00
1.00026987e+00
1.00025582e+00
1.00024198e+00
1.00022833e+00
1.00021487e+00
1.00020158e+00
1.00018845e+00
1.00017545e+00
1.00016257e+00
1.00014979e+00
1.00013709e+00
1.00012445e+00
1.00011185e+00
1.00009927e+00
1.00008669e+00
1.00007407e+00
1.00006142e+00
1.00004869e+00
1.00003588e+00
1.00002297e+00
1.00000993e+00
9.99996755e-01
9.99983426e-01
9.99969929e-01
9.99956251e-01
9.99942379e-01
9.99928301e-01
9.99914003e-01
9.99899469e-01
9.99884683e-01
9.99869623e-01
9.99854265e-01
9.99838576e-01
9.99822519e-01
9.99806048e-01
9.99789108e-01
9.99771640e-01
9.99753578e-01
9.99734857e-01
9.99715419e-01
9.99695219e-01
9.99674245e-01
9.99652524e-01
9.99630145e-01
9.99607275e-01
9.99584180e-01
9.99561242e-01
9.99538978e-01
9.99518047e-01
9.99499262e-01
9.99483576e-01
9.99472072e-01
9.99465923e-01
9.99466340e-01
9.99474498e-01
9.99491463e-01
9.99518072e-01
9.99554800e-01
9.99601722e-01
9.99658497e-01
9.99724097e-01
9.99796797e-01
9.99874825e-01
9.99956137e-01
1.00003741e+00
1.00011580e+00
1.00019026e+00
1.00025767e+00
1.00031466e+00
1.00036223e+00
1.00039900e+00
1.00042220e+00
1.00043383e+00
9.99023322e-01
9.99039158e-01
9.99068553e-01
9.99111999e-01
9.99169541e-01
9.99241750e-01
9.99326703e-01
9.99422139e-01
9.99527716e-01
9.99641084e-01
9.99758762e-01
9.99878446e-01
9.99997645e-01
1.00011326e+00
1.00022269e+00
1.00032397e+00
1.00041540e+00
1.00049571e+00
1.00056426e+00
1.00062090e+00
1.00066591e+00
1.00069993e+00
1.00072389e+00
1.00073890e+00
1.00074617e+00
1.00074694e+00
1.00074239e+00
1.00073362e+00
1.00072161e+00
1.00070719e+00
1.00069106e+00
1.00067377e+00
1.00065574e+00
1.00063730e+00
1.00061868e+00
1.00060004e+00
1.00058147e+00
1.00056305e+00
1.00054481e+00
1.00052679e+00
1.00050899e+00
1.00049142e+00
1.00047408e+00
1.00045699e+00
1.00044014e+00
1.00042354e+00
1.00040718e+00
1.00039107e+00
1.00037521e+00
1.00035960e+00
1.00034424e+00
1.00032911e+00
1.00031423e+00
1.00029957e+00
1.00028513e+00
1.00027091e+00
1.00025690e+00
1.00024307e+00
1.00022943e+00
1.00021595e+00
1.00020263e+00
1.00018944e+00
1.00017637e+00
1.00016340e+00
1.00015051e+00
1.00013768e+00
1.00012488e+00
1.00011210e+00
1.00009931e+00
1.00008649e+00
1.00007361e+00
1.00006067e+00
1.00004763e+00
1.00003447e+00
1.00002119e+00
1.00000776e+00
9.99994166e-01
9.99980402e-01
9.99966455e-01
9.99952318e-01
9.99937983e-01
9.99923443e-01
9.99908694e-01
9.99893728e-01
9.99878536e-01
9.99863107e-01
9.99847426e-01
9.99831469e-01
9.99815208e-01
9.99798607e-01
9.99781618e-01
9.99764190e-01
9.99746265e-01
9.99727783e-01
9.99708694e-01
9.99688961e-01
9.99668579e-01
9.99647586e-01
9.99626084e-01
9.99604258e-01
9.99582394e-01
9.99560901e-01
9.99540322e-01
9.99521349e-01
9.99504816e-01
9.99491698e-01
9.99483076e-01
9.99480098e-01
9.99483921e-01
9.99495615e-01
9.99516078e-01
9.99545948e-01
9.99585487e-01
9.99634423e-01
9.99692005e-01
9.99757097e-01
9.99827875e-01
9.99901875e-01
9.99976968e-01
1.00005106e+00
1.00012096e+00
1.00018447e+00
1.00024119e+00
1.00028909e+00
1.00032662e+00
1.00035443e+00
1.00037259e+00
1.00038161e+00
9.99113887e-01
9.99125640e-01
9.99148369e-01
9.99182455e-01
9.99229169e-01
9.99288530e-01
9.99359258e-01
9.99441530e-01
9.99534438e-01
9.99635427e-01
9.99742719e-01
9.99854253e-01
9.99966960e-01
1.00007802e+00
1.00018503e+00
1.00028561e+00
1.00037770e+00
1.00045983e+00
1.00053105e+00
1.00059087e+00
1.00063929e+00
1.00067675e+00
1.00070400e+00
1.00072203e+00
1.00073199e+00
1.00073507e+00
1.00073246e+00
1.00072529e+00
1.00071457e+00
1.00070118e+00
1.00068586e+00
1.00066922e+00
1.00065171e+00
1.00063370e+00
1.00061545e+00
1.00059713e+00
1.00057885e+00
1.00056071e+00
1.00054274e+00
1.00052498e+00
1.00050743e+00
1.00049011e+00
1.00047302e+00
1.00045616e+00
1.00043953e+00
1.00042314e+00
1.00040698e+00
1.00039106e+00
1.00037537e+00
1.00035991e+00
1.00034468e+00
1.00032968e+00
1.00031489e+00
1.00030032e+00
1.00028595e+00
1.00027178e+00
1.00025780e+00
1.00024399e+00
1.00023035e+00
1.00021685e+00
1.00020348e+00
1.00019024e+00
1.00017709e+00
1.00016402e+00
1.00015101e+00
1.00013804e+00
1.00012508e+00
1.00011211e+00
1.00009912e+00
1.00008607e+00
1.00007294e+00
1.00005972e+00
1.00004638e+00
1.00003291e+00
1.00001928e+00
1.00000548e+00
9.99991502e-01
9.99977335e-01
9.99962971e-01
9.99948405e-01
9.99933636e-01
9.99918660e-01
9.99903480e-01
9.99888094e-01
9.99872502e-01
9.99856701e-01
9.99840682e-01
9.99824433e-01
9.99807935e-01
9.99791159e-01
9.99774071e-01
9.99756625e-01
9.99738775e-01
9.99720471e-01
9.99701673e-01
9.99682355e-01
9.99662526e-01
9.99642239e-01
9.99621616e-01
9.99600861e-01
9.99580287e-01
9.99560332e-01
9.99541570e-01
9.99524721e-01
9.99510644e-01
9.99500325e-01
9.99494837e-01
9.99495288e-01
9.99502755e-01
9.99518192e-01
9.99542319e-01
9.99575516e-01
9.99617775e-01
9.99668594e-01
9.99726839e-01
9.99790922e-01
9.99859025e-01
9.99928780e-01
9.99997436e-01
1.00006299e+00
1.00012368e+00
1.00017709e+00
1.00022233e+00
1.00025961e+00
1.00028799e+00
1.00030772e+00
1.00032006e+00
1.00032550e+00
9.99209282e-01
9.99216945e-01
9.99232641e-01
9.99257807e-01
9.99293196e-01
9.99339029e-01
9.99396123e-01
9.99464761e-01
9.99543723e-01
9.99632105e-01
9.99728700e-01
9.99831000e-01
9.99936396e-01
1.00004247e+00
1.00014649e+00
1.00024579e+00
1.00033820e+00
1.00042196e+00
1.00049572e+00
1.00055870e+00
1.00061062e+00
1.00065167e+00
1.00068240e+00
1.00070367e+00
1.00071653e+00
1.00072214e+00
1.00072166e+00
1.00071626e+00
1.00070697e+00
1.00069472e+00
1.00068030e+00
1.00066437e+00
1.00064743e+00
1.00062988e+00
1.00061200e+00
1.00059401e+00
1.00057603e+00
1.00055816e+00
1.00054046e+00
1.00052294e+00
1.00050565e+00
1.00048857e+00
1.00047171e+00
1.00045508e+00
1.00043868e+00
1.00042250e+00
1.00040654e+00
1.00039081e+00
1.00037529e+00
1.00035999e+00
1.00034490e+00
1.00033001e+00
1.00031533e+00
1.00030085e+00
1.00028655e+00
1.00027243e+00
1.00025847e+00
1.00024468e+00
1.00023103e+00
1.00021750e+00
1.00020410e+00
1.00019078e+00
1.00017755e+00
1.00016438e+00
1.00015125e+00
1.00013813e+00
1.00012502e+00
1.00011187e+00
1.00009868e+00
1.00008541e+00
1.00007205e+00
1.00005857e+00
1.00004495e+00
1.00003118e+00
1.00001724e+00
1.00000311e+00
9.99988790e-01
9.99974261e-01
9.99959522e-01
9.99944569e-01
9.99929404e-01
9.99914028e-01
9.99898446e-01
9.99882664e-01
9.99866685e-01
9.99850514e-01
9.99834151e-01
9.99817591e-01
9.99800824e-01
9.99783831e-01
9.99766589e-01
9.99749064e-01
9.99731220e-01
9.99713022e-01
9.99694443e-01
9.99675475e-01
9.99656143e-01
9.99636522e-01
9.99616757e-01
9.99597082e-01
9.99577839e-01
9.99559498e-01
9.99542666e-01
9.99528094e-01
9.99516660e-01
9.99509355e-01
9.99507231e-01
9.99511346e-01
9.99522673e-01
9.99542015e-01
9.99569905e-01
9.99606475e-01
9.99651374e-01
9.99703787e-01
9.99762384e-01
9.99825220e-01
9.99890064e-01
9.99954735e-01
1.00001675e+00
1.00007366e+00
1.00012410e+00
1.00016708e+00
1.00020149e+00
1.00022769e+00
1.00024660e+00
1.00025874e+00
1.00026507e+00
1.00026699e+00
9.99307832e-01
9.99311764e-01
9.99320982e-01
9.99336941e-01
9.99360726e-01
9.99393667e-01
9.99437059e-01
9.99491180e-01
9.99556130e-01
9.99631790e-01
9.99716739e-01
9.99809047e-01
9.99906713e-01
1.00000713e+00
1.00010741e+00
1.00020494e+00
1.00029731e+00
1.00038237e+00
1.00045848e+00
1.00052456e+00
1.00058002e+00
1.00062476e+00
1.00065914e+00
1.00068384e+00
1.00069982e+00
1.00070815e+00
1.00071001e+00
1.00070654e+00
1.00069883e+00
1.00068785e+00
1.00067443e+00
1.00065927e+00
1.00064294e+00
1.00062588e+00
1.00060839e+00
1.00059073e+00
1.00057304e+00
1.00055543e+00
1.00053797e+00
1.00052070e+00
1.00050363e+00
1.00048679e+00
1.00047016e+00
1.00045375e+00
1.00043756e+00
1.00042159e+00
1.00040583e+00
1.00039028e+00
1.00037493e+00
1.00035978e+00
1.00034484e+00
1.00033008e+00
1.00031550e+00
1.00030110e+00
1.00028687e+00
1.00027280e+00
1.00025888e+00
1.00024509e+00
1.00023143e+00
1.00021788e+00
1.00020442e+00
1.00019104e+00
1.00017773e+00
1.00016445e+00
1.00015120e+00
1.00013794e+00
1.00012467e+00
1.00011135e+00
1.00009797e+00
1.00008450e+00
1.00007092e+00
1.00005720e+00
1.00004334e+00
1.00002931e+00
1.00001509e+00
1.00000068e+00
9.99986051e-01
9.99971207e-01
9.99956139e-01
9.99940847e-01
9.99925332e-01
9.99909598e-01
9.99893653e-01
9.99877504e-01
9.99861160e-01
9.99844631e-01
9.99827923e-01
9.99811039e-01
9.99793977e-01
9.99776728e-01
9.99759280e-01
9.99741613e-01
9.99723704e-01
9.99705535e-01
9.99687096e-01
9.99668401e-01
9.99649498e-01
9.99630489e-01
9.99611548e-01
9.99592943e-01
9.99575052e-01
9.99558383e-01
9.99543577e-01
9.99531413e-01
9.99522789e-01
9.99518689e-01
9.99520134e-01
9.99528110e-01
9.99543477e-01
9.99566858e-01
9.99598552e-01
9.99638438e-01
9.99685872e-01
9.99739650e-01
9.99798136e-01
9.99859279e-01
9.99920592e-01
9.99979610e-01
1.00003425e+00
1.00008246e+00
1.00012269e+00
1.00015460e+00
1.00017825e+00
1.00019406e+00
1.00020343e+00
1.00020791e+00
1.00020881e+00
1.00020754e+00
9.99408951e-01
9.99409305e-01
9.99412181e-01
9.99419024e-01
9.99431646e-01
9.99451952e-01
9.99481352e-01
9.99521063e-01
9.99572105e-01
9.99634413e-01
9.99707142e-01
9.99789132e-01
9.99878404e-01
9.99972355e-01
1.00006832e+00
1.00016357e+00
1.00025538e+00
1.00034137e+00
1.00041960e+00
1.00048865e+00
1.00054761e+00
1.00059611e+00
1.00063426e+00
1.00066257e+00
1.00068186e+00
1.00069313e+00
1.00069752e+00
1.00069617e+00
1.00069019e+00
1.00068059e+00
1.00066827e+00
1.00065397e+00
1.00063830e+00
1.00062174e+00
1.00060467e+00
1.00058733e+00
1.00056992e+00
1.00055256e+00
1.00053533e+00
1.00051827e+00
1.00050142e+00
1.00048478e+00
1.00046836e+00
1.00045216e+00
1.00043617e+00
1.00042039e+00
1.00040482e+00
1.00038945e+00
1.00037427e+00
1.00035927e+00
1.00034446e+00
1.00032983e+00
1.00031536e+00
1.00030104e+00
1.00028688e+00
1.00027286e+00
1.00025897e+00
1.00024519e+00
1.00023152e+00
1.00021794e+00
1.00020443e+00
1.00019099e+00
1.00017759e+00
1.00016421e+00
1.00015084e+00
1.00013745e+00
1.00012403e+00
1.00011055e+00
1.00009699e+00
1.00008333e+00
1.00006956e+00
1.00005564e+00
1.00004156e+00
1.00002730e+00
1.00001285e+00
9.99998184e-01
9.99983302e-01
9.99968191e-01
9.99952846e-01
9.99937265e-01
9.99921450e-01
9.99905405e-01
9.99889137e-01
9.99872658e-01
9.99855978e-01
9.99839109e-01
9.99822063e-01
9.99804849e-01
9.99787473e-01
9.99769936e-01
9.99752236e-01
9.99734367e-01
9.99716324e-01
9.99698107e-01
9.99679727e-01
9.99661224e-01
9.99642674e-01
9.99624211e-01
9.99606048e-01
9.99588489e-01
9.99571957e-01
9.99556998e-01
9.99544293e-01
9.99534649e-01
9.99528975e-01
9.99528244e-01
9.99533429e-01
9.99545426e-01
9.99564954e-01
9.99592453e-01
9.99627960e-01
9.99671048e-01
9.99720785e-01
9.99775672e-01
9.99833700e-01
9.99892592e-01
9.99949895e-01
1.00000304e+00
1.00004987e+00
1.00008893e+00
1.00011912e+00
1.00014019e+00
1.00015299e+00
1.00015879e+00
1.00015918e+00
1.00015625e+00
1.00015194e+00
1.00014771e+00
9.99511650e-01
9.99508436e-01
9.99505183e-01
9.99503458e-01
9.99505374e-01
9.99513161e-01
9.99528890e-01
9.99554565e-01
9.99591487e-01
9.99640144e-01
9.99700513e-01
9.99771682e-01
9.99851834e-01
9.99938745e-01
1.00002981e+00
1.00012213e+00
1.00021282e+00
1.00029932e+00
1.00037937e+00
1.00045118e+00
1.00051355e+00
1.00056582e+00
1.00060783e+00
1.00063989e+00
1.00066267e+00
1.00067707e+00
1.00068419e+00
1.00068514e+00
1.00068105e+00
1.00067298e+00
1.00066185e+00
1.00064848e+00
1.00063353e+00
1.00061752e+00
1.00060086e+00
1.00058386e+00
1.00056671e+00
1.00054958e+00
1.00053255e+00
1.00051569e+00
1.00049902e+00
1.00048257e+00
1.00046633e+00
1.00045031e+00
1.00043451e+00
1.00041891e+00
1.00040351e+00
1.00038830e+00
1.00037328e+00
1.00035843e+00
1.00034376e+00
1.00032924e+00
1.00031487e+00
1.00030064e+00
1.00028655e+00
1.00027257e+00
1.00025871e+00
1.00024494e+00
1.00023126e+00
1.00021766e+00
1.00020411e+00
1.00019060e+00
1.00017712e+00
1.00016364e+00
1.00015016e+00
1.00013665e+00
1.00012309e+00
1.00010947e+00
1.00009575e+00
1.00008193e+00
1.00006798e+00
1.00005388e+00
1.00003961e+00
1.00002516e+00
1.00001051e+00
9.99995647e-01
9.99980554e-01
9.99965225e-01
9.99949652e-01
9.99933833e-01
9.99917768e-01
9.99901460e-01
9.99884917e-01
9.99868147e-01
9.99851163e-01
9.99833979e-01
9.99816609e-01
9.99799068e-01
9.99781366e-01
9.99763517e-01
9.99745527e-01
9.99727406e-01
9.99709166e-01
9.99690827e-01
9.99672428e-01
9.99654035e-01
9.99635760e-01
9.99617775e-01
9.99600334e-01
9.99583788e-01
9.99568605e-01
9.99555380e-01
9.99544832e-01
9.99537793e-01
9.99535181e-01
9.99537946e-01
9.99547002e-01
9.99563135e-01
9.99586899e-01
9.99618515e-01
9.99657769e-01
9.99703917e-01
9.99755682e-01
9.99811289e-01
9.99868494e-01
9.99924742e-01
9.99977503e-01
1.00002441e+00
1.00006337e+00
1.00009310e+00
1.00011319e+00
1.00012386e+00
1.00012627e+00
1.00012237e+00
1.00011436e+00
1.00010465e+00
1.00009546e+00
1.00008837e+00
9.99614789e-01
9.99608264e-01
9.99599252e-01
9.99589430e-01
9.99581091e-01
9.99576898e-01
9.99579533e-01
9.99591390e-01
9.99614254e-01
9.99649377e-01
9.99697164e-01
9.99757000e-01
9.99827565e-01
9.99906887e-01
9.99992356e-01
1.00008107e+00
1.00017011e+00
1.00025662e+00
1.00033807e+00
1.00041238e+00
1.00047801e+00
1.00053400e+00
1.00057991e+00
1.00061584e+00
1.00064226e+00
1.00065999e+00
1.00067001e+00
1.00067344e+00
1.00067142e+00
1.00066501e+00
1.00065520e+00
1.00064285e+00
1.00062867e+00
1.00061324e+00
1.00059702e+00
1.00058035e+00
1.00056346e+00
1.00054654e+00
1.00052969e+00
1.00051299e+00
1.00049648e+00
1.00048017e+00
1.00046409e+00
1.00044823e+00
1.00043258e+00
1.00041714e+00
1.00040189e+00
1.00038683e+00
1.00037196e+00
1.00035725e+00
1.00034269e+00
1.00032829e+00
1.00031402e+00
1.00029987e+00
1.00028584e+00
1.00027192e+00
1.00025809e+00
1.00024433e+00
1.00023065e+00
1.00021702e+00
1.00020343e+00
1.00018987e+00
1.00017631e+00
1.00016275e+00
1.00014917e+00